
    -----------------------------------------------------------------------
          Psi4: An Open-Source Ab Initio Electronic Structure Package
                               Psi4 1.1 release

                         Git: Rev {HEAD} add49b9 


    R. M. Parrish, L. A. Burns, D. G. A. Smith, A. C. Simmonett,
    A. E. DePrince III, E. G. Hohenstein, U. Bozkaya, A. Yu. Sokolov,
    R. Di Remigio, R. M. Richard, J. F. Gonthier, A. M. James,
    H. R. McAlexander, A. Kumar, M. Saitow, X. Wang, B. P. Pritchard,
    P. Verma, H. F. Schaefer III, K. Patkowski, R. A. King, E. F. Valeev,
    F. A. Evangelista, J. M. Turney, T. D. Crawford, and C. D. Sherrill,
    J. Chem. Theory Comput. in press (2017).
    (doi: 10.1021/acs.jctc.7b00174)

    -----------------------------------------------------------------------


    Psi4 started on: Sunday, 12 November 2017 10:56AM

    Process ID:  27828
    PSIDATADIR: /cbio/jclab/home/chayas/anaconda/envs/py35/share/psi4
    Memory:     500.0 MiB
    Threads:    8
    
  ==> Input File <==

--------------------------------------------------------------------------

memory 5 Gb

molecule phepyrOH_neutral {
  symmetry C1
  0 1 
  C      1.885   -1.036   -0.112
  C      2.878   -1.652   2.002
  C      0.807   -0.463   0.561
  C      1.800   -1.079   2.676
  C      5.329   -1.754   0.128
  C      3.829   -3.271   -0.982
  C      6.367   -2.358   -0.564
  C      4.934   -3.807   -1.624
  C      2.921   -1.631   0.608
  C      4.040   -2.225   -0.090
  C      0.764   -0.484   1.955
  N      6.201   -3.376   -1.438
  O      -0.288   0.076   2.612
  H      1.904   -1.012   -1.199
  H      3.678   -2.112   2.578
  H      0.003   -0.001   -0.006
  H      1.772   -1.098   3.762
  H      5.533   -0.940   0.817
  H      2.837   -3.665   -1.178
  H      7.391   -2.028   -0.427
  H      4.823   -4.624   -2.330
  H      -0.175   -0.018   3.571
  units Angstrom
}

dih_string = "1 9 10 5 120"
set optking fixed_dihedral = $dih_string

optimize('MP2/aug-cc-PVTZ')
--------------------------------------------------------------------------

  Memory set to   4.657 GiB by Python driver.
gradient() will perform analytic gradient computation.

*** tstart() called on gpu-1-4.local
*** at Sun Nov 12 10:56:52 2017

    SCF Algorithm Type (re)set to DF.

*** tstart() called on gpu-1-4.local
*** at Sun Nov 12 10:56:52 2017

   => Loading Basis Set <=

    Name: AUG-CC-PVTZ
    Role: ORBITAL
    Keyword: BASIS
    atoms 1-11  entry C          line   221 file /cbio/jclab/home/chayas/anaconda/envs/py35/share/psi4/basis/aug-cc-pvtz.gbs 
    atoms 12    entry N          line   267 file /cbio/jclab/home/chayas/anaconda/envs/py35/share/psi4/basis/aug-cc-pvtz.gbs 
    atoms 13    entry O          line   313 file /cbio/jclab/home/chayas/anaconda/envs/py35/share/psi4/basis/aug-cc-pvtz.gbs 
    atoms 14-22 entry H          line    34 file /cbio/jclab/home/chayas/anaconda/envs/py35/share/psi4/basis/aug-cc-pvtz.gbs 


         ---------------------------------------------------------
                                   SCF
            by Justin Turney, Rob Parrish, and Andy Simmonett
                              RHF Reference
                        8 Threads,   4768 MiB Core
         ---------------------------------------------------------

  ==> Geometry <==

    Molecular point group: c1
    Full point group: C1

    Geometry (in Angstrom), charge = 0, multiplicity = 1:

       Center              X                  Y                   Z               Mass       
    ------------   -----------------  -----------------  -----------------  -----------------
           C         -1.253263715982     0.710658134260    -0.591165153705    12.000000000000
           C         -0.260263715982     0.094658134260     1.522834846295    12.000000000000
           C         -2.331263715982     1.283658134260     0.081834846295    12.000000000000
           C         -1.338263715982     0.667658134260     2.196834846295    12.000000000000
           C          2.190736284018    -0.007341865740    -0.351165153705    12.000000000000
           C          0.690736284018    -1.524341865740    -1.461165153705    12.000000000000
           C          3.228736284018    -0.611341865740    -1.043165153705    12.000000000000
           C          1.795736284018    -2.060341865740    -2.103165153705    12.000000000000
           C         -0.217263715982     0.115658134260     0.128834846295    12.000000000000
           C          0.901736284018    -0.478341865740    -0.569165153705    12.000000000000
           C         -2.374263715982     1.262658134260     1.475834846295    12.000000000000
           N          3.062736284018    -1.629341865740    -1.917165153705    14.003074004780
           O         -3.426263715982     1.822658134260     2.132834846295    15.994914619560
           H         -1.234263715982     0.734658134260    -1.678165153705     1.007825032070
           H          0.539736284018    -0.365341865740     2.098834846295     1.007825032070
           H         -3.135263715982     1.745658134260    -0.485165153705     1.007825032070
           H         -1.366263715982     0.648658134260     3.282834846295     1.007825032070
           H          2.394736284018     0.806658134260     0.337834846295     1.007825032070
           H         -0.301263715982    -1.918341865740    -1.657165153705     1.007825032070
           H          4.252736284018    -0.281341865740    -0.906165153705     1.007825032070
           H          1.684736284018    -2.877341865740    -2.809165153705     1.007825032070
           H         -3.313263715982     1.728658134260     3.091834846295     1.007825032070

  Running in c1 symmetry.

  Rotational constants: A =      0.09694  B =      0.01321  C =      0.01237 [cm^-1]
  Rotational constants: A =   2906.32410  B =    396.04211  C =    370.76671 [MHz]
  Nuclear repulsion =  697.582813096093105

  Charge       = 0
  Multiplicity = 1
  Electrons    = 90
  Nalpha       = 45
  Nbeta        = 45

  ==> Algorithm <==

  SCF Algorithm Type is DF.
  DIIS enabled.
  MOM disabled.
  Fractional occupation disabled.
  Guess Type is SAD.
  Energy threshold   = 1.00e-10
  Density threshold  = 1.00e-10
  Integral threshold = 0.00e+00

  ==> Primary Basis <==

  Basis Set: AUG-CC-PVTZ
    Blend: AUG-CC-PVTZ
    Number of shells: 263
    Number of basis function: 805
    Number of Cartesian functions: 940
    Spherical Harmonics?: true
    Max angular momentum: 3

   => Loading Basis Set <=

    Name: (AUG-CC-PVTZ AUX)
    Role: JKFIT
    Keyword: DF_BASIS_SCF
    atoms 1-11  entry C          line   161 file /cbio/jclab/home/chayas/anaconda/envs/py35/share/psi4/basis/aug-cc-pvtz-jkfit.gbs 
    atoms 12    entry N          line   223 file /cbio/jclab/home/chayas/anaconda/envs/py35/share/psi4/basis/aug-cc-pvtz-jkfit.gbs 
    atoms 13    entry O          line   285 file /cbio/jclab/home/chayas/anaconda/envs/py35/share/psi4/basis/aug-cc-pvtz-jkfit.gbs 
    atoms 14-22 entry H          line    69 file /cbio/jclab/home/chayas/anaconda/envs/py35/share/psi4/basis/aug-cc-pvtz-jkfit.gbs 

  ==> Pre-Iterations <==

   -------------------------------------------------------
    Irrep   Nso     Nmo     Nalpha   Nbeta   Ndocc  Nsocc
   -------------------------------------------------------
     A        805     805       0       0       0       0
   -------------------------------------------------------
    Total     805     805      45      45      45       0
   -------------------------------------------------------

  ==> Integral Setup <==

  ==> DFJK: Density-Fitted J/K Matrices <==

    J tasked:                  Yes
    K tasked:                  Yes
    wK tasked:                  No
    OpenMP threads:              8
    Integrals threads:           8
    Memory (MB):              3576
    Algorithm:                Disk
    Integral Cache:           NONE
    Schwarz Cutoff:          1E-12
    Fitting Condition:       1E-12

   => Auxiliary Basis Set <=

  Basis Set: (AUG-CC-PVTZ AUX)
    Blend: AUG-CC-PVTZ-JKFIT
    Number of shells: 516
    Number of basis function: 1766
    Number of Cartesian functions: 2198
    Spherical Harmonics?: true
    Max angular momentum: 4

  Minimum eigenvalue in the overlap matrix is 5.8602732136E-07.
  Using Symmetric Orthogonalization.

  SCF Guess: Superposition of Atomic Densities via on-the-fly atomic UHF.

  ==> Iterations <==

                           Total Energy        Delta E     RMS |[F,P]|

   @DF-RHF iter   0:  -559.24540026793295   -5.59245e+02   2.09291e-02 
   @DF-RHF iter   1:  -550.95646758386511    8.28893e+00   1.76480e-03 
   @DF-RHF iter   2:  -551.23166087787422   -2.75193e-01   7.46353e-04 DIIS
   @DF-RHF iter   3:  -551.27148281803079   -3.98219e-02   3.78886e-04 DIIS
   @DF-RHF iter   4:  -551.28428188631017   -1.27991e-02   1.09719e-04 DIIS
   @DF-RHF iter   5:  -551.28589718061619   -1.61529e-03   3.23513e-05 DIIS
   @DF-RHF iter   6:  -551.28615308077462   -2.55900e-04   1.82220e-05 DIIS
   @DF-RHF iter   7:  -551.28619309685018   -4.00161e-05   4.53355e-06 DIIS
   @DF-RHF iter   8:  -551.28619672108027   -3.62423e-06   1.88817e-06 DIIS
   @DF-RHF iter   9:  -551.28619745252865   -7.31448e-07   1.07906e-06 DIIS
   @DF-RHF iter  10:  -551.28619772423372   -2.71705e-07   5.10200e-07 DIIS
   @DF-RHF iter  11:  -551.28619778995062   -6.57169e-08   2.34233e-07 DIIS
   @DF-RHF iter  12:  -551.28619780194629   -1.19957e-08   7.10983e-08 DIIS
   @DF-RHF iter  13:  -551.28619780288363   -9.37348e-10   2.44125e-08 DIIS
   @DF-RHF iter  14:  -551.28619780298436   -1.00727e-10   9.10115e-09 DIIS
   @DF-RHF iter  15:  -551.28619780296890    1.54614e-11   4.25297e-09 DIIS
   @DF-RHF iter  16:  -551.28619780299618   -2.72848e-11   1.85815e-09 DIIS
   @DF-RHF iter  17:  -551.28619780299209    4.09273e-12   7.95161e-10 DIIS
   @DF-RHF iter  18:  -551.28619780298982    2.27374e-12   3.50268e-10 DIIS
   @DF-RHF iter  19:  -551.28619780299618   -6.36646e-12   1.40462e-10 DIIS
   @DF-RHF iter  20:  -551.28619780300448   -8.29914e-12   7.47655e-11 DIIS

  ==> Post-Iterations <==

    Orbital Energies (a.u.)
    -----------------------

    Doubly Occupied:                                                      

       1A    -20.599179     2A    -15.563786     3A    -11.313589  
       4A    -11.274342     5A    -11.274172     6A    -11.261856  
       7A    -11.253219     8A    -11.251988     9A    -11.244395  
      10A    -11.243016    11A    -11.240967    12A    -11.237048  
      13A    -11.236982    14A     -1.414478    15A     -1.249596  
      16A     -1.172215    17A     -1.103532    18A     -1.035905  
      19A     -1.029818    20A     -1.009223    21A     -0.880256  
      22A     -0.864700    23A     -0.846405    24A     -0.810126  
      25A     -0.745245    26A     -0.724288    27A     -0.679956  
      28A     -0.660250    29A     -0.657452    30A     -0.634630  
      31A     -0.615171    32A     -0.602029    33A     -0.600537  
      34A     -0.597031    35A     -0.576867    36A     -0.537404  
      37A     -0.526958    38A     -0.522161    39A     -0.505393  
      40A     -0.489579    41A     -0.418110    42A     -0.383126  
      43A     -0.355257    44A     -0.347849    45A     -0.315450  

    Virtual:                                                              

      46A      0.022018    47A      0.030811    48A      0.032435  
      49A      0.037156    50A      0.042382    51A      0.047548  
      52A      0.050907    53A      0.054183    54A      0.062226  
      55A      0.082316    56A      0.083955    57A      0.087220  
      58A      0.091519    59A      0.096005    60A      0.098489  
      61A      0.100366    62A      0.104645    63A      0.108764  
      64A      0.109423    65A      0.110781    66A      0.112988  
      67A      0.118107    68A      0.119193    69A      0.124252  
      70A      0.127709    71A      0.128766    72A      0.132667  
      73A      0.133437    74A      0.141821    75A      0.142784  
      76A      0.147005    77A      0.150720    78A      0.151940  
      79A      0.156049    80A      0.157182    81A      0.161721  
      82A      0.168357    83A      0.173829    84A      0.174461  
      85A      0.184757    86A      0.188606    87A      0.200716  
      88A      0.203918    89A      0.209283    90A      0.217930  
      91A      0.222311    92A      0.226926    93A      0.234300  
      94A      0.237273    95A      0.239924    96A      0.242818  
      97A      0.246331    98A      0.249110    99A      0.253522  
     100A      0.256015   101A      0.260342   102A      0.261205  
     103A      0.267635   104A      0.268763   105A      0.274565  
     106A      0.277127   107A      0.282173   108A      0.286009  
     109A      0.287809   110A      0.294728   111A      0.300153  
     112A      0.302042   113A      0.309119   114A      0.310001  
     115A      0.315965   116A      0.319180   117A      0.320373  
     118A      0.324759   119A      0.328877   120A      0.331120  
     121A      0.331719   122A      0.344473   123A      0.349928  
     124A      0.353445   125A      0.358763   126A      0.362383  
     127A      0.368753   128A      0.372248   129A      0.379369  
     130A      0.393483   131A      0.393752   132A      0.402309  
     133A      0.404618   134A      0.408924   135A      0.410218  
     136A      0.414582   137A      0.417493   138A      0.418423  
     139A      0.428364   140A      0.434350   141A      0.438356  
     142A      0.439809   143A      0.444142   144A      0.444733  
     145A      0.448969   146A      0.453489   147A      0.459051  
     148A      0.460647   149A      0.462757   150A      0.473374  
     151A      0.474597   152A      0.478125   153A      0.479256  
     154A      0.481739   155A      0.485368   156A      0.486520  
     157A      0.493282   158A      0.494797   159A      0.498187  
     160A      0.505075   161A      0.508946   162A      0.511705  
     163A      0.514557   164A      0.515739   165A      0.516712  
     166A      0.523134   167A      0.525745   168A      0.532788  
     169A      0.536720   170A      0.540444   171A      0.547023  
     172A      0.548087   173A      0.549197   174A      0.551664  
     175A      0.556776   176A      0.562248   177A      0.567954  
     178A      0.577091   179A      0.583031   180A      0.583820  
     181A      0.591700   182A      0.600384   183A      0.603193  
     184A      0.609349   185A      0.620437   186A      0.624275  
     187A      0.629331   188A      0.631556   189A      0.637273  
     190A      0.642570   191A      0.648238   192A      0.658602  
     193A      0.662266   194A      0.668849   195A      0.680026  
     196A      0.688722   197A      0.693429   198A      0.702059  
     199A      0.702855   200A      0.706290   201A      0.709206  
     202A      0.714109   203A      0.723142   204A      0.723985  
     205A      0.732095   206A      0.736102   207A      0.739943  
     208A      0.742781   209A      0.743596   210A      0.753399  
     211A      0.765837   212A      0.771978   213A      0.775331  
     214A      0.782814   215A      0.793211   216A      0.797611  
     217A      0.803624   218A      0.804874   219A      0.812550  
     220A      0.815707   221A      0.822518   222A      0.832003  
     223A      0.834218   224A      0.837611   225A      0.846493  
     226A      0.852768   227A      0.858688   228A      0.860325  
     229A      0.867545   230A      0.874434   231A      0.879848  
     232A      0.882437   233A      0.884942   234A      0.887961  
     235A      0.893492   236A      0.897168   237A      0.902841  
     238A      0.913267   239A      0.918699   240A      0.922342  
     241A      0.923745   242A      0.928634   243A      0.936146  
     244A      0.938063   245A      0.940771   246A      0.944910  
     247A      0.953510   248A      0.956836   249A      0.957826  
     250A      0.962498   251A      0.966137   252A      0.969945  
     253A      0.976807   254A      0.980401   255A      0.986869  
     256A      0.990677   257A      0.994844   258A      0.998137  
     259A      1.005005   260A      1.010463   261A      1.017885  
     262A      1.020329   263A      1.022752   264A      1.032043  
     265A      1.035700   266A      1.039999   267A      1.044596  
     268A      1.048195   269A      1.052870   270A      1.053611  
     271A      1.058594   272A      1.061796   273A      1.066502  
     274A      1.070462   275A      1.085707   276A      1.087167  
     277A      1.089563   278A      1.093081   279A      1.098121  
     280A      1.102309   281A      1.106098   282A      1.111188  
     283A      1.112890   284A      1.121595   285A      1.127297  
     286A      1.131075   287A      1.133997   288A      1.144736  
     289A      1.146593   290A      1.152247   291A      1.155345  
     292A      1.163539   293A      1.167100   294A      1.170904  
     295A      1.175409   296A      1.178425   297A      1.181494  
     298A      1.185607   299A      1.189274   300A      1.202227  
     301A      1.204901   302A      1.206277   303A      1.213050  
     304A      1.219854   305A      1.225230   306A      1.229484  
     307A      1.235782   308A      1.242482   309A      1.248424  
     310A      1.259223   311A      1.265734   312A      1.268263  
     313A      1.274731   314A      1.276709   315A      1.281640  
     316A      1.291353   317A      1.293212   318A      1.300783  
     319A      1.307951   320A      1.313121   321A      1.316486  
     322A      1.322142   323A      1.331352   324A      1.347105  
     325A      1.350625   326A      1.358039   327A      1.362819  
     328A      1.371723   329A      1.379664   330A      1.386894  
     331A      1.395065   332A      1.398382   333A      1.403148  
     334A      1.410581   335A      1.414369   336A      1.424178  
     337A      1.428548   338A      1.440139   339A      1.452948  
     340A      1.462065   341A      1.464053   342A      1.480091  
     343A      1.486051   344A      1.487478   345A      1.496079  
     346A      1.508325   347A      1.510745   348A      1.518740  
     349A      1.533110   350A      1.536494   351A      1.547956  
     352A      1.553558   353A      1.557423   354A      1.566424  
     355A      1.571686   356A      1.580136   357A      1.586230  
     358A      1.592774   359A      1.597994   360A      1.608502  
     361A      1.623534   362A      1.632001   363A      1.633512  
     364A      1.643387   365A      1.651789   366A      1.657215  
     367A      1.659199   368A      1.672345   369A      1.687700  
     370A      1.689047   371A      1.692519   372A      1.697866  
     373A      1.709699   374A      1.714592   375A      1.726747  
     376A      1.733227   377A      1.738212   378A      1.739088  
     379A      1.746966   380A      1.756029   381A      1.760916  
     382A      1.771145   383A      1.789262   384A      1.794836  
     385A      1.800548   386A      1.804861   387A      1.811389  
     388A      1.817154   389A      1.836361   390A      1.843331  
     391A      1.846687   392A      1.853985   393A      1.859770  
     394A      1.860494   395A      1.874658   396A      1.889569  
     397A      1.898554   398A      1.903921   399A      1.907376  
     400A      1.910234   401A      1.922199   402A      1.929087  
     403A      1.935259   404A      1.945130   405A      1.946631  
     406A      1.956487   407A      1.958690   408A      1.975722  
     409A      1.984188   410A      1.990156   411A      1.994553  
     412A      1.998984   413A      2.020163   414A      2.024803  
     415A      2.030089   416A      2.037730   417A      2.044836  
     418A      2.049749   419A      2.053949   420A      2.066127  
     421A      2.076487   422A      2.079894   423A      2.096453  
     424A      2.100471   425A      2.103256   426A      2.110532  
     427A      2.122152   428A      2.124006   429A      2.133376  
     430A      2.144072   431A      2.149610   432A      2.157135  
     433A      2.164189   434A      2.179021   435A      2.186886  
     436A      2.191293   437A      2.201210   438A      2.206905  
     439A      2.213442   440A      2.223391   441A      2.237210  
     442A      2.237596   443A      2.254367   444A      2.259622  
     445A      2.265350   446A      2.270914   447A      2.286183  
     448A      2.289458   449A      2.296607   450A      2.312148  
     451A      2.318587   452A      2.334878   453A      2.340108  
     454A      2.362529   455A      2.364461   456A      2.387504  
     457A      2.388894   458A      2.401981   459A      2.406934  
     460A      2.413516   461A      2.423089   462A      2.441265  
     463A      2.445340   464A      2.453305   465A      2.468048  
     466A      2.480786   467A      2.491221   468A      2.504496  
     469A      2.523708   470A      2.526243   471A      2.545796  
     472A      2.557865   473A      2.569173   474A      2.577083  
     475A      2.586851   476A      2.586981   477A      2.596919  
     478A      2.608402   479A      2.620348   480A      2.629124  
     481A      2.649850   482A      2.656072   483A      2.687534  
     484A      2.694075   485A      2.706078   486A      2.734155  
     487A      2.739738   488A      2.764497   489A      2.767997  
     490A      2.801125   491A      2.814242   492A      2.823592  
     493A      2.830627   494A      2.844636   495A      2.850448  
     496A      2.864891   497A      2.881544   498A      2.895796  
     499A      2.933422   500A      2.938770   501A      2.978284  
     502A      2.992938   503A      3.005146   504A      3.051452  
     505A      3.063660   506A      3.083799   507A      3.096471  
     508A      3.112509   509A      3.151066   510A      3.166348  
     511A      3.207228   512A      3.221469   513A      3.225316  
     514A      3.230391   515A      3.249275   516A      3.252343  
     517A      3.267329   518A      3.277521   519A      3.290665  
     520A      3.301260   521A      3.314087   522A      3.322376  
     523A      3.337794   524A      3.368768   525A      3.374087  
     526A      3.386255   527A      3.392242   528A      3.403530  
     529A      3.408318   530A      3.418499   531A      3.426229  
     532A      3.435501   533A      3.449769   534A      3.455861  
     535A      3.460501   536A      3.469521   537A      3.480961  
     538A      3.490666   539A      3.494822   540A      3.498823  
     541A      3.518197   542A      3.532386   543A      3.540199  
     544A      3.543809   545A      3.549688   546A      3.555462  
     547A      3.561224   548A      3.572795   549A      3.580971  
     550A      3.585133   551A      3.594873   552A      3.608475  
     553A      3.611562   554A      3.619321   555A      3.624867  
     556A      3.630383   557A      3.658015   558A      3.670156  
     559A      3.672081   560A      3.680597   561A      3.692209  
     562A      3.702405   563A      3.714195   564A      3.721625  
     565A      3.734947   566A      3.739431   567A      3.754685  
     568A      3.759740   569A      3.771659   570A      3.778099  
     571A      3.783995   572A      3.790713   573A      3.808861  
     574A      3.813607   575A      3.826768   576A      3.838366  
     577A      3.853577   578A      3.861747   579A      3.869064  
     580A      3.873985   581A      3.882168   582A      3.896615  
     583A      3.907220   584A      3.916658   585A      3.919939  
     586A      3.926409   587A      3.937627   588A      3.946779  
     589A      3.958067   590A      3.962405   591A      3.964401  
     592A      3.968301   593A      3.978037   594A      3.980340  
     595A      3.998307   596A      4.008324   597A      4.017840  
     598A      4.027750   599A      4.030484   600A      4.031005  
     601A      4.033826   602A      4.055770   603A      4.074879  
     604A      4.085711   605A      4.096146   606A      4.097754  
     607A      4.116126   608A      4.126289   609A      4.128331  
     610A      4.137757   611A      4.142565   612A      4.148083  
     613A      4.154432   614A      4.162789   615A      4.175459  
     616A      4.192810   617A      4.196661   618A      4.199412  
     619A      4.216327   620A      4.222211   621A      4.223902  
     622A      4.229715   623A      4.233661   624A      4.270744  
     625A      4.296192   626A      4.299074   627A      4.300965  
     628A      4.304735   629A      4.313880   630A      4.316976  
     631A      4.327348   632A      4.338873   633A      4.343014  
     634A      4.360464   635A      4.368669   636A      4.374663  
     637A      4.379983   638A      4.392633   639A      4.396098  
     640A      4.408476   641A      4.424343   642A      4.431911  
     643A      4.436747   644A      4.443778   645A      4.454360  
     646A      4.456935   647A      4.470141   648A      4.477854  
     649A      4.482804   650A      4.490758   651A      4.494836  
     652A      4.518434   653A      4.530152   654A      4.539785  
     655A      4.543439   656A      4.546704   657A      4.571447  
     658A      4.584753   659A      4.588557   660A      4.616335  
     661A      4.625959   662A      4.638464   663A      4.663302  
     664A      4.667139   665A      4.683196   666A      4.698610  
     667A      4.702863   668A      4.719983   669A      4.736317  
     670A      4.745229   671A      4.757247   672A      4.761207  
     673A      4.788283   674A      4.816098   675A      4.822469  
     676A      4.861954   677A      4.870673   678A      4.879680  
     679A      4.891172   680A      4.911570   681A      4.923564  
     682A      4.941063   683A      4.947853   684A      4.959219  
     685A      4.968378   686A      4.971665   687A      4.979845  
     688A      5.003990   689A      5.020252   690A      5.026973  
     691A      5.030645   692A      5.037698   693A      5.042195  
     694A      5.055887   695A      5.061799   696A      5.078850  
     697A      5.085054   698A      5.105041   699A      5.119052  
     700A      5.138672   701A      5.151478   702A      5.154401  
     703A      5.157560   704A      5.174393   705A      5.175944  
     706A      5.178948   707A      5.182859   708A      5.201493  
     709A      5.212680   710A      5.231519   711A      5.238677  
     712A      5.282200   713A      5.292640   714A      5.310289  
     715A      5.314013   716A      5.329968   717A      5.339961  
     718A      5.343216   719A      5.367508   720A      5.379204  
     721A      5.397564   722A      5.421749   723A      5.434170  
     724A      5.444475   725A      5.458823   726A      5.462430  
     727A      5.479218   728A      5.485215   729A      5.497034  
     730A      5.536192   731A      5.556815   732A      5.570505  
     733A      5.571789   734A      5.637177   735A      5.664007  
     736A      5.668609   737A      5.700268   738A      5.715734  
     739A      5.747178   740A      5.760437   741A      5.794958  
     742A      5.809427   743A      5.829390   744A      5.849510  
     745A      5.869953   746A      5.880118   747A      5.911874  
     748A      5.939052   749A      6.021253   750A      6.049625  
     751A      6.081924   752A      6.112612   753A      6.139372  
     754A      6.186842   755A      6.228226   756A      6.259542  
     757A      6.273279   758A      6.315161   759A      6.319226  
     760A      6.360290   761A      6.401993   762A      6.448035  
     763A      6.489276   764A      6.501351   765A      6.538299  
     766A      6.572705   767A      6.579505   768A      6.699476  
     769A      6.708071   770A      6.719600   771A      6.765753  
     772A      6.872923   773A      6.879027   774A      6.895479  
     775A      6.904020   776A      6.929715   777A      7.004025  
     778A      7.016239   779A      7.052341   780A      7.085446  
     781A      7.101664   782A      7.217849   783A      7.261362  
     784A      7.420853   785A      7.422533   786A      7.437085  
     787A      7.692520   788A      7.707357   789A      7.758931  
     790A      8.012906   791A      8.389535   792A      8.640846  
     793A     15.602950   794A     16.272986   795A     16.569272  
     796A     16.679796   797A     16.760617   798A     18.427744  
     799A     18.703049   800A     19.217048   801A     19.502825  
     802A     20.023656   803A     20.105434   804A     20.264287  
     805A     21.814647  

    Final Occupation by Irrep:
              A 
    DOCC [    45 ]

  Energy converged.

  @DF-RHF Final Energy:  -551.28619780300448

   => Energetics <=

    Nuclear Repulsion Energy =            697.5828130960931048
    One-Electron Energy =               -2131.9269489935204547
    Two-Electron Energy =                 883.0579380944228660
    DFT Exchange-Correlation Energy =       0.0000000000000000
    Empirical Dispersion Energy =           0.0000000000000000
    PCM Polarization Energy =               0.0000000000000000
    EFP Energy =                            0.0000000000000000
    Total Energy =                       -551.2861978030044838



Properties will be evaluated at   0.000000,   0.000000,   0.000000 Bohr

Properties computed using the SCF density matrix

  Nuclear Dipole Moment: (a.u.)
     X:    -0.4738      Y:     0.2215      Z:     1.2116

  Electronic Dipole Moment: (a.u.)
     X:    -0.1059      Y:     0.0669      Z:    -0.2576

  Dipole Moment: (a.u.)
     X:    -0.5797      Y:     0.2884      Z:     0.9540     Total:     1.1530

  Dipole Moment: (Debye)
     X:    -1.4734      Y:     0.7331      Z:     2.4248     Total:     2.9305


*** tstop() called on gpu-1-4.local at Sun Nov 12 11:03:47 2017
Module time:
	user time   =    1041.25 seconds =      17.35 minutes
	system time =      47.61 seconds =       0.79 minutes
	total time  =        415 seconds =       6.92 minutes
Total time:
	user time   =    1041.25 seconds =      17.35 minutes
	system time =      47.61 seconds =       0.79 minutes
	total time  =        415 seconds =       6.92 minutes

  //>>>>>>>>>>>>>>>>>>>>>>>>>>>>>>>>>>>//
  //               DFMP2               //
  //<<<<<<<<<<<<<<<<<<<<<<<<<<<<<<<<<<<//

   => Loading Basis Set <=

    Name: (AUG-CC-PVTZ AUX)
    Role: RIFIT
    Keyword: DF_BASIS_MP2
    atoms 1-11  entry C          line   147 file /cbio/jclab/home/chayas/anaconda/envs/py35/share/psi4/basis/aug-cc-pvtz-ri.gbs 
    atoms 12    entry N          line   205 file /cbio/jclab/home/chayas/anaconda/envs/py35/share/psi4/basis/aug-cc-pvtz-ri.gbs 
    atoms 13    entry O          line   263 file /cbio/jclab/home/chayas/anaconda/envs/py35/share/psi4/basis/aug-cc-pvtz-ri.gbs 
    atoms 14-22 entry H          line    29 file /cbio/jclab/home/chayas/anaconda/envs/py35/share/psi4/basis/aug-cc-pvtz-ri.gbs 

	 --------------------------------------------------------
	                          DF-MP2                         
	      2nd-Order Density-Fitted Moller-Plesset Theory     
	              RMP2 Wavefunction,   8 Threads             
	                                                         
	        Rob Parrish, Justin Turney, Andy Simmonett,      
	           Ed Hohenstein, and C. David Sherrill          
	 --------------------------------------------------------

   => Auxiliary Basis Set <=

  Basis Set: (AUG-CC-PVTZ AUX)
    Blend: AUG-CC-PVTZ-RI
    Number of shells: 490
    Number of basis function: 1792
    Number of Cartesian functions: 2263
    Spherical Harmonics?: true
    Max angular momentum: 4

	 --------------------------------------------------------
	                 NBF =   805, NAUX =  1792
	 --------------------------------------------------------
	   CLASS    FOCC     OCC    AOCC    AVIR     VIR    FVIR
	   PAIRS       0      45      45     760     760       0
	 --------------------------------------------------------


         ------------------------------------------------------------
                                     CPHF                           
                                  Rob Parrish                       
         ------------------------------------------------------------

  ==> Geometry <==

    Molecular point group: c1
    Full point group: C1

    Geometry (in Angstrom), charge = 0, multiplicity = 1:

       Center              X                  Y                   Z               Mass       
    ------------   -----------------  -----------------  -----------------  -----------------
           C         -1.253263715982     0.710658134260    -0.591165153705    12.000000000000
           C         -0.260263715982     0.094658134260     1.522834846295    12.000000000000
           C         -2.331263715982     1.283658134260     0.081834846295    12.000000000000
           C         -1.338263715982     0.667658134260     2.196834846295    12.000000000000
           C          2.190736284018    -0.007341865740    -0.351165153705    12.000000000000
           C          0.690736284018    -1.524341865740    -1.461165153705    12.000000000000
           C          3.228736284018    -0.611341865740    -1.043165153705    12.000000000000
           C          1.795736284018    -2.060341865740    -2.103165153705    12.000000000000
           C         -0.217263715982     0.115658134260     0.128834846295    12.000000000000
           C          0.901736284018    -0.478341865740    -0.569165153705    12.000000000000
           C         -2.374263715982     1.262658134260     1.475834846295    12.000000000000
           N          3.062736284018    -1.629341865740    -1.917165153705    14.003074004780
           O         -3.426263715982     1.822658134260     2.132834846295    15.994914619560
           H         -1.234263715982     0.734658134260    -1.678165153705     1.007825032070
           H          0.539736284018    -0.365341865740     2.098834846295     1.007825032070
           H         -3.135263715982     1.745658134260    -0.485165153705     1.007825032070
           H         -1.366263715982     0.648658134260     3.282834846295     1.007825032070
           H          2.394736284018     0.806658134260     0.337834846295     1.007825032070
           H         -0.301263715982    -1.918341865740    -1.657165153705     1.007825032070
           H          4.252736284018    -0.281341865740    -0.906165153705     1.007825032070
           H          1.684736284018    -2.877341865740    -2.809165153705     1.007825032070
           H         -3.313263715982     1.728658134260     3.091834846295     1.007825032070

  Nuclear repulsion =  697.582813096093105
  Reference energy  = -551.286197803004484

  ==> Basis Set <==

  Basis Set: AUG-CC-PVTZ
    Blend: AUG-CC-PVTZ
    Number of shells: 263
    Number of basis function: 805
    Number of Cartesian functions: 940
    Spherical Harmonics?: true
    Max angular momentum: 3

  ==> CGRSolver (by Rob Parrish) <==

   Number of roots    =         1
   Preconditioning    =    JACOBI
   Convergence cutoff =     1E-06
   Maximum iterations =       100

  ==> CPHFRHamiltonian (by Rob Parrish) <== 

  ==> DFJK: Density-Fitted J/K Matrices <==

    J tasked:                  Yes
    K tasked:                  Yes
    wK tasked:                  No
    OpenMP threads:              8
    Integrals threads:           8
    Memory (MB):              3576
    Algorithm:                Disk
    Integral Cache:           NONE
    Schwarz Cutoff:          1E-12
    Fitting Condition:       1E-12

   => Auxiliary Basis Set <=

  Basis Set: (AUG-CC-PVTZ AUX)
    Blend: AUG-CC-PVTZ-JKFIT
    Number of shells: 516
    Number of basis function: 1766
    Number of Cartesian functions: 2198
    Spherical Harmonics?: true
    Max angular momentum: 4

  ==> CPHF Iterations <==

  => Iterations <=

             Iter  Converged  Remaining    Residual
  CGR           1          0          1   8.845E-02
  CGR           2          0          1   3.426E-02
  CGR           3          0          1   2.322E-02
  CGR           4          0          1   9.647E-03
  CGR           5          0          1   3.796E-03
  CGR           6          0          1   1.556E-03
  CGR           7          0          1   4.273E-04
  CGR           8          0          1   1.181E-04
  CGR           9          0          1   4.878E-05
  CGR          10          0          1   1.840E-05
  CGR          11          0          1   9.449E-06
  CGR          12          0          1   4.121E-06
  CGR          13          0          1   1.344E-06
  CGR          14          1          0   4.504E-07

    CGRSolver converged.

  ==> DFCorrGrad: Density-Fitted Correlated Gradients <==

    OpenMP threads:              8
    Integrals threads:           8
    Memory (MB):              3576
    Schwarz Cutoff:          0E+00
    Fitting Condition:       1E-12

   => Auxiliary Basis Set <=

  Basis Set: (AUG-CC-PVTZ AUX)
    Blend: AUG-CC-PVTZ-JKFIT
    Number of shells: 516
    Number of basis function: 1766
    Number of Cartesian functions: 2198
    Spherical Harmonics?: true
    Max angular momentum: 4

	-----------------------------------------------------------
	 ==================> DF-MP2 Energies <==================== 
	-----------------------------------------------------------
	 Reference Energy          =    -551.2861978030044838 [Eh]
	 Singles Energy            =      -0.0000000000000002 [Eh]
	 Same-Spin Energy          =      -0.6044486413627592 [Eh]
	 Opposite-Spin Energy      =      -1.8300465415370468 [Eh]
	 Correlation Energy        =      -2.4344951828998060 [Eh]
	 Total Energy              =    -553.7206929859042930 [Eh]
	-----------------------------------------------------------
	 ================> DF-SCS-MP2 Energies <================== 
	-----------------------------------------------------------
	 SCS Same-Spin Scale       =       0.3333333333333333 [-]
	 SCS Opposite-Spin Scale   =       1.2000000000000000 [-]
	 SCS Same-Spin Energy      =      -0.2014828804542531 [Eh]
	 SCS Opposite-Spin Energy  =      -2.1960558498444560 [Eh]
	 SCS Correlation Energy    =      -2.3975387302987090 [Eh]
	 SCS Total Energy          =    -553.6837365333032039 [Eh]
	-----------------------------------------------------------


  -Total Gradient:
     Atom            X                  Y                   Z
    ------   -----------------  -----------------  -----------------
       1        0.007889605414    -0.000939061301    -0.008091464272
       2        0.005933167272    -0.006192496933    -0.004160196270
       3        0.002391119514    -0.001098575499     0.001498003491
       4       -0.005743549434     0.002677010128     0.006895146360
       5       -0.004907260587     0.006703896906     0.003228680645
       6       -0.008285934653    -0.000999694421     0.003585633242
       7       -0.003128306860     0.010089426984     0.008484571873
       8       -0.012770562550    -0.000370918221     0.002826345810
       9        0.006032937702    -0.003381537211    -0.004267598891
      10        0.001067663458     0.000318098660    -0.000078440492
      11       -0.007527979301     0.004344737357    -0.007744830020
      12        0.012474585885    -0.007192462597    -0.008433307734
      13        0.005889101342    -0.003231223039     0.000384709111
      14       -0.001693594402     0.000590509011    -0.005661655532
      15        0.003238667960    -0.001500380427     0.004967227329
      16       -0.002877820481     0.001399515916    -0.005150642108
      17        0.000974337514    -0.000274480487     0.003675065403
      18        0.003309372198     0.003125907100     0.003017701081
      19       -0.003357132487    -0.002787269418    -0.002663480065
      20        0.002495477594     0.000139488657     0.000243763424
      21        0.000248984359    -0.002021176441    -0.002275675028
      22       -0.001652879451     0.000600685287     0.009720442654


*** tstop() called on gpu-1-4.local at Sun Nov 12 11:36:38 2017
Module time:
	user time   =    5210.23 seconds =      86.84 minutes
	system time =     108.36 seconds =       1.81 minutes
	total time  =       2386 seconds =      39.77 minutes
Total time:
	user time   =    5210.23 seconds =      86.84 minutes
	system time =     108.36 seconds =       1.81 minutes
	total time  =       2386 seconds =      39.77 minutes

			-----------------------------------------
			 OPTKING 2.0: for geometry optimizations 
			  - R.A. King,  Bethel University        
			-----------------------------------------

	Internal coordinates to be generated automatically.
	Detected frag 1 with atoms:  1 2 3 4 5 6 7 8 9 10 11 12 13 14 15 16 17 18 19 20
	 21 22
	---Fragment 1 Bond Connectivity---
	 1 : 3 9 14
	 2 : 4 9 15
	 3 : 1 11 16
	 4 : 2 11 17
	 5 : 7 10 18
	 6 : 8 10 19
	 7 : 5 12 20
	 8 : 6 12 21
	 9 : 1 2 10
	 10 : 5 6 9
	 11 : 3 4 13
	 12 : 7 8
	 13 : 11 22
	 14 : 1
	 15 : 2
	 16 : 3
	 17 : 4
	 18 : 5
	 19 : 6
	 20 : 7
	 21 : 8
	 22 : 13

	Assuming in current code that numbering for constraints corresponds to unified fragment.
	Fixed dihedral atom list: 
	     1     9    10     5
	---Fragment 1 Geometry and Gradient---
	 C          -2.3683251955        1.3429492479       -1.1171402398
	 C          -0.4918271455        0.1788779500        2.8777408051
	 C          -4.4054499667        2.4257623220        0.1546454476
	 C          -2.5289519168        1.2616910241        4.1514162187
	 C           4.1398916062       -0.0138741156       -0.6636059679
	 C           1.3053024068       -2.8805886591       -2.7612019754
	 C           6.1014273321       -1.1552686998       -1.9712964519
	 C           3.3934497837       -3.8934818664       -3.9744061527
	 C          -0.4105689218        0.2185621988        0.2434625759
	 C           1.7040346209       -0.9039351241       -1.0755662649
	 C          -4.4867081905        2.3860780732        2.7889236769
	 N           5.7877327940       -3.0790099031       -3.6229170920
	 O          -6.4747000822        3.4443247076        4.0304737462
	 H          -2.3324203990        1.3883026750       -3.1712725463
	 H           1.0199537608       -0.6903960711        3.9662230577
	 H          -5.9247897776        3.2988157954       -0.9168292697
	 H          -2.5818642485        1.2257862276        6.2036587990
	 H           4.5253957373        1.5243629566        0.6384153376
	 H          -0.5693059170       -3.6251407555       -3.1315882975
	 H           8.0365068922       -0.5316590760       -1.7124039717
	 H           3.1836901829       -5.4373881169       -5.3085528025
	 H          -6.2611610292        3.2666904511        5.8427211076
	             0.0078896054       -0.0009390613       -0.0080914643
	             0.0059331673       -0.0061924969       -0.0041601963
	             0.0023911195       -0.0010985755        0.0014980035
	            -0.0057435494        0.0026770101        0.0068951464
	            -0.0049072606        0.0067038969        0.0032286806
	            -0.0082859347       -0.0009996944        0.0035856332
	            -0.0031283069        0.0100894270        0.0084845719
	            -0.0127705626       -0.0003709182        0.0028263458
	             0.0060329377       -0.0033815372       -0.0042675989
	             0.0010676635        0.0003180987       -0.0000784405
	            -0.0075279793        0.0043447374       -0.0077448300
	             0.0124745859       -0.0071924626       -0.0084333077
	             0.0058891013       -0.0032312230        0.0003847091
	            -0.0016935944        0.0005905090       -0.0056616555
	             0.0032386680       -0.0015003804        0.0049672273
	            -0.0028778205        0.0013995159       -0.0051506421
	             0.0009743375       -0.0002744805        0.0036750654
	             0.0033093722        0.0031259071        0.0030177011
	            -0.0033571325       -0.0027872694       -0.0026634801
	             0.0024954776        0.0001394887        0.0002437634
	             0.0002489844       -0.0020211764       -0.0022756750
	            -0.0016528795        0.0006006853        0.0097204427

	Previous optimization step data not found.  Starting new optimization.

	---Fragment 1 Intrafragment Coordinates---
	 - Coordinate -           - BOHR/RAD -       - ANG/DEG -
	 R(1,3)           =         2.634350	       1.394038
	 R(1,9)           =         2.635962	       1.394891
	 R(1,14)          =         2.054947	       1.087431
	 R(2,4)           =         2.635263	       1.394521
	 R(2,9)           =         2.635830	       1.394821
	 R(2,15)          =         2.055702	       1.087831
	 R(3,11)          =         2.635830	       1.394821
	 R(3,16)          =         2.053941	       1.086899
	 R(4,11)          =         2.636938	       1.395407
	 R(4,17)          =         2.053239	       1.086527
	 R(5,7)           =         2.619248	       1.386046
	 R(5,10)          =         2.625894	       1.389563
	 R(5,18)          =         2.051840	       1.085787
	 R(6,8)           =         2.618812	       1.385816
	 R(6,10)          =         2.628215	       1.390792
	 R(6,19)          =         2.050780	       1.085226
	 R(7,12)          =         2.554806	       1.351945
	 R(7,20)          =         2.049499	       1.084548
	 R(8,12)          =         2.553331	       1.351165
	 R(8,21)          =         2.051242	       1.085470
	 R(9,10)          =         2.733384	       1.446444
	 R(11,13)         =         2.571662	       1.360865
	 R(13,22)         =         1.833410	       0.970199
	 B(1,3,11)        =         2.094553	     120.009056
	 B(1,3,16)        =         2.088505	     119.662516
	 B(1,9,2)         =         2.093692	     119.959722
	 B(1,9,10)        =         2.095161	     120.043881
	 B(2,4,11)        =         2.093699	     119.960108
	 B(2,4,17)        =         2.089577	     119.723926
	 B(2,9,10)        =         2.094332	     119.996376
	 B(3,1,9)         =         2.094940	     120.031219
	 B(3,1,14)        =         2.079469	     119.144799
	 B(3,11,4)        =         2.094306	     119.994870
	 B(3,11,13)       =         2.094549	     120.008801
	 B(4,2,9)         =         2.095181	     120.045019
	 B(4,2,15)        =         2.078675	     119.099297
	 B(4,11,13)       =         2.094331	     119.996326
	 B(5,7,12)        =         2.163902	     123.982431
	 B(5,7,20)        =         2.107636	     120.758642
	 B(5,10,6)        =         2.090101	     119.753981
	 B(5,10,9)        =         2.097552	     120.180880
	 B(6,8,12)        =         2.165844	     124.093719
	 B(6,8,21)        =         2.107014	     120.722982
	 B(6,10,9)        =         2.095532	     120.065132
	 B(7,5,10)        =         2.058572	     117.947464
	 B(7,5,18)        =         2.097633	     120.185544
	 B(7,12,8)        =         2.031214	     116.379993
	 B(8,6,10)        =         2.056737	     117.842366
	 B(8,6,19)        =         2.099918	     120.316462
	 B(9,1,14)        =         2.108776	     120.823969
	 B(9,2,15)        =         2.109330	     120.855683
	 B(10,5,18)       =         2.126979	     121.866923
	 B(10,6,19)       =         2.126529	     121.841158
	 B(11,3,16)       =         2.100127	     120.328425
	 B(11,4,17)       =         2.099910	     120.315955
	 B(11,13,22)      =         1.925489	     110.322421
	 B(12,7,20)       =         2.011647	     115.258884
	 B(12,8,21)       =         2.010326	     115.183211
	 D(1,3,11,4)      =        -0.000325	      -0.018609
	 D(1,3,11,13)     =         3.140978	     179.964785
	 D(1,9,2,4)       =         0.000325	       0.018608
	 D(1,9,2,15)      =        -3.141497	    -179.994534
	 D(1,9,10,5)      =         2.093634	     119.956414
	 D(1,9,10,6)      =        -1.048497	     -60.074425
	 D(2,4,11,3)      =         0.000301	       0.017261
	 D(2,4,11,13)     =        -3.141002	    -179.966135
	 D(2,9,1,3)       =        -0.000348	      -0.019945
	 D(2,9,1,14)      =        -3.141221	    -179.978731
	 D(2,9,10,5)      =        -1.047042	     -59.991083
	 D(2,9,10,6)      =         2.094013	     119.978079
	 D(3,1,9,10)      =        -3.141025	    -179.967461
	 D(3,11,4,17)     =         3.141223	     179.978848
	 D(3,11,13,22)    =         3.140828	     179.956172
	 D(4,2,9,10)      =         3.141002	     179.966149
	 D(4,11,3,16)     =         3.141593	     180.000000
	 D(4,11,13,22)    =        -0.001055	      -0.060434
	 D(5,7,12,8)      =        -0.000864	      -0.049482
	 D(5,10,6,8)      =         0.001023	       0.058640
	 D(5,10,6,19)     =        -3.141295	    -179.982929
	 D(6,8,12,7)      =         0.001006	       0.057622
	 D(6,10,5,7)      =        -0.000898	      -0.051467
	 D(6,10,5,18)     =        -3.140814	    -179.955368
	 D(7,5,10,9)      =         3.140158	     179.917791
	 D(7,12,8,21)     =         3.140721	     179.950059
	 D(8,6,10,9)      =        -3.140033	    -179.910653
	 D(8,12,7,20)     =         3.139409	     179.874894
	 D(9,1,3,11)      =         0.000348	       0.019955
	 D(9,1,3,16)      =        -3.141571	    -179.998735
	 D(9,2,4,11)      =        -0.000301	      -0.017270
	 D(9,2,4,17)      =        -3.141228	    -179.979086
	 D(9,10,5,18)     =         0.000242	       0.013890
	 D(9,10,6,19)     =         0.000834	       0.047777
	 D(10,5,7,12)     =         0.000839	       0.048096
	 D(10,5,7,20)     =        -3.139364	    -179.872315
	 D(10,6,8,12)     =        -0.001112	      -0.063703
	 D(10,6,8,21)     =        -3.140728	    -179.950471
	 D(10,9,1,14)     =         0.001287	       0.073752
	 D(10,9,2,15)     =        -0.000820	      -0.046992
	 D(11,3,1,14)     =         3.141234	     179.979432
	 D(11,4,2,15)     =         3.141517	     179.995641
	 D(12,7,5,18)     =         3.140784	     179.953678
	 D(12,8,6,19)     =         3.141195	     179.977205
	 D(13,11,3,16)    =        -0.000286	      -0.016400
	 D(13,11,4,17)    =        -0.000079	      -0.004548
	 D(14,1,3,16)     =        -0.000685	      -0.039257
	 D(15,2,4,17)     =         0.000590	       0.033826
	 D(18,5,7,20)     =         0.000581	       0.033267
	 D(19,6,8,21)     =         0.001578	       0.090437

	Current energy   :      -553.7206929859

	Generating empirical Hessian (Schlegel '84) for each fragment.
	Adding user-defined constraint: Fragment 1; Coordinate 63:
		Value =     2.093634; Fixed value    =     2.094395
		Force =     0.000380; Force constant =     0.500000
	Removing off-diagonal coupling between coordinate 63 and others.
	Taking RFO optimization step.
	Going to follow RFO solution 1.
	Using RFO vector 1.

	Determining step-restricting scale parameter for RS-RFO.
	Maximum step size allowed    0.10000

	 Iter      |step|        alpha        rfo_root  
	------------------------------------------------
	    0     0.18658       1.00000           1
	    1     0.14640       4.61756           1
	    2     0.12093      13.01875           1
	    3     0.10553      24.16774           1
	    4     0.10050      29.43915           1
	    5     0.10000      30.02024           1
	------------------------------------------------
	Norm of target step-size    0.10000
	Projected energy change by RFO approximation:        -0.0044267172

	Back-transformation to cartesian coordinates...
	Could not converge backtransformation.
	Using first guess instead.

	--- Internal Coordinate Step in ANG or DEG, aJ/ANG or AJ/DEG ---
	 ---------------------------------------------------------------------------
	   Coordinate                Previous        Force       Change         New 
	   ----------                --------       ------       ------       ------
	    1 R(1,3)          =      1.394038    -0.052096    -0.005676     1.388362
	    2 R(1,9)          =      1.394891    -0.020258    -0.002037     1.392854
	    3 R(1,14)         =      1.087431    -0.046490    -0.006237     1.081194
	    4 R(2,4)          =      1.394521    -0.054223    -0.005830     1.388691
	    5 R(2,9)          =      1.394821    -0.032058    -0.003335     1.391486
	    6 R(2,15)         =      1.087831    -0.046518    -0.006231     1.081600
	    7 R(3,11)         =      1.394821    -0.081213    -0.008902     1.385919
	    8 R(3,16)         =      1.086899    -0.044577    -0.005932     1.080967
	    9 R(4,11)         =      1.395407    -0.034822    -0.003826     1.391582
	   10 R(4,17)         =      1.086527    -0.030095    -0.004027     1.082500
	   11 R(5,7)          =      1.386046     0.003659     0.000382     1.386428
	   12 R(5,10)         =      1.389563    -0.008195    -0.000361     1.389202
	   13 R(5,18)         =      1.085787    -0.040207    -0.005370     1.080417
	   14 R(6,8)          =      1.385816     0.004920     0.000523     1.386339
	   15 R(6,10)         =      1.390792    -0.014658    -0.001047     1.389744
	   16 R(6,19)         =      1.085226    -0.037582    -0.005015     1.080211
	   17 R(7,12)         =      1.351945    -0.119843    -0.011715     1.340230
	   18 R(7,20)         =      1.084548    -0.020016    -0.002665     1.081883
	   19 R(8,12)         =      1.351165    -0.114798    -0.011223     1.339942
	   20 R(8,21)         =      1.085470    -0.024517    -0.003260     1.082211
	   21 R(9,10)         =      1.446444     0.137173     0.017126     1.463571
	   22 R(11,13)        =      1.360865    -0.004295     0.000130     1.360995
	   23 R(13,22)        =      0.970199    -0.077093    -0.007455     0.962744
	   24 B(1,3,11)       =    120.009056    -0.000046    -0.144360   119.864696
	   25 B(1,3,16)       =    119.662516     0.000235     0.631897   120.294413
	   26 B(1,9,2)        =    119.959722    -0.000522    -1.032042   118.927680
	   27 B(1,9,10)       =    120.043881     0.000273     0.541352   120.585234
	   28 B(2,4,11)       =    119.960108     0.000098     0.193257   120.153365
	   29 B(2,4,17)       =    119.723926     0.000032     0.116219   119.840145
	   30 B(2,9,10)       =    119.996376     0.000249     0.490256   120.486632
	   31 B(3,1,9)        =    120.031219     0.000378     0.804743   120.835962
	   32 B(3,1,14)       =    119.144799    -0.000049    -0.034190   119.110610
	   33 B(3,11,4)       =    119.994870    -0.000081    -0.205208   119.789663
	   34 B(3,11,13)      =    120.008801    -0.000840    -1.654340   118.354461
	   35 B(4,2,9)        =    120.045019     0.000172     0.383468   120.428487
	   36 B(4,2,15)       =    119.099297     0.000095     0.285453   119.384750
	   37 B(4,11,13)      =    119.996326     0.000921     1.859540   121.855866
	   38 B(5,7,12)       =    123.982431     0.000001    -0.076441   123.905990
	   39 B(5,7,20)       =    120.758642    -0.000041    -0.067279   120.691362
	   40 B(5,10,6)       =    119.753981    -0.000919    -1.722691   118.031291
	   41 B(5,10,9)       =    120.180880     0.000451     0.844443   121.025322
	   42 B(6,8,12)       =    124.093719    -0.000025    -0.131870   123.961849
	   43 B(6,8,21)       =    120.722982    -0.000034    -0.056707   120.666275
	   44 B(6,10,9)       =    120.065132     0.000468     0.878014   120.943146
	   45 B(7,5,10)       =    117.947464     0.000396     0.912566   118.860030
	   46 B(7,5,18)       =    120.185544    -0.000012     0.032370   120.217913
	   47 B(7,12,8)       =    116.379993     0.000128     0.055891   116.435884
	   48 B(8,6,10)       =    117.842366     0.000418     0.962439   118.804805
	   49 B(8,6,19)       =    120.316462    -0.000034    -0.021467   120.294995
	   50 B(9,1,14)       =    120.823969    -0.000329    -0.770592   120.053377
	   51 B(9,2,15)       =    120.855683    -0.000267    -0.669105   120.186577
	   52 B(10,5,18)      =    121.866923    -0.000385    -0.944870   120.922053
	   53 B(10,6,19)      =    121.841158    -0.000384    -0.941129   120.900030
	   54 B(11,3,16)      =    120.328425    -0.000190    -0.487568   119.840857
	   55 B(11,4,17)      =    120.315955    -0.000130    -0.309466   120.006489
	   56 B(11,13,22)     =    110.322421    -0.000442    -1.152952   109.169468
	   57 B(12,7,20)      =    115.258884     0.000040     0.143719   115.402603
	   58 B(12,8,21)      =    115.183211     0.000059     0.188664   115.371875
	   59 D(1,3,11,4)     =     -0.018609     0.000002     0.051407     0.032798
	   60 D(1,3,11,13)    =    179.964785     0.000002     0.032181   179.996966
	   61 D(1,9,2,4)      =      0.018608     0.000003     0.127330     0.145938
	   62 D(1,9,2,15)     =   -179.994534    -0.000003    -0.017092  -180.011626
	   63 D(1,9,10,5)     =    119.956414     0.000022     0.218860   120.175274
	   64 D(1,9,10,6)     =    -60.074425     0.000026     0.431843   -59.642581
	   65 D(2,4,11,3)     =      0.017261     0.000001     0.015104     0.032365
	   66 D(2,4,11,13)    =   -179.966135     0.000001     0.035625  -179.930510
	   67 D(2,9,1,3)      =     -0.019945    -0.000000    -0.060761    -0.080706
	   68 D(2,9,1,14)     =   -179.978731    -0.000006    -0.185126  -180.163857
	   69 D(2,9,10,5)     =    -59.991083     0.000025     0.414123   -59.576959
	   70 D(2,9,10,6)     =    119.978079     0.000030     0.627107   120.605185
	   71 D(3,1,9,10)     =   -179.967461     0.000003     0.130705  -179.836756
	   72 D(3,11,4,17)    =    179.978848     0.000003     0.045424   180.024273
	   73 D(3,11,13,22)   =    179.956172    -0.000000     0.006472   179.962644
	   74 D(4,2,9,10)     =    179.966149    -0.000000    -0.063913   179.902236
	   75 D(4,11,3,16)    =    180.000000     0.000004     0.099167   180.099167
	   76 D(4,11,13,22)   =     -0.060434    -0.000000    -0.013533    -0.073967
	   77 D(5,7,12,8)     =     -0.049482     0.000000     0.018073    -0.031409
	   78 D(5,10,6,8)     =      0.058640     0.000001     0.069052     0.127692
	   79 D(5,10,6,19)    =   -179.982929    -0.000004    -0.039092  -180.022021
	   80 D(6,8,12,7)     =      0.057622    -0.000002    -0.043069     0.014553
	   81 D(6,10,5,7)     =     -0.051467    -0.000002    -0.091580    -0.143047
	   82 D(6,10,5,18)    =   -179.955368    -0.000008    -0.209347  -180.164715
	   83 D(7,5,10,9)     =    179.917791     0.000002     0.116145   180.033936
	   84 D(7,12,8,21)    =    179.950059     0.000004     0.079195   180.029254
	   85 D(8,6,10,9)     =   -179.910653    -0.000003    -0.138486  -180.049138
	   86 D(8,12,7,20)    =    179.874894     0.000007     0.170017   180.044911
	   87 D(9,1,3,11)     =      0.019955    -0.000002    -0.028130    -0.008176
	   88 D(9,1,3,16)     =   -179.998735    -0.000004    -0.076115  -180.074849
	   89 D(9,2,4,11)     =     -0.017270    -0.000004    -0.105784    -0.123054
	   90 D(9,2,4,17)     =   -179.979086    -0.000005    -0.135889  -180.114974
	   91 D(9,10,5,18)    =      0.013890    -0.000003    -0.001622     0.012268
	   92 D(9,10,6,19)    =      0.047777    -0.000008    -0.246629    -0.198852
	   93 D(10,5,7,12)    =      0.048096     0.000001     0.050314     0.098410
	   94 D(10,5,7,20)    =   -179.872315    -0.000005    -0.109446  -179.981761
	   95 D(10,6,8,12)    =     -0.063703     0.000001    -0.001588    -0.065291
	   96 D(10,6,8,21)    =   -179.950471    -0.000005    -0.130262  -180.080733
	   97 D(10,9,1,14)    =      0.073752    -0.000003     0.006340     0.080093
	   98 D(10,9,2,15)    =     -0.046992    -0.000006    -0.208335    -0.255328
	   99 D(11,3,1,14)    =    179.979432     0.000004     0.094770   180.074203
	  100 D(11,4,2,15)    =    179.995641     0.000002     0.037612   180.033253
	  101 D(12,7,5,18)    =    179.953678     0.000007     0.166243   180.119921
	  102 D(12,8,6,19)    =    179.977205     0.000005     0.106285   180.083490
	  103 D(13,11,3,16)   =     -0.016400     0.000004     0.079735     0.063335
	  104 D(13,11,4,17)   =     -0.004548     0.000003     0.065945     0.061397
	  105 D(14,1,3,16)    =     -0.039257     0.000002     0.046786     0.007529
	  106 D(15,2,4,17)    =      0.033826     0.000001     0.007506     0.041332
	  107 D(18,5,7,20)    =      0.033267     0.000000     0.006483     0.039750
	  108 D(19,6,8,21)    =      0.090437    -0.000001    -0.022388     0.068048
	 ---------------------------------------------------------------------------
	Successfully symmetrized geometry.
	 Forces used to impose fixed constraints are not included.
	  Forces zeroed: 63 

  ==> Convergence Check <==

  Measures of convergence in internal coordinates in au.
  Criteria marked as inactive (o), active & met (*), and active & unmet ( ).
  --------------------------------------------------------------------------------------------- ~
   Step     Total Energy     Delta E     MAX Force     RMS Force      MAX Disp      RMS Disp    ~
  --------------------------------------------------------------------------------------------- ~
    Convergence Criteria    1.00e-06 *    3.00e-04 *             o    1.20e-03 *             o  ~
  --------------------------------------------------------------------------------------------- ~
      1    -553.72069299   -5.54e+02      1.66e-02      4.26e-03 o    3.25e-02      9.62e-03 o  ~
  ---------------------------------------------------------------------------------------------

	Writing optimization data to binary file.
	Structure for next step:
	Cartesian Geometry (in Angstrom)
	    C    -1.2678040302   0.7109066013  -0.5633668763
	    C    -0.2717591476   0.1037384003   1.5319831182
	    C    -2.3416744417   1.2840053068   0.1043982388
	    C    -1.3446228929   0.6746003183   2.2039520558
	    C     2.2029924082  -0.0280108355  -0.3637884967
	    C     0.7148263306  -1.5243164930  -1.4693757639
	    C     3.2409690140  -0.6278886730  -1.0601605767
	    C     1.8177011550  -2.0585386591  -2.1176113958
	    C    -0.2243683822   0.1153774090   0.1413533943
	    C     0.9067633446  -0.4840059357  -0.5680968134
	    C    -2.3819157700   1.2664227504   1.4896209644
	    N     3.0743565456  -1.6322400824  -1.9317884961
	    O    -3.4489518160   1.8371116597   2.1125619541
	    H    -1.2482768066   0.7325696221  -1.6441670693
	    H     0.5274548080  -0.3533771907   2.0995755150
	    H    -3.1462048772   1.7449264579  -0.4512748165
	    H    -1.3726588578   0.6585417092   3.2859702723
	    H     2.4053005649   0.7800287537   0.3242841981
	    H    -0.2733881581  -1.9150787747  -1.6632654977
	    H     4.2617411705  -0.2964812401  -0.9235417723
	    H     1.7030509757  -2.8700715938  -2.8243290965
	    H    -3.3423328883   1.7502594431   3.0654335786
			--------------------------
			 OPTKING Finished Execution 
			--------------------------

    Structure for next step:
    Molecular point group: c1
    Full point group: C1

    Geometry (in Angstrom), charge = 0, multiplicity = 1:

    C           -1.267856241948     0.711206627408    -0.563160980955
    C           -0.271811359391     0.104038426459     1.532189013493
    C           -2.341726653456     1.284305332962     0.104604134124
    C           -1.344675104714     0.674900344430     2.204157951092
    C            2.202940196439    -0.027710809369    -0.363582601395
    C            0.714774118802    -1.524016466901    -1.469169868600
    C            3.240916802195    -0.627588646815    -1.059954681334
    C            1.817648943232    -2.058238632985    -2.117405500426
    C           -0.224420594029     0.115677435153     0.141559289634
    C            0.906711132777    -0.483705909578    -0.567890918063
    C           -2.381967981808     1.266722776510     1.489826859781
    N            3.074304333815    -1.631940056247    -1.931582600742
    O           -3.449004027768     1.837411685833     2.112767849451
    H           -1.248329018401     0.732869648251    -1.643961173926
    H            0.527402596190    -0.353077164569     2.099781410346
    H           -3.146257088936     1.745226484060    -0.451068921122
    H           -1.372711069556     0.658841735357     3.286176167631
    H            2.405248353142     0.780328779799     0.324490093426
    H           -0.273440369933    -1.914778748514    -1.663059602325
    H            4.261688958725    -0.296181213919    -0.923335876927
    H            1.702998763909    -2.869771567670    -2.824123201149
    H           -3.342385100125     1.750559469213     3.065639473955

gradient() will perform analytic gradient computation.

*** tstart() called on gpu-1-4.local
*** at Sun Nov 12 11:36:39 2017

    SCF Algorithm Type (re)set to DF.

*** tstart() called on gpu-1-4.local
*** at Sun Nov 12 11:36:39 2017

   => Loading Basis Set <=

    Name: AUG-CC-PVTZ
    Role: ORBITAL
    Keyword: BASIS
    atoms 1-11  entry C          line   221 file /cbio/jclab/home/chayas/anaconda/envs/py35/share/psi4/basis/aug-cc-pvtz.gbs 
    atoms 12    entry N          line   267 file /cbio/jclab/home/chayas/anaconda/envs/py35/share/psi4/basis/aug-cc-pvtz.gbs 
    atoms 13    entry O          line   313 file /cbio/jclab/home/chayas/anaconda/envs/py35/share/psi4/basis/aug-cc-pvtz.gbs 
    atoms 14-22 entry H          line    34 file /cbio/jclab/home/chayas/anaconda/envs/py35/share/psi4/basis/aug-cc-pvtz.gbs 


         ---------------------------------------------------------
                                   SCF
            by Justin Turney, Rob Parrish, and Andy Simmonett
                              RHF Reference
                        8 Threads,   4768 MiB Core
         ---------------------------------------------------------

  ==> Geometry <==

    Molecular point group: c1
    Full point group: C1

    Geometry (in Angstrom), charge = 0, multiplicity = 1:

       Center              X                  Y                   Z               Mass       
    ------------   -----------------  -----------------  -----------------  -----------------
           C         -1.267856241948     0.711206627408    -0.563160980955    12.000000000000
           C         -0.271811359391     0.104038426459     1.532189013493    12.000000000000
           C         -2.341726653456     1.284305332962     0.104604134124    12.000000000000
           C         -1.344675104714     0.674900344430     2.204157951092    12.000000000000
           C          2.202940196439    -0.027710809369    -0.363582601395    12.000000000000
           C          0.714774118802    -1.524016466901    -1.469169868600    12.000000000000
           C          3.240916802195    -0.627588646815    -1.059954681334    12.000000000000
           C          1.817648943232    -2.058238632985    -2.117405500426    12.000000000000
           C         -0.224420594029     0.115677435153     0.141559289634    12.000000000000
           C          0.906711132777    -0.483705909578    -0.567890918063    12.000000000000
           C         -2.381967981808     1.266722776510     1.489826859781    12.000000000000
           N          3.074304333815    -1.631940056247    -1.931582600742    14.003074004780
           O         -3.449004027768     1.837411685833     2.112767849451    15.994914619560
           H         -1.248329018401     0.732869648251    -1.643961173926     1.007825032070
           H          0.527402596190    -0.353077164569     2.099781410346     1.007825032070
           H         -3.146257088936     1.745226484060    -0.451068921122     1.007825032070
           H         -1.372711069556     0.658841735357     3.286176167631     1.007825032070
           H          2.405248353142     0.780328779799     0.324490093426     1.007825032070
           H         -0.273440369933    -1.914778748514    -1.663059602325     1.007825032070
           H          4.261688958725    -0.296181213919    -0.923335876927     1.007825032070
           H          1.702998763909    -2.869771567670    -2.824123201149     1.007825032070
           H         -3.342385100125     1.750559469213     3.065639473955     1.007825032070

  Running in c1 symmetry.

  Rotational constants: A =      0.09841  B =      0.01307  C =      0.01225 [cm^-1]
  Rotational constants: A =   2950.18845  B =    391.92590  C =    367.22863 [MHz]
  Nuclear repulsion =  697.444856701878280

  Charge       = 0
  Multiplicity = 1
  Electrons    = 90
  Nalpha       = 45
  Nbeta        = 45

  ==> Algorithm <==

  SCF Algorithm Type is DF.
  DIIS enabled.
  MOM disabled.
  Fractional occupation disabled.
  Guess Type is READ.
  Energy threshold   = 1.00e-10
  Density threshold  = 1.00e-10
  Integral threshold = 0.00e+00

  ==> Primary Basis <==

  Basis Set: AUG-CC-PVTZ
    Blend: AUG-CC-PVTZ
    Number of shells: 263
    Number of basis function: 805
    Number of Cartesian functions: 940
    Spherical Harmonics?: true
    Max angular momentum: 3

   => Loading Basis Set <=

    Name: (AUG-CC-PVTZ AUX)
    Role: JKFIT
    Keyword: DF_BASIS_SCF
    atoms 1-11  entry C          line   161 file /cbio/jclab/home/chayas/anaconda/envs/py35/share/psi4/basis/aug-cc-pvtz-jkfit.gbs 
    atoms 12    entry N          line   223 file /cbio/jclab/home/chayas/anaconda/envs/py35/share/psi4/basis/aug-cc-pvtz-jkfit.gbs 
    atoms 13    entry O          line   285 file /cbio/jclab/home/chayas/anaconda/envs/py35/share/psi4/basis/aug-cc-pvtz-jkfit.gbs 
    atoms 14-22 entry H          line    69 file /cbio/jclab/home/chayas/anaconda/envs/py35/share/psi4/basis/aug-cc-pvtz-jkfit.gbs 

  Reading orbitals from file 180, no projection.

  ==> Pre-Iterations <==

   -------------------------------------------------------
    Irrep   Nso     Nmo     Nalpha   Nbeta   Ndocc  Nsocc
   -------------------------------------------------------
     A        805     805       0       0       0       0
   -------------------------------------------------------
    Total     805     805      45      45      45       0
   -------------------------------------------------------

  ==> Integral Setup <==

  ==> DFJK: Density-Fitted J/K Matrices <==

    J tasked:                  Yes
    K tasked:                  Yes
    wK tasked:                  No
    OpenMP threads:              8
    Integrals threads:           8
    Memory (MB):              3576
    Algorithm:                Disk
    Integral Cache:           NONE
    Schwarz Cutoff:          1E-12
    Fitting Condition:       1E-12

   => Auxiliary Basis Set <=

  Basis Set: (AUG-CC-PVTZ AUX)
    Blend: AUG-CC-PVTZ-JKFIT
    Number of shells: 516
    Number of basis function: 1766
    Number of Cartesian functions: 2198
    Spherical Harmonics?: true
    Max angular momentum: 4

  Minimum eigenvalue in the overlap matrix is 5.6852916389E-07.
  Using Symmetric Orthogonalization.

  SCF Guess: Orbitals guess was supplied from a previous computation.

  ==> Iterations <==

                           Total Energy        Delta E     RMS |[F,P]|

   @DF-RHF iter   0:  -551.39288443511271   -5.51393e+02   4.35168e-04 
   @DF-RHF iter   1:  -551.29059585194364    1.02289e-01   1.05893e-04 
   @DF-RHF iter   2:  -551.29110858698550   -5.12735e-04   7.97342e-05 DIIS
   @DF-RHF iter   3:  -551.29147813946872   -3.69552e-04   1.16689e-05 DIIS
   @DF-RHF iter   4:  -551.29148731997748   -9.18051e-06   4.15339e-06 DIIS
   @DF-RHF iter   5:  -551.29148937516607   -2.05519e-06   1.28944e-06 DIIS
   @DF-RHF iter   6:  -551.29148968592767   -3.10762e-07   7.78169e-07 DIIS
   @DF-RHF iter   7:  -551.29148980005630   -1.14129e-07   3.23492e-07 DIIS
   @DF-RHF iter   8:  -551.29148983566631   -3.56100e-08   1.25893e-07 DIIS
   @DF-RHF iter   9:  -551.29148983996345   -4.29714e-09   4.47023e-08 DIIS
   @DF-RHF iter  10:  -551.29148984034612   -3.82670e-10   1.49636e-08 DIIS
   @DF-RHF iter  11:  -551.29148984038727   -4.11546e-11   5.24180e-09 DIIS
   @DF-RHF iter  12:  -551.29148984040421   -1.69393e-11   2.30575e-09 DIIS
   @DF-RHF iter  13:  -551.29148984038386    2.03499e-11   1.13474e-09 DIIS
   @DF-RHF iter  14:  -551.29148984039318   -9.32232e-12   5.01150e-10 DIIS
   @DF-RHF iter  15:  -551.29148984038966    3.52429e-12   2.08916e-10 DIIS
   @DF-RHF iter  16:  -551.29148984039239   -2.72848e-12   7.93191e-11 DIIS

  ==> Post-Iterations <==

    Orbital Energies (a.u.)
    -----------------------

    Doubly Occupied:                                                      

       1A    -20.599731     2A    -15.562210     3A    -11.311514  
       4A    -11.272417     5A    -11.272292     6A    -11.263159  
       7A    -11.251781     8A    -11.249888     9A    -11.244309  
      10A    -11.243211    11A    -11.237312    12A    -11.236250  
      13A    -11.236128    14A     -1.417318    15A     -1.255834  
      16A     -1.173567    17A     -1.104739    18A     -1.036210  
      19A     -1.031015    20A     -1.012020    21A     -0.879868  
      22A     -0.866243    23A     -0.849179    24A     -0.811508  
      25A     -0.746804    26A     -0.725082    27A     -0.681452  
      28A     -0.662197    29A     -0.657711    30A     -0.636632  
      31A     -0.616235    32A     -0.602173    33A     -0.601868  
      34A     -0.596053    35A     -0.580371    36A     -0.540324  
      37A     -0.528741    38A     -0.522583    39A     -0.505626  
      40A     -0.491495    41A     -0.417953    42A     -0.385586  
      43A     -0.355544    44A     -0.347257    45A     -0.317560  

    Virtual:                                                              

      46A      0.022082    47A      0.030961    48A      0.032467  
      49A      0.037282    50A      0.042298    51A      0.047599  
      52A      0.051168    53A      0.054252    54A      0.062049  
      55A      0.082696    56A      0.084007    57A      0.087667  
      58A      0.091820    59A      0.096153    60A      0.098945  
      61A      0.100320    62A      0.104880    63A      0.108676  
      64A      0.109700    65A      0.110755    66A      0.113302  
      67A      0.118093    68A      0.119372    69A      0.124039  
      70A      0.127919    71A      0.128738    72A      0.132774  
      73A      0.133427    74A      0.142180    75A      0.142986  
      76A      0.147499    77A      0.150747    78A      0.151979  
      79A      0.155579    80A      0.156759    81A      0.161928  
      82A      0.168066    83A      0.173991    84A      0.174334  
      85A      0.184577    86A      0.188725    87A      0.201029  
      88A      0.203872    89A      0.209478    90A      0.218021  
      91A      0.222106    92A      0.226830    93A      0.234471  
      94A      0.236826    95A      0.239659    96A      0.242639  
      97A      0.246407    98A      0.248607    99A      0.253882  
     100A      0.255979   101A      0.260589   102A      0.261594  
     103A      0.267668   104A      0.269050   105A      0.274948  
     106A      0.277078   107A      0.282440   108A      0.286015  
     109A      0.288449   110A      0.295355   111A      0.300854  
     112A      0.302540   113A      0.308883   114A      0.311604  
     115A      0.316636   116A      0.319953   117A      0.320834  
     118A      0.324706   119A      0.329009   120A      0.331986  
     121A      0.332277   122A      0.344306   123A      0.350331  
     124A      0.353759   125A      0.359310   126A      0.362267  
     127A      0.368693   128A      0.373069   129A      0.379039  
     130A      0.393359   131A      0.393545   132A      0.402396  
     133A      0.405397   134A      0.408293   135A      0.410995  
     136A      0.415042   137A      0.417875   138A      0.418369  
     139A      0.429210   140A      0.434630   141A      0.438685  
     142A      0.441085   143A      0.444435   144A      0.445368  
     145A      0.449224   146A      0.451617   147A      0.458773  
     148A      0.460889   149A      0.462370   150A      0.473677  
     151A      0.475783   152A      0.478974   153A      0.479815  
     154A      0.483685   155A      0.485774   156A      0.487058  
     157A      0.494092   158A      0.495489   159A      0.498582  
     160A      0.505675   161A      0.510100   162A      0.512256  
     163A      0.514360   164A      0.515528   165A      0.517463  
     166A      0.523352   167A      0.525902   168A      0.532951  
     169A      0.537114   170A      0.541009   171A      0.547449  
     172A      0.548391   173A      0.549233   174A      0.551904  
     175A      0.556266   176A      0.562854   177A      0.566536  
     178A      0.577390   179A      0.583335   180A      0.584335  
     181A      0.591705   182A      0.600347   183A      0.600818  
     184A      0.609638   185A      0.620519   186A      0.623784  
     187A      0.629282   188A      0.631251   189A      0.636773  
     190A      0.641839   191A      0.649030   192A      0.660030  
     193A      0.664978   194A      0.669863   195A      0.680659  
     196A      0.688843   197A      0.693672   198A      0.702900  
     199A      0.703689   200A      0.707703   201A      0.710123  
     202A      0.714169   203A      0.724977   204A      0.725776  
     205A      0.731086   206A      0.737980   207A      0.740395  
     208A      0.742840   209A      0.744717   210A      0.753065  
     211A      0.766661   212A      0.771406   213A      0.777784  
     214A      0.782914   215A      0.793782   216A      0.798965  
     217A      0.802376   218A      0.806045   219A      0.811782  
     220A      0.815906   221A      0.823575   222A      0.833393  
     223A      0.834141   224A      0.839105   225A      0.846294  
     226A      0.853874   227A      0.857587   228A      0.859593  
     229A      0.867969   230A      0.873766   231A      0.880283  
     232A      0.883372   233A      0.886523   234A      0.888187  
     235A      0.894165   236A      0.897250   237A      0.904959  
     238A      0.913817   239A      0.917767   240A      0.922529  
     241A      0.923592   242A      0.931195   243A      0.936544  
     244A      0.938478   245A      0.940853   246A      0.944988  
     247A      0.954683   248A      0.956453   249A      0.958660  
     250A      0.963330   251A      0.964967   252A      0.969078  
     253A      0.977086   254A      0.980778   255A      0.988122  
     256A      0.989415   257A      0.993671   258A      0.996895  
     259A      1.003232   260A      1.009459   261A      1.017238  
     262A      1.018443   263A      1.022781   264A      1.032336  
     265A      1.034400   266A      1.038301   267A      1.043577  
     268A      1.049225   269A      1.053247   270A      1.054003  
     271A      1.058094   272A      1.062107   273A      1.065461  
     274A      1.069020   275A      1.084292   276A      1.087271  
     277A      1.089198   278A      1.093510   279A      1.098365  
     280A      1.101489   281A      1.106064   282A      1.110806  
     283A      1.113073   284A      1.121314   285A      1.126252  
     286A      1.131848   287A      1.133753   288A      1.145458  
     289A      1.147672   290A      1.150822   291A      1.152897  
     292A      1.164975   293A      1.166449   294A      1.172581  
     295A      1.177936   296A      1.179666   297A      1.183146  
     298A      1.186546   299A      1.191998   300A      1.202699  
     301A      1.205241   302A      1.207423   303A      1.216217  
     304A      1.221936   305A      1.224607   306A      1.229470  
     307A      1.237291   308A      1.244658   309A      1.248181  
     310A      1.260722   311A      1.266030   312A      1.269074  
     313A      1.273530   314A      1.276264   315A      1.283192  
     316A      1.290122   317A      1.294744   318A      1.301575  
     319A      1.308163   320A      1.314866   321A      1.318703  
     322A      1.322637   323A      1.330386   324A      1.347865  
     325A      1.350180   326A      1.358919   327A      1.362107  
     328A      1.374710   329A      1.380369   330A      1.386514  
     331A      1.393024   332A      1.399031   333A      1.403438  
     334A      1.412412   335A      1.413508   336A      1.425006  
     337A      1.430756   338A      1.442198   339A      1.455388  
     340A      1.461559   341A      1.463073   342A      1.480815  
     343A      1.486619   344A      1.488296   345A      1.497630  
     346A      1.507660   347A      1.510889   348A      1.521141  
[...]
	 R(11,13)         =         2.574547	       1.362391
	 R(13,22)         =         1.817737	       0.961905
	 B(1,3,11)        =         2.091693	     119.845186
	 B(1,3,16)        =         2.115432	     121.205320
	 B(1,9,2)         =         2.068303	     118.505024
	 B(1,9,10)        =         2.104854	     120.599259
	 B(2,4,11)        =         2.093508	     119.949147
	 B(2,4,17)        =         2.095439	     120.059789
	 B(2,9,10)        =         2.108365	     120.800414
	 B(3,1,9)         =         2.111990	     121.008087
	 B(3,1,14)        =         2.087681	     119.615334
	 B(3,11,4)        =         2.091733	     119.847446
	 B(3,11,13)       =         2.046052	     117.230116
	 B(4,2,9)         =         2.108892	     120.830612
	 B(4,2,15)        =         2.088142	     119.641734
	 B(4,11,13)       =         2.145397	     122.922175
	 B(5,7,12)        =         2.158032	     123.646125
	 B(5,7,20)        =         2.096895	     120.143250
	 B(5,10,6)        =         2.043051	     117.058187
	 B(5,10,9)        =         2.117955	     121.349899
	 B(6,8,12)        =         2.157901	     123.638639
	 B(6,8,21)        =         2.097044	     120.151759
	 B(6,10,9)        =         2.120725	     121.508593
	 B(7,5,10)        =         2.084380	     119.426167
	 B(7,5,18)        =         2.100637	     120.357634
	 B(7,12,8)        =         2.038210	     116.780854
	 B(8,6,10)        =         2.084599	     119.438736
	 B(8,6,19)        =         2.100331	     120.340108
	 B(9,1,14)        =         2.083472	     119.374131
	 B(9,2,15)        =         2.086017	     119.519943
	 B(10,5,18)       =         2.098142	     120.214693
	 B(10,6,19)       =         2.098164	     120.215970
	 B(11,3,16)       =         2.076013	     118.946781
	 B(11,4,17)       =         2.094237	     119.990927
	 B(11,13,22)      =         1.902052	     108.979528
	 B(12,7,20)       =         2.028205	     116.207571
	 B(12,8,21)       =         2.028235	     116.209307
	 D(1,3,11,4)      =         0.006101	       0.349590
	 D(1,3,11,13)     =        -3.138652	    -179.831509
	 D(1,9,2,4)       =         0.025297	       1.449405
	 D(1,9,2,15)      =        -3.133989	    -179.564335
	 D(1,9,10,5)      =         2.100866	     120.370770
	 D(1,9,10,6)      =        -0.981085	     -56.212017
	 D(2,4,11,3)      =        -0.001686	      -0.096583
	 D(2,4,11,13)     =        -3.139930	    -179.904746
	 D(2,9,1,3)       =        -0.020857	      -1.194993
	 D(2,9,1,14)      =         3.110764	     178.233627
	 D(2,9,10,5)      =        -0.977849	     -56.026624
	 D(2,9,10,6)      =         2.223385	     127.390588
	 D(3,1,9,10)      =        -3.100992	    -177.673741
	 D(3,11,4,17)     =        -3.140940	    -179.962582
	 D(3,11,13,22)    =        -3.136790	    -179.724829
	 D(4,2,9,10)      =         3.105304	     177.920796
	 D(4,11,3,16)     =        -3.125161	    -179.058535
	 D(4,11,13,22)    =         0.001537	       0.088043
	 D(5,7,12,8)      =         0.000991	       0.056788
	 D(5,10,6,8)      =         0.019197	       1.099935
	 D(5,10,6,19)     =        -3.136803	    -179.725572
	 D(6,8,12,7)      =        -0.003718	      -0.213042
	 D(6,10,5,7)      =        -0.021694	      -1.242968
	 D(6,10,5,18)     =         3.112136	     178.312249
	 D(7,5,10,9)      =        -3.106192	    -177.971667
	 D(7,12,8,21)     =         3.141322	     179.984515
	 D(8,6,10,9)      =         3.103598	     177.823087
	 D(8,12,7,20)     =        -3.129493	    -179.306735
	 D(9,1,3,11)      =         0.005377	       0.308087
	 D(9,1,3,16)      =         3.136401	     179.702542
	 D(9,2,4,11)      =        -0.014313	      -0.820053
	 D(9,2,4,17)      =         3.124940	     179.045853
	 D(9,10,5,18)     =         0.027638	       1.583550
	 D(9,10,6,19)     =        -0.052402	      -3.002420
	 D(10,5,7,12)     =         0.012140	       0.695555
	 D(10,5,7,20)     =        -3.140978	    -179.964790
	 D(10,6,8,12)     =        -0.006751	      -0.386784
	 D(10,6,8,21)     =         3.131264	     179.408236
	 D(10,9,1,14)     =         0.030628	       1.754879
	 D(10,9,2,15)     =        -0.053982	      -3.092944
	 D(11,3,1,14)     =        -3.126219	    -179.119171
	 D(11,4,2,15)     =        -3.138191	    -179.805089
	 D(12,7,5,18)     =        -3.121679	    -178.859013
	 D(12,8,6,19)     =        -3.133917	    -179.560232
	 D(13,11,3,16)    =         0.013271	       0.760366
	 D(13,11,4,17)    =         0.004001	       0.229255
	 D(14,1,3,16)     =         0.004805	       0.275284
	 D(15,2,4,17)     =         0.001061	       0.060817
	 D(18,5,7,20)     =         0.008389	       0.480641
	 D(19,6,8,21)     =         0.004098	       0.234788

	Current energy   :      -553.7239723413

	Energy change for the previous step:
		Projected    :        -0.0000013837
		Actual       :        -0.0000012689

	Performing BFGS update.
	Previous computed or guess Hessian on step 1.
	Steps to be used in Hessian update: 6 5
	Adding user-defined constraint: Fragment 1; Coordinate 63:
		Value =     2.100866; Fixed value    =     2.094400
		Force =    -0.004203; Force constant =     0.650000
	Removing off-diagonal coupling between coordinate 63 and others.
	Taking RFO optimization step.
	Going to follow RFO solution 1.
	Rejecting RFO root 1 because normalization gives large value.
	Using RFO vector 2.
	Norm of target step-size    0.00204
	Projected energy change by RFO approximation:        -0.0000001630

	Back-transformation to cartesian coordinates...
	Successfully converged to displaced geometry.

	--- Internal Coordinate Step in ANG or DEG, aJ/ANG or AJ/DEG ---
	 ---------------------------------------------------------------------------
	   Coordinate                Previous        Force       Change         New 
	   ----------                --------       ------       ------       ------
	    1 R(1,3)          =      1.384006    -0.000124    -0.000039     1.383967
	    2 R(1,9)          =      1.393824     0.000083     0.000048     1.393872
	    3 R(1,14)         =      1.080079    -0.000047    -0.000019     1.080060
	    4 R(2,4)          =      1.386366    -0.000004     0.000005     1.386371
	    5 R(2,9)          =      1.391686    -0.000348    -0.000090     1.391596
	    6 R(2,15)         =      1.080072    -0.000011    -0.000000     1.080072
	    7 R(3,11)         =      1.387986    -0.000142    -0.000037     1.387949
	    8 R(3,16)         =      1.078849     0.000003     0.000006     1.078855
	    9 R(4,11)         =      1.388418    -0.000036    -0.000006     1.388412
	   10 R(4,17)         =      1.081345    -0.000061    -0.000027     1.081318
	   11 R(5,7)          =      1.386269    -0.000199    -0.000056     1.386213
	   12 R(5,10)         =      1.390791     0.000096     0.000030     1.390821
	   13 R(5,18)         =      1.079727    -0.000045    -0.000029     1.079698
	   14 R(6,8)          =      1.386195    -0.000149    -0.000045     1.386150
	   15 R(6,10)         =      1.390758    -0.000216    -0.000062     1.390697
	   16 R(6,19)         =      1.079764     0.000004    -0.000008     1.079755
	   17 R(7,12)         =      1.335096     0.000107     0.000025     1.335120
	   18 R(7,20)         =      1.081095     0.000014     0.000005     1.081100
	   19 R(8,12)         =      1.335104     0.000162     0.000044     1.335148
	   20 R(8,21)         =      1.081125    -0.000071    -0.000030     1.081095
	   21 R(9,10)         =      1.463848    -0.000059    -0.000038     1.463810
	   22 R(11,13)        =      1.362391    -0.000119    -0.000033     1.362358
	   23 R(13,22)        =      0.961905    -0.000112    -0.000034     0.961871
	   24 B(1,3,11)       =    119.845186     0.000000     0.001557   119.846743
	   25 B(1,3,16)       =    121.205320    -0.000000     0.001892   121.207212
	   26 B(1,9,2)        =    118.505024     0.000001     0.000717   118.505741
	   27 B(1,9,10)       =    120.599259    -0.000003    -0.019833   120.579427
	   28 B(2,4,11)       =    119.949147     0.000000     0.000550   119.949698
	   29 B(2,4,17)       =    120.059789    -0.000000    -0.003350   120.056440
	   30 B(2,9,10)       =    120.800414     0.000002     0.018803   120.819217
	   31 B(3,1,9)        =    121.008087    -0.000000    -0.001475   121.006612
	   32 B(3,1,14)       =    119.615334    -0.000000     0.000613   119.615947
	   33 B(3,11,4)       =    119.847446    -0.000000    -0.001119   119.846327
	   34 B(3,11,13)      =    117.230116     0.000001     0.004081   117.234197
	   35 B(4,2,9)        =    120.830612    -0.000000     0.000027   120.830639
	   36 B(4,2,15)       =    119.641734    -0.000001    -0.005783   119.635951
	   37 B(4,11,13)      =    122.922175    -0.000000    -0.002955   122.919220
	   38 B(5,7,12)       =    123.646125    -0.000001    -0.000767   123.645358
	   39 B(5,7,20)       =    120.143250     0.000001     0.005457   120.148706
	   40 B(5,10,6)       =    117.058187     0.000001     0.003892   117.062079
	   41 B(5,10,9)       =    121.349899    -0.000002    -0.013430   121.336469
	   42 B(6,8,12)       =    123.638639     0.000000     0.002027   123.640667
	   43 B(6,8,21)       =    120.151759     0.000000     0.002563   120.154322
	   44 B(6,10,9)       =    121.508593     0.000001     0.009975   121.518568
	   45 B(7,5,10)       =    119.426167    -0.000000    -0.000740   119.425427
	   46 B(7,5,18)       =    120.357634    -0.000001    -0.006484   120.351150
	   47 B(7,12,8)       =    116.780854    -0.000000    -0.001713   116.779141
	   48 B(8,6,10)       =    119.438736    -0.000001    -0.002151   119.436584
	   49 B(8,6,19)       =    120.340108    -0.000001    -0.007170   120.332938
	   50 B(9,1,14)       =    119.374131     0.000000     0.000949   119.375081
	   51 B(9,2,15)       =    119.519943     0.000001     0.005638   119.525581
	   52 B(10,5,18)      =    120.214693     0.000001     0.007228   120.221921
	   53 B(10,6,19)      =    120.215970     0.000001     0.009360   120.225330
	   54 B(11,3,16)      =    118.946781     0.000000    -0.003359   118.943422
	   55 B(11,4,17)      =    119.990927     0.000000     0.002818   119.993746
	   56 B(11,13,22)     =    108.979528     0.000000     0.001989   108.981518
	   57 B(12,7,20)      =    116.207571    -0.000000    -0.004687   116.202884
	   58 B(12,8,21)      =    116.209307    -0.000000    -0.004575   116.204732
	   59 D(1,3,11,4)     =      0.349590    -0.000000    -0.002450     0.347140
	   60 D(1,3,11,13)    =   -179.831509     0.000000    -0.000217  -179.831726
	   61 D(1,9,2,4)      =      1.449405    -0.000000    -0.010994     1.438411
	   62 D(1,9,2,15)     =   -179.564335    -0.000000    -0.018773  -179.583108
	   63 D(1,9,10,5)     =    120.370770     0.000000     0.005164   120.375934
	   64 D(1,9,10,6)     =    -56.212017     0.000000    -0.003945   -56.215963
	   65 D(2,4,11,3)     =     -0.096583     0.000000     0.007008    -0.089575
	   66 D(2,4,11,13)    =   -179.904746     0.000000     0.004629  -179.900117
	   67 D(2,9,1,3)      =     -1.194993     0.000000     0.015647    -1.179347
	   68 D(2,9,1,14)     =    178.233627     0.000000     0.025958   178.259586
	   69 D(2,9,10,5)     =    -56.026624     0.000000     0.011047   -56.015578
	   70 D(2,9,10,6)     =    127.390588    -0.000000     0.001937   127.392525
	   71 D(3,1,9,10)     =   -177.673741    -0.000000     0.020729  -177.653012
	   72 D(3,11,4,17)    =   -179.962582     0.000000    -0.002556  -179.965138
	   73 D(3,11,13,22)   =   -179.724829     0.000000     0.013063  -179.711766
	   74 D(4,2,9,10)     =    177.920796     0.000000    -0.017503   177.903292
	   75 D(4,11,3,16)    =   -179.058535    -0.000000    -0.012338  -179.070873
	   76 D(4,11,13,22)   =      0.088043     0.000000     0.015375     0.103417
	   77 D(5,7,12,8)     =      0.056788    -0.000000    -0.013250     0.043538
	   78 D(5,10,6,8)     =      1.099935    -0.000000    -0.030064     1.069871
	   79 D(5,10,6,19)    =   -179.725572    -0.000000    -0.027074  -179.752646
	   80 D(6,8,12,7)     =     -0.213042     0.000000     0.010798    -0.202244
	   81 D(6,10,5,7)     =     -1.242968     0.000000     0.027802    -1.215166
	   82 D(6,10,5,18)    =    178.312249     0.000000     0.028334   178.340583
	   83 D(7,5,10,9)     =   -177.971667    -0.000000     0.018847  -177.952821
	   84 D(7,12,8,21)    =    179.984515    -0.000000     0.005725   179.990241
	   85 D(8,6,10,9)     =    177.823087     0.000000    -0.021910   177.801176
	   86 D(8,12,7,20)    =   -179.306735    -0.000000    -0.013519  -179.320254
	   87 D(9,1,3,11)     =      0.308087    -0.000000    -0.009090     0.298997
	   88 D(9,1,3,16)     =    179.702542    -0.000000     0.000994   179.703536
	   89 D(9,2,4,11)     =     -0.820053     0.000000    -0.000193    -0.820246
	   90 D(9,2,4,17)     =    179.045853     0.000000     0.009385   179.055238
	   91 D(9,10,5,18)    =      1.583550    -0.000000     0.019379     1.602928
	   92 D(9,10,6,19)    =     -3.002420     0.000000    -0.018920    -3.021341
	   93 D(10,5,7,12)    =      0.695555    -0.000000    -0.006442     0.689113
	   94 D(10,5,7,20)    =   -179.964790    -0.000000    -0.006226  -179.971016
	   95 D(10,6,8,12)    =     -0.386784     0.000000     0.011241    -0.375543
	   96 D(10,6,8,21)    =    179.408236     0.000000     0.016492   179.424728
	   97 D(10,9,1,14)    =      1.754879    -0.000000     0.031040     1.785920
	   98 D(10,9,2,15)    =     -3.092944     0.000000    -0.025283    -3.118227
	   99 D(11,3,1,14)    =   -179.119171    -0.000000    -0.019428  -179.138600
	  100 D(11,4,2,15)    =   -179.805089     0.000000     0.007480  -179.797610
	  101 D(12,7,5,18)    =   -178.859013    -0.000000    -0.007037  -178.866050
	  102 D(12,8,6,19)    =   -179.560232    -0.000000     0.008109  -179.552123
	  103 D(13,11,3,16)   =      0.760366    -0.000000    -0.010104     0.750261
	  104 D(13,11,4,17)   =      0.229255    -0.000000    -0.004935     0.224319
	  105 D(14,1,3,16)    =      0.275284    -0.000000    -0.009344     0.265940
	  106 D(15,2,4,17)    =      0.060817     0.000000     0.017058     0.077875
	  107 D(18,5,7,20)    =      0.480641     0.000000    -0.006821     0.473820
	  108 D(19,6,8,21)    =      0.234788     0.000000     0.013359     0.248147
	 ---------------------------------------------------------------------------
	Successfully symmetrized geometry.
	 Forces used to impose fixed constraints are not included.
	  Forces zeroed: 63 

  ==> Convergence Check <==

  Measures of convergence in internal coordinates in au.
  Criteria marked as inactive (o), active & met (*), and active & unmet ( ).
  ---------------------------------------------------------------------------------------------
   Step     Total Energy     Delta E     MAX Force     RMS Force      MAX Disp      RMS Disp   
  ---------------------------------------------------------------------------------------------
    Convergence Criteria    1.00e-06 *    3.00e-04 *             o    1.20e-03 *             o
  ---------------------------------------------------------------------------------------------
      7    -553.72397234   -1.27e-06      4.22e-05 *    1.06e-05 o    5.42e-04 *    1.96e-04 o  ~
  ---------------------------------------------------------------------------------------------


  **** Optimization is complete! (in 7 steps) ****

  ==> Optimization Summary <==

  Measures of convergence in internal coordinates in au.
  --------------------------------------------------------------------------------------------------------------- ~
   Step         Total Energy             Delta E       MAX Force       RMS Force        MAX Disp        RMS Disp  ~
  --------------------------------------------------------------------------------------------------------------- ~
      1    -553.720692985904   -553.720692985904      0.01664976      0.00426089      0.03245510      0.00962279  ~
      2    -553.723397581602     -0.002704595698      0.00401346      0.00120590      0.05093898      0.00961629  ~
      3    -553.723882010551     -0.000484428949      0.00104201      0.00025840      0.05476583      0.00872652  ~
      4    -553.723970028625     -0.000088018075      0.00036985      0.00009870      0.01315243      0.00261702  ~
      5    -553.723981383101     -0.000011354476      0.00018173      0.00004851      0.00462872      0.00119936  ~
      6    -553.723971072407      0.000010310694      0.00010620      0.00003967      0.00251116      0.00070286  ~
      7    -553.723972341280     -0.000001268873      0.00004223      0.00001099      0.00054176      0.00019618  ~
  --------------------------------------------------------------------------------------------------------------- ~

	Writing optimization data to binary file.
	Final energy is   -553.7239723412800
	Final (previous) structure:
	Cartesian Geometry (in Angstrom)
	    C    -1.2871359157   0.6507780928  -0.5493291149
	    C    -0.2734976027   0.1160782823   1.5524839117
	    C    -2.3462751974   1.2534867856   0.1067494940
	    C    -1.3333906605   0.7132346067   2.2173450653
	    C     2.1938225985  -0.0687433373  -0.3293442336
	    C     0.7266827262  -1.5216714648  -1.4975798167
	    C     3.2395817205  -0.6280394730  -1.0472006333
	    C     1.8328542065  -2.0186189755  -2.1691180529
	    C    -0.2427084209   0.0628146413   0.1621585838
	    C     0.8979129540  -0.5274711774  -0.5402636163
	    C    -2.3729286362   1.2825249937   1.4941760225
	    N     3.0798947438  -1.5910121327  -1.9580600756
	    O    -3.4421005346   1.8861280411   2.0846380086
	    H    -1.2630449780   0.6428590999  -1.6291107171
	    H     0.5309965432  -0.3280532032   2.1200152822
	    H    -3.1539572789   1.7136914583  -0.4407688719
	    H    -1.3520848512   0.7340099588   3.2983288713
	    H     2.3815005360   0.7212107719   0.3823865152
	    H    -0.2583886240  -1.9118712447  -1.7055895394
	    H     4.2515235895  -0.2806657364  -0.8920502976
	    H     1.7141520736  -2.7982449549  -2.9086612860
	    H    -3.3377886305   1.8425664963   3.0398777266
	Saving final (previous) structure.
			--------------------------
			 OPTKING Finished Execution 
			--------------------------

    Final optimized geometry and variables:
    Molecular point group: c1
    Full point group: C1

    Geometry (in Angstrom), charge = 0, multiplicity = 1:

    C           -1.287135915745     0.650778092792    -0.549329114865
    C           -0.273497602750     0.116078282304     1.552483911713
    C           -2.346275197381     1.253486785633     0.106749493985
    C           -1.333390660493     0.713234606743     2.217345065266
    C            2.193822598477    -0.068743337300    -0.329344233627
    C            0.726682726230    -1.521671464837    -1.497579816715
    C            3.239581720494    -0.628039473038    -1.047200633291
    C            1.832854206464    -2.018618975504    -2.169118052949
    C           -0.242708420915     0.062814641338     0.162158583770
    C            0.897912954006    -0.527471177419    -0.540263616267
    C           -2.372928636248     1.282524993723     1.494176022489
    N            3.079894743805    -1.591012132707    -1.958060075586
    O           -3.442100534558     1.886128041075     2.084638008571
    H           -1.263044977979     0.642859099857    -1.629110717087
    H            0.530996543176    -0.328053203212     2.120015282158
    H           -3.153957278862     1.713691458347    -0.440768871930
    H           -1.352084851172     0.734009958769     3.298328871254
    H            2.381500535992     0.721210771863     0.382386515169
    H           -0.258388624022    -1.911871244714    -1.705589539395
    H            4.251523589468    -0.280665736351    -0.892050297571
    H            1.714152073565    -2.798244954859    -2.908661286022
    H           -3.337788630513     1.842566496337     3.039877726586

	Cleaning optimization helper files.

*** Psi4 exiting successfully. Buy a developer a beer!
