
    -----------------------------------------------------------------------
          Psi4: An Open-Source Ab Initio Electronic Structure Package
                               Psi4 1.1 release

                         Git: Rev {HEAD} add49b9 


    R. M. Parrish, L. A. Burns, D. G. A. Smith, A. C. Simmonett,
    A. E. DePrince III, E. G. Hohenstein, U. Bozkaya, A. Yu. Sokolov,
    R. Di Remigio, R. M. Richard, J. F. Gonthier, A. M. James,
    H. R. McAlexander, A. Kumar, M. Saitow, X. Wang, B. P. Pritchard,
    P. Verma, H. F. Schaefer III, K. Patkowski, R. A. King, E. F. Valeev,
    F. A. Evangelista, J. M. Turney, T. D. Crawford, and C. D. Sherrill,
    J. Chem. Theory Comput. in press (2017).
    (doi: 10.1021/acs.jctc.7b00174)

    -----------------------------------------------------------------------


    Psi4 started on: Saturday, 11 November 2017 06:16PM

    Process ID:   1933
    PSIDATADIR: /cbio/jclab/home/chayas/anaconda/envs/py35/share/psi4
    Memory:     500.0 MiB
    Threads:    8
    
  ==> Input File <==

--------------------------------------------------------------------------

memory 5 Gb

molecule phepyrFOH_cation {
  symmetry C1
  1 1 
  C      1.885   -1.036   -0.112
  C      0.807   -0.463   0.561
  C      4.830   -1.443   -0.930
  C      4.321   -3.578   0.063
  C      1.800   -1.079   2.676
  C      5.894   -2.040   -1.592
  C      5.398   -4.120   -0.624
  C      2.921   -1.631   0.608
  C      4.038   -2.225   -0.095
  C      0.764   -0.484   1.955
  C      2.878   -1.652   2.002
  N      6.144   -3.345   -1.422
  O      -0.289   0.076   2.612
  F      3.866   -2.220   2.709
  H      1.904   -1.012   -1.199
  H      0.002   -0.002   -0.006
  H      4.632   -0.385   -1.072
  H      3.719   -4.212   0.708
  H      1.772   -1.099   3.762
  H      6.561   -1.511   -2.259
  H      5.691   -5.159   -0.561
  H      6.930   -3.764   -1.918
  H      -0.301   -0.216   3.537
  units Angstrom
}

dih_string = "2 10 13 23 165"
set optking fixed_dihedral = $dih_string

optimize('MP2/aug-cc-PVTZ')
--------------------------------------------------------------------------

  Memory set to   4.657 GiB by Python driver.
gradient() will perform analytic gradient computation.

*** tstart() called on gpu-1-7.local
*** at Sat Nov 11 18:16:22 2017

    SCF Algorithm Type (re)set to DF.

*** tstart() called on gpu-1-7.local
*** at Sat Nov 11 18:16:22 2017

   => Loading Basis Set <=

    Name: AUG-CC-PVTZ
    Role: ORBITAL
    Keyword: BASIS
    atoms 1-11  entry C          line   221 file /cbio/jclab/home/chayas/anaconda/envs/py35/share/psi4/basis/aug-cc-pvtz.gbs 
    atoms 12    entry N          line   267 file /cbio/jclab/home/chayas/anaconda/envs/py35/share/psi4/basis/aug-cc-pvtz.gbs 
    atoms 13    entry O          line   313 file /cbio/jclab/home/chayas/anaconda/envs/py35/share/psi4/basis/aug-cc-pvtz.gbs 
    atoms 14    entry F          line   359 file /cbio/jclab/home/chayas/anaconda/envs/py35/share/psi4/basis/aug-cc-pvtz.gbs 
    atoms 15-23 entry H          line    34 file /cbio/jclab/home/chayas/anaconda/envs/py35/share/psi4/basis/aug-cc-pvtz.gbs 


         ---------------------------------------------------------
                                   SCF
            by Justin Turney, Rob Parrish, and Andy Simmonett
                              RHF Reference
                        8 Threads,   4768 MiB Core
         ---------------------------------------------------------

  ==> Geometry <==

    Molecular point group: c1
    Full point group: C1

    Geometry (in Angstrom), charge = 1, multiplicity = 1:

       Center              X                  Y                   Z               Mass       
    ------------   -----------------  -----------------  -----------------  -----------------
           C         -1.337256594765     0.764992787196    -0.787955879371    12.000000000000
           C         -2.415256594765     1.337992787196    -0.114955879371    12.000000000000
           C          1.607743405235     0.357992787196    -1.605955879371    12.000000000000
           C          1.098743405235    -1.777007212804    -0.612955879371    12.000000000000
           C         -1.422256594765     0.721992787196     2.000044120629    12.000000000000
           C          2.671743405235    -0.239007212804    -2.267955879371    12.000000000000
           C          2.175743405235    -2.319007212804    -1.299955879371    12.000000000000
           C         -0.301256594765     0.169992787196    -0.067955879371    12.000000000000
           C          0.815743405235    -0.424007212804    -0.770955879371    12.000000000000
           C         -2.458256594765     1.316992787196     1.279044120629    12.000000000000
           C         -0.344256594765     0.148992787196     1.326044120629    12.000000000000
           N          2.921743405235    -1.544007212804    -2.097955879371    14.003074004780
           O         -3.511256594765     1.876992787196     1.936044120629    15.994914619560
           F          0.643743405235    -0.419007212804     2.033044120629    18.998403224000
           H         -1.318256594765     0.788992787196    -1.874955879371     1.007825032070
           H         -3.220256594765     1.798992787196    -0.681955879371     1.007825032070
           H          1.409743405235     1.415992787196    -1.747955879371     1.007825032070
           H          0.496743405235    -2.411007212804     0.032044120629     1.007825032070
           H         -1.450256594765     0.701992787196     3.086044120629     1.007825032070
           H          3.338743405235     0.289992787196    -2.934955879371     1.007825032070
           H          2.468743405235    -3.358007212804    -1.236955879371     1.007825032070
           H          3.707743405235    -1.963007212804    -2.593955879371     1.007825032070
           H         -3.523256594765     1.584992787196     2.861044120629     1.007825032070

  Running in c1 symmetry.

  Rotational constants: A =      0.06291  B =      0.01289  C =      0.01150 [cm^-1]
  Rotational constants: A =   1885.88669  B =    386.38541  C =    344.77392 [MHz]
  Nuclear repulsion =  829.456212152403623

  Charge       = 1
  Multiplicity = 1
  Electrons    = 98
  Nalpha       = 49
  Nbeta        = 49

  ==> Algorithm <==

  SCF Algorithm Type is DF.
  DIIS enabled.
  MOM disabled.
  Fractional occupation disabled.
  Guess Type is SAD.
  Energy threshold   = 1.00e-10
  Density threshold  = 1.00e-10
  Integral threshold = 0.00e+00

  ==> Primary Basis <==

  Basis Set: AUG-CC-PVTZ
    Blend: AUG-CC-PVTZ
    Number of shells: 277
    Number of basis function: 851
    Number of Cartesian functions: 995
    Spherical Harmonics?: true
    Max angular momentum: 3

   => Loading Basis Set <=

    Name: (AUG-CC-PVTZ AUX)
    Role: JKFIT
    Keyword: DF_BASIS_SCF
    atoms 1-11  entry C          line   161 file /cbio/jclab/home/chayas/anaconda/envs/py35/share/psi4/basis/aug-cc-pvtz-jkfit.gbs 
    atoms 12    entry N          line   223 file /cbio/jclab/home/chayas/anaconda/envs/py35/share/psi4/basis/aug-cc-pvtz-jkfit.gbs 
    atoms 13    entry O          line   285 file /cbio/jclab/home/chayas/anaconda/envs/py35/share/psi4/basis/aug-cc-pvtz-jkfit.gbs 
    atoms 14    entry F          line   347 file /cbio/jclab/home/chayas/anaconda/envs/py35/share/psi4/basis/aug-cc-pvtz-jkfit.gbs 
    atoms 15-23 entry H          line    69 file /cbio/jclab/home/chayas/anaconda/envs/py35/share/psi4/basis/aug-cc-pvtz-jkfit.gbs 

  ==> Pre-Iterations <==

   -------------------------------------------------------
    Irrep   Nso     Nmo     Nalpha   Nbeta   Ndocc  Nsocc
   -------------------------------------------------------
     A        851     851       0       0       0       0
   -------------------------------------------------------
    Total     851     851      49      49      49       0
   -------------------------------------------------------

  ==> Integral Setup <==

  ==> DFJK: Density-Fitted J/K Matrices <==

    J tasked:                  Yes
    K tasked:                  Yes
    wK tasked:                  No
    OpenMP threads:              8
    Integrals threads:           8
    Memory (MB):              3576
    Algorithm:                Disk
    Integral Cache:           NONE
    Schwarz Cutoff:          1E-12
    Fitting Condition:       1E-12

   => Auxiliary Basis Set <=

  Basis Set: (AUG-CC-PVTZ AUX)
    Blend: AUG-CC-PVTZ-JKFIT
    Number of shells: 546
    Number of basis function: 1870
    Number of Cartesian functions: 2329
    Spherical Harmonics?: true
    Max angular momentum: 4

  Minimum eigenvalue in the overlap matrix is 7.0114230508E-07.
  Using Symmetric Orthogonalization.

  SCF Guess: Superposition of Atomic Densities via on-the-fly atomic UHF.

  ==> Iterations <==

                           Total Energy        Delta E     RMS |[F,P]|

   @DF-RHF iter   0:  -653.30672204313703   -6.53307e+02   1.70053e-02 
   @DF-RHF iter   1:  -650.11391410229362    3.19281e+00   1.92291e-03 
   @DF-RHF iter   2:  -650.47599633484219   -3.62082e-01   8.41560e-04 DIIS
   @DF-RHF iter   3:  -650.54403866759753   -6.80423e-02   3.16240e-04 DIIS
   @DF-RHF iter   4:  -650.55719182292444   -1.31532e-02   9.95884e-05 DIIS
   @DF-RHF iter   5:  -650.55880633294339   -1.61451e-03   4.04357e-05 DIIS
   @DF-RHF iter   6:  -650.55912621484208   -3.19882e-04   1.52658e-05 DIIS
   @DF-RHF iter   7:  -650.55917139666474   -4.51818e-05   5.53508e-06 DIIS
   @DF-RHF iter   8:  -650.55917747790784   -6.08124e-06   1.59173e-06 DIIS
   @DF-RHF iter   9:  -650.55917821020182   -7.32294e-07   7.02674e-07 DIIS
   @DF-RHF iter  10:  -650.55917840177585   -1.91574e-07   3.58010e-07 DIIS
   @DF-RHF iter  11:  -650.55917846337911   -6.16033e-08   1.51223e-07 DIIS
   @DF-RHF iter  12:  -650.55917847524586   -1.18667e-08   5.93313e-08 DIIS
   @DF-RHF iter  13:  -650.55917847656303   -1.31718e-09   2.19459e-08 DIIS
   @DF-RHF iter  14:  -650.55917847673663   -1.73600e-10   6.96274e-09 DIIS
   @DF-RHF iter  15:  -650.55917847676051   -2.38742e-11   2.84339e-09 DIIS
   @DF-RHF iter  16:  -650.55917847673516    2.53522e-11   1.04619e-09 DIIS
   @DF-RHF iter  17:  -650.55917847676233   -2.71712e-11   4.27675e-10 DIIS
   @DF-RHF iter  18:  -650.55917847675289    9.43601e-12   1.95397e-10 DIIS
   @DF-RHF iter  19:  -650.55917847677347   -2.05773e-11   8.74325e-11 DIIS

  ==> Post-Iterations <==

    Orbital Energies (a.u.)
    -----------------------

    Doubly Occupied:                                                      

       1A    -26.444489     2A    -20.704235     3A    -15.843670  
       4A    -11.490243     5A    -11.488784     6A    -11.469208  
       7A    -11.451809     8A    -11.437608     9A    -11.421945  
      10A    -11.420845    11A    -11.384245    12A    -11.378191  
      13A    -11.361295    14A    -11.353956    15A     -1.762675  
      16A     -1.519285    17A     -1.518877    18A     -1.325353  
      19A     -1.270850    20A     -1.242935    21A     -1.163830  
      22A     -1.151805    23A     -1.072986    24A     -1.061508  
      25A     -0.990699    26A     -0.969359    27A     -0.963043  
      28A     -0.890056    29A     -0.873990    30A     -0.859156  
      31A     -0.856068    32A     -0.828906    33A     -0.821037  
      34A     -0.807057    35A     -0.798809    36A     -0.780859  
      37A     -0.757632    38A     -0.748352    39A     -0.728653  
      40A     -0.716977    41A     -0.708227    42A     -0.682845  
      43A     -0.653714    44A     -0.644568    45A     -0.618172  
      46A     -0.578317    47A     -0.540671    48A     -0.470411  
      49A     -0.446685  

    Virtual:                                                              

      50A     -0.105482    51A     -0.086758    52A     -0.067373  
      53A     -0.062995    54A     -0.058560    55A     -0.050403  
      56A     -0.042345    57A     -0.039702    58A     -0.034310  
      59A     -0.030060    60A     -0.024940    61A     -0.018964  
      62A     -0.013445    63A     -0.010216    64A     -0.006710  
      65A     -0.001877    66A      0.001217    67A      0.008536  
      68A      0.009135    69A      0.013065    70A      0.016419  
      71A      0.018268    72A      0.022967    73A      0.025772  
      74A      0.031502    75A      0.033107    76A      0.034927  
      77A      0.038300    78A      0.040295    79A      0.043043  
      80A      0.046726    81A      0.051344    82A      0.055272  
      83A      0.059969    84A      0.065700    85A      0.066803  
      86A      0.069785    87A      0.078149    88A      0.079753  
      89A      0.083925    90A      0.085924    91A      0.091967  
      92A      0.096272    93A      0.101343    94A      0.107319  
      95A      0.111317    96A      0.116860    97A      0.117636  
      98A      0.124164    99A      0.128553   100A      0.132958  
     101A      0.136435   102A      0.138073   103A      0.140618  
     104A      0.143249   105A      0.148567   106A      0.154565  
     107A      0.158562   108A      0.160327   109A      0.164542  
     110A      0.168002   111A      0.169125   112A      0.174008  
     113A      0.176558   114A      0.180711   115A      0.183885  
     116A      0.189213   117A      0.195863   118A      0.197672  
     119A      0.198927   120A      0.205579   121A      0.208523  
     122A      0.210411   123A      0.216935   124A      0.220645  
     125A      0.221448   126A      0.224226   127A      0.228414  
     128A      0.233541   129A      0.234974   130A      0.241703  
     131A      0.244582   132A      0.248656   133A      0.252822  
     134A      0.254932   135A      0.261653   136A      0.266525  
     137A      0.268925   138A      0.273892   139A      0.279779  
     140A      0.282346   141A      0.285045   142A      0.291819  
     143A      0.293524   144A      0.298625   145A      0.305021  
     146A      0.313028   147A      0.315268   148A      0.318027  
     149A      0.321797   150A      0.323869   151A      0.327964  
     152A      0.328573   153A      0.332982   154A      0.336545  
     155A      0.342380   156A      0.343119   157A      0.346202  
     158A      0.349289   159A      0.351662   160A      0.354147  
     161A      0.360578   162A      0.363559   163A      0.369614  
     164A      0.371483   165A      0.373714   166A      0.378478  
     167A      0.379443   168A      0.380462   169A      0.389411  
     170A      0.390767   171A      0.392338   172A      0.400235  
     173A      0.403133   174A      0.406085   175A      0.409005  
     176A      0.413361   177A      0.417699   178A      0.422248  
     179A      0.424365   180A      0.428225   181A      0.430903  
     182A      0.434795   183A      0.439050   184A      0.444766  
     185A      0.451112   186A      0.454634   187A      0.459600  
     188A      0.465421   189A      0.470087   190A      0.476482  
     191A      0.480744   192A      0.481463   193A      0.488237  
     194A      0.491304   195A      0.505818   196A      0.508040  
     197A      0.519183   198A      0.520292   199A      0.524869  
     200A      0.534450   201A      0.540564   202A      0.543810  
     203A      0.555847   204A      0.560852   205A      0.564839  
     206A      0.567133   207A      0.569086   208A      0.572582  
     209A      0.579872   210A      0.589128   211A      0.592838  
     212A      0.594474   213A      0.599820   214A      0.605141  
     215A      0.610532   216A      0.613712   217A      0.617553  
     218A      0.625462   219A      0.626965   220A      0.634968  
     221A      0.637114   222A      0.639751   223A      0.644114  
     224A      0.659470   225A      0.665920   226A      0.672525  
     227A      0.684235   228A      0.688465   229A      0.691699  
     230A      0.695459   231A      0.702346   232A      0.705644  
     233A      0.715333   234A      0.721770   235A      0.724266  
     236A      0.728431   237A      0.738640   238A      0.742244  
     239A      0.744354   240A      0.748868   241A      0.755668  
     242A      0.757662   243A      0.765548   244A      0.769809  
     245A      0.771730   246A      0.773833   247A      0.779989  
     248A      0.783424   249A      0.786993   250A      0.790827  
     251A      0.795410   252A      0.798312   253A      0.806072  
     254A      0.809474   255A      0.812901   256A      0.815988  
     257A      0.825238   258A      0.828117   259A      0.832291  
     260A      0.837050   261A      0.840850   262A      0.845662  
     263A      0.853442   264A      0.856469   265A      0.860887  
     266A      0.869069   267A      0.872900   268A      0.877612  
     269A      0.879086   270A      0.886981   271A      0.894775  
     272A      0.897561   273A      0.901618   274A      0.909402  
     275A      0.912271   276A      0.916782   277A      0.920608  
     278A      0.924577   279A      0.927512   280A      0.930427  
     281A      0.935511   282A      0.942323   283A      0.943872  
     284A      0.948152   285A      0.953756   286A      0.960675  
     287A      0.962998   288A      0.969754   289A      0.977212  
     290A      0.979627   291A      0.982314   292A      0.986770  
     293A      0.988627   294A      0.994474   295A      0.995439  
     296A      0.998797   297A      1.002931   298A      1.009543  
     299A      1.016150   300A      1.020371   301A      1.024357  
     302A      1.026512   303A      1.032186   304A      1.037999  
     305A      1.043236   306A      1.048962   307A      1.051217  
     308A      1.063427   309A      1.065877   310A      1.071255  
     311A      1.073263   312A      1.079039   313A      1.086985  
     314A      1.089087   315A      1.089915   316A      1.100478  
     317A      1.104105   318A      1.111794   319A      1.116786  
     320A      1.119208   321A      1.125680   322A      1.130918  
     323A      1.136594   324A      1.141925   325A      1.142969  
     326A      1.148319   327A      1.155312   328A      1.163315  
     329A      1.168100   330A      1.176269   331A      1.184624  
     332A      1.191561   333A      1.195430   334A      1.209222  
     335A      1.209811   336A      1.217101   337A      1.222374  
     338A      1.232319   339A      1.237358   340A      1.241472  
     341A      1.248748   342A      1.251102   343A      1.256951  
     344A      1.266811   345A      1.271865   346A      1.278582  
     347A      1.280164   348A      1.289102   349A      1.294917  
     350A      1.296775   351A      1.309849   352A      1.312039  
     353A      1.317328   354A      1.326965   355A      1.332263  
     356A      1.342448   357A      1.344221   358A      1.349460  
     359A      1.365590   360A      1.366222   361A      1.375273  
     362A      1.383994   363A      1.388057   364A      1.395276  
     365A      1.409224   366A      1.414598   367A      1.420790  
     368A      1.426400   369A      1.436669   370A      1.438638  
     371A      1.446742   372A      1.450767   373A      1.456814  
     374A      1.467060   375A      1.471520   376A      1.488911  
     377A      1.498763   378A      1.502888   379A      1.507060  
     380A      1.514937   381A      1.517877   382A      1.528835  
     383A      1.532162   384A      1.534081   385A      1.541013  
     386A      1.545779   387A      1.553729   388A      1.562972  
     389A      1.570181   390A      1.574395   391A      1.588045  
     392A      1.594674   393A      1.605639   394A      1.608795  
     395A      1.623838   396A      1.631057   397A      1.640427  
     398A      1.645257   399A      1.653388   400A      1.658871  
     401A      1.664531   402A      1.676559   403A      1.679701  
     404A      1.685474   405A      1.699624   406A      1.706490  
     407A      1.718200   408A      1.720265   409A      1.727014  
     410A      1.734100   411A      1.742932   412A      1.747465  
     413A      1.754987   414A      1.760219   415A      1.768243  
     416A      1.783307   417A      1.787730   418A      1.793991  
     419A      1.803360   420A      1.810352   421A      1.817459  
     422A      1.826314   423A      1.829767   424A      1.837883  
     425A      1.844041   426A      1.849453   427A      1.852750  
     428A      1.866616   429A      1.877923   430A      1.883931  
     431A      1.890095   432A      1.890877   433A      1.901414  
     434A      1.909256   435A      1.918312   436A      1.921355  
     437A      1.937341   438A      1.939076   439A      1.941285  
     440A      1.958237   441A      1.961122   442A      1.973611  
     443A      1.981435   444A      1.990110   445A      1.998318  
     446A      2.004881   447A      2.021532   448A      2.024733  
     449A      2.036810   450A      2.043064   451A      2.051740  
     452A      2.058486   453A      2.064840   454A      2.069176  
     455A      2.074145   456A      2.080856   457A      2.087799  
     458A      2.097431   459A      2.117562   460A      2.127842  
     461A      2.134121   462A      2.141922   463A      2.162349  
     464A      2.171920   465A      2.182230   466A      2.184689  
     467A      2.195168   468A      2.205176   469A      2.214519  
     470A      2.219799   471A      2.229889   472A      2.241195  
     473A      2.252519   474A      2.263699   475A      2.269789  
     476A      2.281040   477A      2.294898   478A      2.303571  
     479A      2.305439   480A      2.313600   481A      2.323606  
     482A      2.330239   483A      2.357140   484A      2.365588  
     485A      2.373404   486A      2.387524   487A      2.398770  
     488A      2.410316   489A      2.413330   490A      2.419565  
     491A      2.431671   492A      2.437934   493A      2.472364  
     494A      2.481998   495A      2.486010   496A      2.510831  
     497A      2.514701   498A      2.526375   499A      2.535672  
     500A      2.542409   501A      2.561707   502A      2.572366  
     503A      2.577644   504A      2.595068   505A      2.605409  
     506A      2.619018   507A      2.631332   508A      2.640592  
     509A      2.654402   510A      2.699315   511A      2.700679  
     512A      2.711732   513A      2.737884   514A      2.746697  
     515A      2.757325   516A      2.796633   517A      2.805658  
     518A      2.806667   519A      2.842531   520A      2.866002  
     521A      2.908412   522A      2.924005   523A      2.927678  
     524A      2.936183   525A      2.943832   526A      2.951086  
     527A      2.970728   528A      2.984094   529A      3.000120  
     530A      3.014996   531A      3.021453   532A      3.039075  
     533A      3.045409   534A      3.056596   535A      3.068443  
     536A      3.081268   537A      3.100119   538A      3.107722  
     539A      3.125988   540A      3.128970   541A      3.138189  
     542A      3.155289   543A      3.158084   544A      3.181703  
     545A      3.192985   546A      3.203151   547A      3.223385  
     548A      3.228278   549A      3.234168   550A      3.245268  
     551A      3.261028   552A      3.264407   553A      3.270315  
     554A      3.294026   555A      3.295256   556A      3.309627  
     557A      3.317583   558A      3.320511   559A      3.330881  
     560A      3.339690   561A      3.349264   562A      3.356784  
     563A      3.364950   564A      3.370725   565A      3.380204  
     566A      3.389431   567A      3.395965   568A      3.403938  
     569A      3.413759   570A      3.422344   571A      3.430580  
     572A      3.432856   573A      3.444352   574A      3.448529  
     575A      3.466733   576A      3.470850   577A      3.480136  
     578A      3.488313   579A      3.504910   580A      3.510099  
     581A      3.516023   582A      3.522358   583A      3.531945  
     584A      3.540453   585A      3.552595   586A      3.571183  
     587A      3.574977   588A      3.590648   589A      3.597364  
     590A      3.604687   591A      3.610467   592A      3.622611  
     593A      3.625041   594A      3.645976   595A      3.648502  
     596A      3.654145   597A      3.661969   598A      3.677135  
     599A      3.685556   600A      3.689397   601A      3.702189  
     602A      3.708228   603A      3.711463   604A      3.718698  
     605A      3.729160   606A      3.742459   607A      3.745772  
     608A      3.758930   609A      3.765599   610A      3.771424  
     611A      3.779472   612A      3.786108   613A      3.795025  
     614A      3.806945   615A      3.810163   616A      3.815186  
     617A      3.829588   618A      3.834248   619A      3.848757  
     620A      3.854096   621A      3.860608   622A      3.872937  
     623A      3.880443   624A      3.882140   625A      3.898591  
     626A      3.905789   627A      3.910044   628A      3.923964  
     629A      3.931633   630A      3.936749   631A      3.953002  
     632A      3.956192   633A      3.967796   634A      3.984097  
     635A      3.990954   636A      3.995738   637A      4.003726  
     638A      4.014375   639A      4.023186   640A      4.030743  
     641A      4.038389   642A      4.047698   643A      4.054027  
     644A      4.060327   645A      4.073895   646A      4.082578  
     647A      4.097169   648A      4.105304   649A      4.109953  
     650A      4.114236   651A      4.124671   652A      4.139928  
     653A      4.143267   654A      4.157077   655A      4.171039  
     656A      4.179128   657A      4.187538   658A      4.200689  
     659A      4.204389   660A      4.216287   661A      4.218819  
     662A      4.225919   663A      4.236816   664A      4.240966  
     665A      4.249991   666A      4.254707   667A      4.264604  
     668A      4.274126   669A      4.289421   670A      4.290241  
     671A      4.303291   672A      4.304453   673A      4.314146  
     674A      4.317481   675A      4.333957   676A      4.346588  
     677A      4.357820   678A      4.369814   679A      4.374372  
     680A      4.377366   681A      4.389305   682A      4.401272  
     683A      4.414022   684A      4.428349   685A      4.439409  
     686A      4.450217   687A      4.459582   688A      4.466033  
     689A      4.478669   690A      4.482473   691A      4.494371  
     692A      4.508381   693A      4.526105   694A      4.562685  
     695A      4.577284   696A      4.589447   697A      4.599823  
     698A      4.614166   699A      4.617006   700A      4.633618  
     701A      4.634625   702A      4.642326   703A      4.652851  
     704A      4.674827   705A      4.694904   706A      4.710104  
     707A      4.714199   708A      4.728708   709A      4.739581  
     710A      4.743600   711A      4.760564   712A      4.770299  
     713A      4.778003   714A      4.810855   715A      4.811288  
     716A      4.823946   717A      4.829461   718A      4.839598  
     719A      4.854532   720A      4.863161   721A      4.887323  
     722A      4.902681   723A      4.917698   724A      4.920058  
     725A      4.933750   726A      4.939260   727A      4.942111  
     728A      4.954559   729A      4.971031   730A      4.991858  
     731A      4.997235   732A      5.006632   733A      5.020457  
     734A      5.033919   735A      5.036666   736A      5.048812  
     737A      5.059423   738A      5.061171   739A      5.082802  
     740A      5.095848   741A      5.112181   742A      5.156795  
     743A      5.166874   744A      5.174352   745A      5.186142  
     746A      5.201183   747A      5.203831   748A      5.212948  
     749A      5.240755   750A      5.258803   751A      5.268998  
     752A      5.282611   753A      5.310542   754A      5.326075  
     755A      5.350932   756A      5.365847   757A      5.373645  
     758A      5.385879   759A      5.393497   760A      5.412277  
     761A      5.452303   762A      5.464414   763A      5.490352  
     764A      5.504494   765A      5.512679   766A      5.554756  
     767A      5.583715   768A      5.591319   769A      5.605703  
     770A      5.625200   771A      5.646169   772A      5.660277  
     773A      5.683953   774A      5.693839   775A      5.718031  
     776A      5.744117   777A      5.775642   778A      5.829599  
     779A      5.834217   780A      5.886646   781A      5.921346  
     782A      5.931429   783A      5.974403   784A      5.981472  
     785A      6.001946   786A      6.030293   787A      6.086210  
     788A      6.149844   789A      6.155401   790A      6.192605  
     791A      6.201685   792A      6.257464   793A      6.277103  
     794A      6.342434   795A      6.355596   796A      6.396796  
     797A      6.413477   798A      6.453963   799A      6.513148  
     800A      6.558818   801A      6.592349   802A      6.613631  
     803A      6.652084   804A      6.726786   805A      6.743699  
     806A      6.801676   807A      6.832060   808A      6.840854  
     809A      6.884118   810A      6.912313   811A      6.962752  
     812A      6.976770   813A      7.083744   814A      7.171841  
     815A      7.279105   816A      7.334405   817A      7.375582  
     818A      7.446439   819A      7.539865   820A      7.567524  
     821A      7.595842   822A      7.646674   823A      7.875564  
     824A      8.269480   825A      8.517511   826A      8.887217  
     827A      8.929413   828A      9.152503   829A      9.171555  
     830A      9.289246   831A      9.402407   832A      9.423532  
     833A      9.477340   834A      9.525768   835A      9.597576  
     836A      9.915676   837A      9.960442   838A     15.837510  
     839A     16.077088   840A     16.457274   841A     16.475666  
     842A     16.747026   843A     16.882394   844A     18.721650  
     845A     19.143062   846A     19.514631   847A     19.630124  
     848A     20.058775   849A     20.134967   850A     20.331139  
     851A     21.709714  

    Final Occupation by Irrep:
              A 
    DOCC [    49 ]

  Energy converged.

  @DF-RHF Final Energy:  -650.55917847677347

   => Energetics <=

    Nuclear Repulsion Energy =            829.4562121524036229
    One-Electron Energy =               -2519.0809967234376927
    Two-Electron Energy =                1039.0656060942606018
    DFT Exchange-Correlation Energy =       0.0000000000000000
    Empirical Dispersion Energy =           0.0000000000000000
    PCM Polarization Energy =               0.0000000000000000
    EFP Energy =                            0.0000000000000000
    Total Energy =                       -650.5591784767734680



Properties will be evaluated at   0.000000,   0.000000,   0.000000 Bohr

Properties computed using the SCF density matrix

  Nuclear Dipole Moment: (a.u.)
     X:     1.1576      Y:    -0.6703      Z:    -6.6757

  Electronic Dipole Moment: (a.u.)
     X:     1.7705      Y:    -1.0464      Z:     4.2895

  Dipole Moment: (a.u.)
     X:     2.9282      Y:    -1.7167      Z:    -2.3863     Total:     4.1492

  Dipole Moment: (Debye)
     X:     7.4427      Y:    -4.3634      Z:    -6.0652     Total:    10.5461


*** tstop() called on gpu-1-7.local at Sat Nov 11 18:25:14 2017
Module time:
	user time   =    1105.22 seconds =      18.42 minutes
	system time =     165.15 seconds =       2.75 minutes
	total time  =        532 seconds =       8.87 minutes
Total time:
	user time   =    1105.22 seconds =      18.42 minutes
	system time =     165.15 seconds =       2.75 minutes
	total time  =        532 seconds =       8.87 minutes

  //>>>>>>>>>>>>>>>>>>>>>>>>>>>>>>>>>>>//
  //               DFMP2               //
  //<<<<<<<<<<<<<<<<<<<<<<<<<<<<<<<<<<<//

   => Loading Basis Set <=

    Name: (AUG-CC-PVTZ AUX)
    Role: RIFIT
    Keyword: DF_BASIS_MP2
    atoms 1-11  entry C          line   147 file /cbio/jclab/home/chayas/anaconda/envs/py35/share/psi4/basis/aug-cc-pvtz-ri.gbs 
    atoms 12    entry N          line   205 file /cbio/jclab/home/chayas/anaconda/envs/py35/share/psi4/basis/aug-cc-pvtz-ri.gbs 
    atoms 13    entry O          line   263 file /cbio/jclab/home/chayas/anaconda/envs/py35/share/psi4/basis/aug-cc-pvtz-ri.gbs 
    atoms 14    entry F          line   321 file /cbio/jclab/home/chayas/anaconda/envs/py35/share/psi4/basis/aug-cc-pvtz-ri.gbs 
    atoms 15-23 entry H          line    29 file /cbio/jclab/home/chayas/anaconda/envs/py35/share/psi4/basis/aug-cc-pvtz-ri.gbs 

	 --------------------------------------------------------
	                          DF-MP2                         
	      2nd-Order Density-Fitted Moller-Plesset Theory     
	              RMP2 Wavefunction,   8 Threads             
	                                                         
	        Rob Parrish, Justin Turney, Andy Simmonett,      
	           Ed Hohenstein, and C. David Sherrill          
	 --------------------------------------------------------

   => Auxiliary Basis Set <=

  Basis Set: (AUG-CC-PVTZ AUX)
    Blend: AUG-CC-PVTZ-RI
    Number of shells: 518
    Number of basis function: 1898
    Number of Cartesian functions: 2399
    Spherical Harmonics?: true
    Max angular momentum: 4

	 --------------------------------------------------------
	                 NBF =   851, NAUX =  1898
	 --------------------------------------------------------
	   CLASS    FOCC     OCC    AOCC    AVIR     VIR    FVIR
	   PAIRS       0      49      49     802     802       0
	 --------------------------------------------------------


         ------------------------------------------------------------
                                     CPHF                           
                                  Rob Parrish                       
         ------------------------------------------------------------

  ==> Geometry <==

    Molecular point group: c1
    Full point group: C1

    Geometry (in Angstrom), charge = 1, multiplicity = 1:

       Center              X                  Y                   Z               Mass       
    ------------   -----------------  -----------------  -----------------  -----------------
           C         -1.337256594765     0.764992787196    -0.787955879371    12.000000000000
           C         -2.415256594765     1.337992787196    -0.114955879371    12.000000000000
           C          1.607743405235     0.357992787196    -1.605955879371    12.000000000000
           C          1.098743405235    -1.777007212804    -0.612955879371    12.000000000000
           C         -1.422256594765     0.721992787196     2.000044120629    12.000000000000
           C          2.671743405235    -0.239007212804    -2.267955879371    12.000000000000
           C          2.175743405235    -2.319007212804    -1.299955879371    12.000000000000
           C         -0.301256594765     0.169992787196    -0.067955879371    12.000000000000
           C          0.815743405235    -0.424007212804    -0.770955879371    12.000000000000
           C         -2.458256594765     1.316992787196     1.279044120629    12.000000000000
           C         -0.344256594765     0.148992787196     1.326044120629    12.000000000000
           N          2.921743405235    -1.544007212804    -2.097955879371    14.003074004780
           O         -3.511256594765     1.876992787196     1.936044120629    15.994914619560
           F          0.643743405235    -0.419007212804     2.033044120629    18.998403224000
           H         -1.318256594765     0.788992787196    -1.874955879371     1.007825032070
           H         -3.220256594765     1.798992787196    -0.681955879371     1.007825032070
           H          1.409743405235     1.415992787196    -1.747955879371     1.007825032070
           H          0.496743405235    -2.411007212804     0.032044120629     1.007825032070
           H         -1.450256594765     0.701992787196     3.086044120629     1.007825032070
           H          3.338743405235     0.289992787196    -2.934955879371     1.007825032070
           H          2.468743405235    -3.358007212804    -1.236955879371     1.007825032070
           H          3.707743405235    -1.963007212804    -2.593955879371     1.007825032070
           H         -3.523256594765     1.584992787196     2.861044120629     1.007825032070

  Nuclear repulsion =  829.456212152403623
  Reference energy  = -650.559178476773468

  ==> Basis Set <==

  Basis Set: AUG-CC-PVTZ
    Blend: AUG-CC-PVTZ
    Number of shells: 277
    Number of basis function: 851
    Number of Cartesian functions: 995
    Spherical Harmonics?: true
    Max angular momentum: 3

  ==> CGRSolver (by Rob Parrish) <==

   Number of roots    =         1
   Preconditioning    =    JACOBI
   Convergence cutoff =     1E-06
   Maximum iterations =       100

  ==> CPHFRHamiltonian (by Rob Parrish) <== 

  ==> DFJK: Density-Fitted J/K Matrices <==

    J tasked:                  Yes
    K tasked:                  Yes
    wK tasked:                  No
    OpenMP threads:              8
    Integrals threads:           8
    Memory (MB):              3576
    Algorithm:                Disk
    Integral Cache:           NONE
    Schwarz Cutoff:          1E-12
    Fitting Condition:       1E-12

   => Auxiliary Basis Set <=

  Basis Set: (AUG-CC-PVTZ AUX)
    Blend: AUG-CC-PVTZ-JKFIT
    Number of shells: 546
    Number of basis function: 1870
    Number of Cartesian functions: 2329
    Spherical Harmonics?: true
    Max angular momentum: 4

  ==> CPHF Iterations <==

  => Iterations <=

             Iter  Converged  Remaining    Residual
  CGR           1          0          1   1.201E-01
  CGR           2          0          1   4.744E-02
  CGR           3          0          1   2.777E-02
  CGR           4          0          1   9.075E-03
  CGR           5          0          1   3.802E-03
  CGR           6          0          1   1.596E-03
  CGR           7          0          1   5.184E-04
  CGR           8          0          1   2.233E-04
  CGR           9          0          1   1.010E-04
  CGR          10          0          1   4.058E-05
  CGR          11          0          1   1.669E-05
  CGR          12          0          1   5.636E-06
  CGR          13          0          1   2.078E-06
  CGR          14          1          0   7.281E-07

    CGRSolver converged.

  ==> DFCorrGrad: Density-Fitted Correlated Gradients <==

    OpenMP threads:              8
    Integrals threads:           8
    Memory (MB):              3576
    Schwarz Cutoff:          0E+00
    Fitting Condition:       1E-12

   => Auxiliary Basis Set <=

  Basis Set: (AUG-CC-PVTZ AUX)
    Blend: AUG-CC-PVTZ-JKFIT
    Number of shells: 546
    Number of basis function: 1870
    Number of Cartesian functions: 2329
    Spherical Harmonics?: true
    Max angular momentum: 4

	-----------------------------------------------------------
	 ==================> DF-MP2 Energies <==================== 
	-----------------------------------------------------------
	 Reference Energy          =    -650.5591784767734680 [Eh]
	 Singles Energy            =      -0.0000000000000006 [Eh]
	 Same-Spin Energy          =      -0.6690971090682620 [Eh]
	 Opposite-Spin Energy      =      -2.0140106357281131 [Eh]
	 Correlation Energy        =      -2.6831077447963758 [Eh]
	 Total Energy              =    -653.2422862215698842 [Eh]
	-----------------------------------------------------------
	 ================> DF-SCS-MP2 Energies <================== 
	-----------------------------------------------------------
	 SCS Same-Spin Scale       =       0.3333333333333333 [-]
	 SCS Opposite-Spin Scale   =       1.2000000000000000 [-]
	 SCS Same-Spin Energy      =      -0.2230323696894207 [Eh]
	 SCS Opposite-Spin Energy  =      -2.4168127628737355 [Eh]
	 SCS Correlation Energy    =      -2.6398451325631567 [Eh]
	 SCS Total Energy          =    -653.1990236093366775 [Eh]
	-----------------------------------------------------------


  -Total Gradient:
     Atom            X                  Y                   Z
    ------   -----------------  -----------------  -----------------
       1        0.009114700279    -0.010848566657    -0.010908842102
       2        0.000916264486    -0.001839026075     0.007157056472
       3       -0.010511621866     0.007980410334     0.010334944560
       4       -0.014435278445     0.006702530944     0.005418059250
       5       -0.010714683913     0.005926521740     0.001988869093
       6        0.002151714506    -0.011547044995     0.003247669519
       7        0.006164450377     0.007816462942    -0.007909747792
       8       -0.003633955796     0.001681049733    -0.002790903045
       9        0.003510458261    -0.002063126457    -0.004530630109
      10        0.000017220780     0.002761887104    -0.010601339724
      11        0.025124277299    -0.008206763094    -0.000366640962
      12        0.000963438647    -0.001037363536    -0.000652450011
      13       -0.004034794147     0.005457373936     0.007805167103
      14        0.000006341859    -0.000381776890     0.004510417114
      15       -0.001247284066     0.001524026899    -0.005666201645
      16       -0.003262937718     0.002710962902    -0.005148587830
      17       -0.001253024412     0.005409023326    -0.001548349881
      18       -0.003400836423    -0.003961610407     0.003800611432
      19       -0.001925656057    -0.000015298825     0.004791562967
      20        0.002101876109     0.000178214531    -0.002136102966
      21        0.001875419816    -0.002253280610    -0.000382660906
      22        0.004503168518    -0.002594017998    -0.002989907423
      23       -0.002029258106    -0.003400588847     0.006578006892


*** tstop() called on gpu-1-7.local at Sat Nov 11 19:07:02 2017
Module time:
	user time   =    6012.98 seconds =     100.22 minutes
	system time =     373.09 seconds =       6.22 minutes
	total time  =       3040 seconds =      50.67 minutes
Total time:
	user time   =    6012.98 seconds =     100.22 minutes
	system time =     373.09 seconds =       6.22 minutes
	total time  =       3040 seconds =      50.67 minutes

			-----------------------------------------
			 OPTKING 2.0: for geometry optimizations 
			  - R.A. King,  Bethel University        
			-----------------------------------------

	Internal coordinates to be generated automatically.
	Detected frag 1 with atoms:  1 2 3 4 5 6 7 8 9 10 11 12 13 14 15 16 17 18 19 20
	 21 22 23
	---Fragment 1 Bond Connectivity---
	 1 : 2 8 15
	 2 : 1 10 16
	 3 : 6 9 17
	 4 : 7 9 18
	 5 : 10 11 19
	 6 : 3 12 20
	 7 : 4 12 21
	 8 : 1 9 11
	 9 : 3 4 8
	 10 : 2 5 13
	 11 : 5 8 14
	 12 : 6 7 22
	 13 : 10 23
	 14 : 11
	 15 : 1
	 16 : 2
	 17 : 3
	 18 : 4
	 19 : 5
	 20 : 6
	 21 : 7
	 22 : 12
	 23 : 13

	Assuming in current code that numbering for constraints corresponds to unified fragment.
	Fixed dihedral atom list: 
	     2    10    13    23
	---Fragment 1 Geometry and Gradient---
	 C          -2.5270487335        1.4456268614       -1.4890208168
	 C          -4.5641735048        2.5284399356       -0.2172351294
	 C           3.0381947278        0.6765083253       -3.0348167935
	 C           2.0763241262       -3.3580569684       -1.1583187436
	 C          -2.6876754548        1.3643686377        3.7795356417
	 C           5.0488633332       -0.4516581760       -4.2858154935
	 C           4.1115591713       -4.3822885324       -2.4565605968
	 C          -0.5692924598        0.3212398124       -0.1284180011
	 C           1.5415316306       -0.8012575106       -1.4568954725
	 C          -4.6454317285        2.4887556868        2.4170430999
	 C          -0.6505506835        0.2815555636        2.5058602281
	 N           5.5212948665       -2.9177507794       -3.9645620509
	 O          -6.6353133464        3.5470023212        3.6585931692
	 F           1.2164987357       -0.7918088799        3.8418966041
	 H          -2.4911439370        1.4909802886       -3.5431531233
	 H          -6.0854030417        3.3996036828       -1.2887098467
	 H           2.6640289535        2.6758385739       -3.3031579044
	 H           0.9387089942       -4.5561433366        0.0605546122
	 H          -2.7405877865        1.3265741151        5.8317782220
	 H           6.3093106639        0.5480069483       -5.5462628241
	 H           4.6652489283       -6.3457139845       -2.3375078505
	 H           7.0066196069       -3.7095460291       -4.9018662128
	 H          -6.6579900600        2.9952022904        5.4065898421
	             0.0091147003       -0.0108485667       -0.0109088421
	             0.0009162645       -0.0018390261        0.0071570565
	            -0.0105116219        0.0079804103        0.0103349446
	            -0.0144352784        0.0067025309        0.0054180593
	            -0.0107146839        0.0059265217        0.0019888691
	             0.0021517145       -0.0115470450        0.0032476695
	             0.0061644504        0.0078164629       -0.0079097478
	            -0.0036339558        0.0016810497       -0.0027909030
	             0.0035104583       -0.0020631265       -0.0045306301
	             0.0000172208        0.0027618871       -0.0106013397
	             0.0251242773       -0.0082067631       -0.0003666410
	             0.0009634386       -0.0010373635       -0.0006524500
	            -0.0040347941        0.0054573739        0.0078051671
	             0.0000063419       -0.0003817769        0.0045104171
	            -0.0012472841        0.0015240269       -0.0056662016
	            -0.0032629377        0.0027109629       -0.0051485878
	            -0.0012530244        0.0054090233       -0.0015483499
	            -0.0034008364       -0.0039616104        0.0038006114
	            -0.0019256561       -0.0000152988        0.0047915630
	             0.0021018761        0.0001782145       -0.0021361030
	             0.0018754198       -0.0022532806       -0.0003826609
	             0.0045031685       -0.0025940180       -0.0029899074
	            -0.0020292581       -0.0034005888        0.0065780069

	Previous optimization step data not found.  Starting new optimization.

	---Fragment 1 Intrafragment Coordinates---
	 - Coordinate -           - BOHR/RAD -       - ANG/DEG -
	 R(1,2)           =         2.634350	       1.394038
	 R(1,8)           =         2.635962	       1.394891
	 R(1,15)          =         2.054947	       1.087431
	 R(2,10)          =         2.635830	       1.394821
	 R(2,16)          =         2.054537	       1.087214
	 R(3,6)           =         2.623079	       1.388074
	 R(3,9)           =         2.629378	       1.391407
	 R(3,17)          =         2.051665	       1.085694
	 R(4,7)           =         2.622339	       1.387682
	 R(4,9)           =         2.629140	       1.391281
	 R(4,18)          =         2.053103	       1.086455
	 R(5,10)          =         2.636938	       1.395407
	 R(5,11)          =         2.635263	       1.394521
	 R(5,19)          =         2.053272	       1.086545
	 R(6,12)          =         2.531404	       1.339561
	 R(6,20)          =         2.043719	       1.081489
	 R(7,12)          =         2.531066	       1.339382
	 R(7,21)          =         2.043474	       1.081360
	 R(8,9)           =         2.735038	       1.447320
	 R(8,11)          =         2.635830	       1.394821
	 R(10,13)         =         2.573123	       1.361638
	 R(11,14)         =         2.534359	       1.341125
	 R(12,22)         =         1.926569	       1.019496
	 R(13,23)         =         1.833164	       0.970069
	 B(1,2,10)        =         2.094553	     120.009056
	 B(1,2,16)        =         2.088723	     119.675016
	 B(1,8,9)         =         2.091569	     119.838095
	 B(1,8,11)        =         2.093692	     119.959722
	 B(2,1,8)         =         2.094940	     120.031219
	 B(2,1,15)        =         2.079469	     119.144799
	 B(2,10,5)        =         2.094306	     119.994870
	 B(2,10,13)       =         2.094247	     119.991510
	 B(3,6,12)        =         2.096160	     120.101096
	 B(3,6,20)        =         2.160978	     123.814942
	 B(3,9,4)         =         2.093156	     119.928982
	 B(3,9,8)         =         2.094542	     120.008404
	 B(4,7,12)        =         2.095824	     120.081885
	 B(4,7,21)        =         2.161239	     123.829863
	 B(4,9,8)         =         2.095488	     120.062613
	 B(5,10,13)       =         2.094633	     120.013619
	 B(5,11,8)        =         2.095181	     120.045019
	 B(5,11,14)       =         2.081414	     119.256220
	 B(6,3,9)         =         2.072362	     118.737620
	 B(6,3,17)        =         2.090402	     119.771194
	 B(6,12,7)        =         2.135730	     122.368334
	 B(6,12,22)       =         2.074333	     118.850498
	 B(7,4,9)         =         2.073138	     118.782073
	 B(7,4,18)        =         2.089816	     119.737652
	 B(7,12,22)       =         2.073122	     118.781161
	 B(8,1,15)        =         2.108776	     120.823969
	 B(8,11,14)       =         2.106591	     120.698759
	 B(9,3,17)        =         2.120421	     121.491171
	 B(9,4,18)        =         2.120230	     121.480258
	 B(9,8,11)        =         2.097924	     120.202184
	 B(10,2,16)       =         2.099909	     120.315896
	 B(10,5,11)       =         2.093699	     119.960108
	 B(10,5,19)       =         2.100355	     120.341451
	 B(10,13,23)      =         1.923952	     110.234334
	 B(11,5,19)       =         2.089132	     119.698439
	 B(12,6,20)       =         2.026047	     116.083959
	 B(12,7,21)       =         2.026122	     116.088250
	 D(1,2,10,5)      =        -0.000325	      -0.018609
	 D(1,2,10,13)     =         3.141388	     179.988267
	 D(1,8,9,3)       =         1.047203	      60.000294
	 D(1,8,9,4)       =        -2.094232	    -119.990639
	 D(1,8,11,5)      =         0.000325	       0.018608
	 D(1,8,11,14)     =        -3.141528	    -179.996269
	 D(2,1,8,9)       =         3.141277	     179.981897
	 D(2,1,8,11)      =        -0.000348	      -0.019945
	 D(2,10,5,11)     =         0.000301	       0.017261
	 D(2,10,5,19)     =        -3.141029	    -179.967685
	 D(2,10,13,23)    =         2.880023	     165.013155
	 D(3,6,12,7)      =        -0.000167	      -0.009589
	 D(3,6,12,22)     =         3.140892	     179.959844
	 D(3,9,4,7)       =        -0.000213	      -0.012204
	 D(3,9,4,18)      =        -3.140964	    -179.964007
	 D(3,9,8,11)      =        -2.094358	    -119.997860
	 D(4,7,12,6)      =         0.000492	       0.028196
	 D(4,7,12,22)     =        -3.140567	    -179.941258
	 D(4,9,3,6)       =         0.000525	       0.030092
	 D(4,9,3,17)      =         3.141327	     179.984799
	 D(4,9,8,11)      =         1.047393	      60.011207
	 D(5,10,2,16)     =         3.140149	     179.917291
	 D(5,10,13,23)    =        -0.261450	     -14.979968
	 D(5,11,8,9)      =        -3.141300	    -179.983240
	 D(6,3,9,8)       =        -3.140909	    -179.960854
	 D(6,12,7,21)     =        -3.140902	    -179.960420
	 D(7,4,9,8)       =         3.141222	     179.978736
	 D(7,12,6,20)     =         3.141065	     179.969740
	 D(8,1,2,10)      =         0.000348	       0.019955
	 D(8,1,2,16)      =        -3.140133	    -179.916358
	 D(8,9,3,17)      =        -0.000107	      -0.006146
	 D(8,9,4,18)      =         0.000470	       0.026933
	 D(8,11,5,10)     =        -0.000301	      -0.017270
	 D(8,11,5,19)     =         3.141030	     179.967774
	 D(9,3,6,12)      =        -0.000344	      -0.019721
	 D(9,3,6,20)      =        -3.141547	    -179.997375
	 D(9,4,7,12)      =        -0.000293	      -0.016764
	 D(9,4,7,21)      =         3.141085	     179.970928
	 D(9,8,1,15)      =         0.000403	       0.023110
	 D(9,8,11,14)     =         0.000033	       0.001883
	 D(10,2,1,15)     =         3.141234	     179.979432
	 D(10,5,11,14)    =         3.141547	     179.997392
	 D(11,5,10,13)    =        -3.141411	    -179.989616
	 D(11,8,1,15)     =        -3.141221	    -179.978731
	 D(12,6,3,17)     =        -3.141160	    -179.975226
	 D(12,7,4,18)     =         3.140474	     179.935898
	 D(13,10,2,16)    =        -0.001324	      -0.075833
	 D(13,10,5,19)    =         0.000444	       0.025437
	 D(14,11,5,19)    =        -0.000307	      -0.017564
	 D(15,1,2,16)     =         0.000753	       0.043120
	 D(17,3,6,20)     =         0.000822	       0.047120
	 D(18,4,7,21)     =        -0.001334	      -0.076410
	 D(20,6,12,22)    =        -0.001062	      -0.060827
	 D(21,7,12,22)    =         0.001224	       0.070126
	 R(4,14)          =         5.685691	       3.008738

	Current energy   :      -653.2422862216

	Generating empirical Hessian (Schlegel '84) for each fragment.
	Adding user-defined constraint: Fragment 1; Coordinate 72:
		Value =     2.880023; Fixed value    =     2.879793
		Force =    -0.000115; Force constant =     0.500000
	Removing off-diagonal coupling between coordinate 72 and others.
	Taking RFO optimization step.
	Going to follow RFO solution 1.
	Using RFO vector 1.

	Determining step-restricting scale parameter for RS-RFO.
	Maximum step size allowed    0.10000

	 Iter      |step|        alpha        rfo_root  
	------------------------------------------------
	    0     0.31251       1.00000           1
	    1     0.20844       3.55418           1
	    2     0.15339       8.87965           1
	    3     0.12241      18.66187           1
	    4     0.10602      30.16113           1
	    5     0.10060      35.79723           1
	    6     0.10001      36.48428           1
	------------------------------------------------
	Norm of target step-size    0.10001
	Projected energy change by RFO approximation:        -0.0044678913

	Back-transformation to cartesian coordinates...
	Successfully converged to displaced geometry.
	First geometry is closer to target in internal coordinates, so am using that one.
	First geometry has RMS(Delta(q)) = 1.29e-04

	--- Internal Coordinate Step in ANG or DEG, aJ/ANG or AJ/DEG ---
	 ---------------------------------------------------------------------------
	   Coordinate                Previous        Force       Change         New 
	   ----------                --------       ------       ------       ------
	    1 R(1,2)          =      1.394038    -0.091028    -0.009259     1.384779
	    2 R(1,8)          =      1.394891    -0.007930    -0.000633     1.394258
	    3 R(1,15)         =      1.087431    -0.046762    -0.005835     1.081596
	    4 R(2,10)         =      1.394821    -0.055716    -0.005681     1.389140
	    5 R(2,16)         =      1.087214    -0.051497    -0.006379     1.080836
	    6 R(3,6)          =      1.388074    -0.094437    -0.009457     1.378617
	    7 R(3,9)          =      1.391407     0.027374     0.002827     1.394233
	    8 R(3,17)         =      1.085694    -0.046978    -0.005837     1.079857
	    9 R(4,7)          =      1.387682    -0.095565    -0.009573     1.378109
	   10 R(4,9)          =      1.391281     0.035406     0.003773     1.395053
	   11 R(4,18)         =      1.086455    -0.053161    -0.006605     1.079851
	   12 R(5,10)         =      1.395407    -0.028391    -0.002928     1.392480
	   13 R(5,11)         =      1.394521    -0.132242    -0.013492     1.381029
	   14 R(5,19)         =      1.086545    -0.039867    -0.004907     1.081638
	   15 R(6,12)         =      1.339561     0.015906     0.001425     1.340986
	   16 R(6,20)         =      1.081489    -0.022252    -0.002703     1.078787
	   17 R(7,12)         =      1.339382     0.021559     0.001970     1.341353
	   18 R(7,21)         =      1.081360    -0.021840    -0.002677     1.078682
	   19 R(8,9)          =      1.447320     0.085328     0.010168     1.457488
	   20 R(8,11)         =      1.394821    -0.056139    -0.005462     1.389359
	   21 R(10,13)        =      1.361638    -0.102782    -0.009169     1.352469
	   22 R(11,14)        =      1.341125    -0.019614    -0.001632     1.339494
	   23 R(12,22)        =      1.019496    -0.049371    -0.005223     1.014274
	   24 R(13,23)        =      0.970069    -0.060316    -0.005364     0.964705
	   25 B(1,2,10)       =    120.009056    -0.000155    -0.288841   119.720216
	   26 B(1,2,16)       =    119.675016     0.000252     0.554512   120.229529
	   27 B(1,8,9)        =    119.838095     0.000406     0.693978   120.532072
	   28 B(1,8,11)       =    119.959722    -0.000650    -1.204637   118.755085
	   29 B(2,1,8)        =    120.031219     0.000335     0.685235   120.716454
	   30 B(2,1,15)       =    119.144799    -0.000022    -0.004816   119.139983
	   31 B(2,10,5)       =    119.994870     0.000083     0.155365   120.150235
	   32 B(2,10,13)      =    119.991510    -0.000907    -1.668998   118.322513
	   33 B(3,6,12)       =    120.101096    -0.000320    -0.647293   119.453803
	   34 B(3,6,20)       =    123.814942     0.000062     0.094075   123.909017
	   35 B(3,9,4)        =    119.928982    -0.000515    -0.966388   118.962594
	   36 B(3,9,8)        =    120.008404     0.000164     0.285073   120.293477
	   37 B(4,7,12)       =    120.081885    -0.000320    -0.636229   119.445657
	   38 B(4,7,21)       =    123.829863     0.000062     0.088534   123.918398
	   39 B(4,9,8)        =    120.062613     0.000351     0.681233   120.743846
	   40 B(5,10,13)      =    120.013619     0.000824     1.513620   121.527239
	   41 B(5,11,8)       =    120.045019     0.000622     1.119504   121.164523
	   42 B(5,11,14)      =    119.256220    -0.000041    -0.108974   119.147247
	   43 B(6,3,9)        =    118.737620     0.000428     0.830896   119.568515
	   44 B(6,3,17)       =    119.771194    -0.000189    -0.358340   119.412853
	   45 B(6,12,7)       =    122.368334     0.000323     0.628524   122.996858
	   46 B(6,12,22)      =    118.850498    -0.000169    -0.334357   118.516141
	   47 B(7,4,9)        =    118.782073     0.000405     0.790443   119.572516
	   48 B(7,4,18)       =    119.737652    -0.000182    -0.350875   119.386777
	   49 B(7,12,22)      =    118.781161    -0.000153    -0.294165   118.486996
	   50 B(8,1,15)       =    120.823969    -0.000312    -0.681063   120.142906
	   51 B(8,11,14)      =    120.698759    -0.000581    -1.011147   119.687613
	   52 B(9,3,17)       =    121.491171    -0.000239    -0.472552   121.018619
	   53 B(9,4,18)       =    121.480258    -0.000223    -0.439567   121.040691
	   54 B(9,8,11)       =    120.202184     0.000244     0.510653   120.712837
	   55 B(10,2,16)      =    120.315896    -0.000097    -0.265641   120.050256
	   56 B(10,5,11)      =    119.960108    -0.000233    -0.467324   119.492784
	   57 B(10,5,19)      =    120.341451     0.000243     0.528321   120.869772
	   58 B(10,13,23)     =    110.234334    -0.000121    -0.284427   109.949907
	   59 B(11,5,19)      =    119.698439    -0.000009    -0.060999   119.637440
	   60 B(12,6,20)      =    116.083959     0.000258     0.553058   116.637017
	   61 B(12,7,21)      =    116.088250     0.000258     0.547670   116.635921
	   62 D(1,2,10,5)     =     -0.018609    -0.000006    -0.139720    -0.158329
	   63 D(1,2,10,13)    =    179.988267    -0.000012    -0.187710   179.800557
	   64 D(1,8,9,3)      =     60.000294    -0.000053    -0.977695    59.022599
	   65 D(1,8,9,4)      =   -119.990639    -0.000049    -0.880901  -120.871540
	   66 D(1,8,11,5)     =      0.018608    -0.000006    -0.116627    -0.098020
	   67 D(1,8,11,14)    =   -179.996269     0.000010     0.186592  -179.809677
	   68 D(2,1,8,9)      =    179.981897    -0.000006    -0.105092   179.876805
	   69 D(2,1,8,11)     =     -0.019945    -0.000007    -0.131402    -0.151346
	   70 D(2,10,5,11)    =      0.017261    -0.000007    -0.103567    -0.086306
	   71 D(2,10,5,19)    =   -179.967685    -0.000008    -0.142506  -180.110191
	   72 D(2,10,13,23)   =    165.013155     0.000015     0.098744   165.111899
	   73 D(3,6,12,7)     =     -0.009589     0.000003     0.055015     0.045426
	   74 D(3,6,12,22)    =    179.959844     0.000004     0.060473   180.020317
	   75 D(3,9,4,7)      =     -0.012204     0.000002     0.047128     0.034924
	   76 D(3,9,4,18)     =   -179.964007     0.000002     0.044965  -179.919043
	   77 D(3,9,8,11)     =   -119.997860    -0.000052    -0.950835  -120.948695
	   78 D(4,7,12,6)     =      0.028196     0.000000    -0.003136     0.025060
	   79 D(4,7,12,22)    =   -179.941258    -0.000000    -0.008581  -179.949839
	   80 D(4,9,3,6)      =      0.030092     0.000001     0.004213     0.034305
	   81 D(4,9,3,17)     =    179.984799     0.000005     0.090425   180.075224
	   82 D(4,9,8,11)     =     60.011207    -0.000047    -0.854041    59.157166
	   83 D(5,10,2,16)    =    179.917291    -0.000004    -0.079893   179.837398
	   84 D(5,10,13,23)   =    -14.979968     0.000009     0.050159   -14.929809
	   85 D(5,11,8,9)     =   -179.983240    -0.000007    -0.142983  -180.126223
	   86 D(6,3,9,8)      =   -179.960854     0.000005     0.099147  -179.861706
	   87 D(6,12,7,21)    =   -179.960420    -0.000004    -0.069576  -180.029996
	   88 D(7,4,9,8)      =    179.978736    -0.000002    -0.048284   179.930453
	   89 D(7,12,6,20)    =    179.969740    -0.000004    -0.065712   179.904028
	   90 D(8,1,2,10)     =      0.019955     0.000013     0.258665     0.278620
	   91 D(8,1,2,16)     =   -179.916358     0.000010     0.199259  -179.717099
	   92 D(8,9,3,17)     =     -0.006146     0.000010     0.185359     0.179212
	   93 D(8,9,4,18)     =      0.026933    -0.000002    -0.050447    -0.023514
	   94 D(8,11,5,10)    =     -0.017270     0.000013     0.233214     0.215944
	   95 D(8,11,5,19)    =    179.967774     0.000015     0.271758   180.239532
	   96 D(9,3,6,12)     =     -0.019721    -0.000004    -0.054597    -0.074317
	   97 D(9,3,6,20)     =   -179.997375     0.000004     0.075349  -179.922026
	   98 D(9,4,7,12)     =     -0.016764    -0.000003    -0.048145    -0.064910
	   99 D(9,4,7,21)     =    179.970928     0.000001     0.023467   179.994395
	  100 D(9,8,1,15)     =      0.023110     0.000008     0.151003     0.174114
	  101 D(9,8,11,14)    =      0.001883     0.000008     0.160236     0.162119
	  102 D(10,2,1,15)    =    179.979432    -0.000000     0.004825   179.984258
	  103 D(10,5,11,14)   =    179.997392    -0.000003    -0.068262   179.929131
	  104 D(11,5,10,13)   =   -179.989616    -0.000001    -0.054230  -180.043846
	  105 D(11,8,1,15)    =   -179.978731     0.000007     0.124694  -179.854038
	  106 D(12,6,3,17)    =   -179.975226    -0.000008    -0.139348  -180.114573
	  107 D(12,7,4,18)    =    179.935898    -0.000003    -0.046074   179.889824
	  108 D(13,10,2,16)   =     -0.075833    -0.000009    -0.127883    -0.203716
	  109 D(13,10,5,19)   =      0.025437    -0.000003    -0.093169    -0.067732
	  110 D(14,11,5,19)   =     -0.017564    -0.000001    -0.029718    -0.047281
	  111 D(15,1,2,16)    =      0.043120    -0.000003    -0.054581    -0.011462
	  112 D(17,3,6,20)    =      0.047120    -0.000001    -0.009402     0.037718
	  113 D(18,4,7,21)    =     -0.076410     0.000002     0.025539    -0.050871
	  114 D(20,6,12,22)   =     -0.060827    -0.000003    -0.060254    -0.121081
	  115 D(21,7,12,22)   =      0.070126    -0.000004    -0.075021    -0.004895
	  116 R(4,14)         =      3.008738    -0.008358    -0.003422     3.005317
	 ---------------------------------------------------------------------------
	Successfully symmetrized geometry.
	 Forces used to impose fixed constraints are not included.
	  Forces zeroed: 72 

  ==> Convergence Check <==

  Measures of convergence in internal coordinates in au.
  Criteria marked as inactive (o), active & met (*), and active & unmet ( ).
  --------------------------------------------------------------------------------------------- ~
   Step     Total Energy     Delta E     MAX Force     RMS Force      MAX Disp      RMS Disp    ~
  --------------------------------------------------------------------------------------------- ~
    Convergence Criteria    1.00e-06 *    3.00e-04 *             o    1.20e-03 *             o  ~
  --------------------------------------------------------------------------------------------- ~
      1    -653.24228622   -6.53e+02      1.61e-02      4.35e-03 o    2.91e-02      9.28e-03 o  ~
  ---------------------------------------------------------------------------------------------

	Writing optimization data to binary file.
	Structure for next step:
	Cartesian Geometry (in Angstrom)
	    C    -1.3431873255   0.7781733023  -0.7684951861
	    C    -2.4147793937   1.3468717048  -0.1007491126
	    C     1.6113150720   0.3450186498  -1.6159845695
	    C     1.1190799740  -1.7829545097  -0.6143798340
	    C    -1.4246439503   0.7154500395   2.0046667625
	    C     2.6696440095  -0.2382189666  -2.2795795570
	    C     2.1872423255  -2.3252679338  -1.2956365918
	    C    -0.3057565968   0.1702017064  -0.0627583769
	    C     0.8188771438  -0.4294747426  -0.7697641076
	    C    -2.4553906540   1.3172863087   1.2874819820
	    C    -0.3647642612   0.1478443253   1.3251673762
	    N     2.9222851565  -1.5428729328  -2.0998737020
	    O    -3.5131174879   1.8847130366   1.9107095164
	    F     0.6237075212  -0.4279781442   2.0220140985
	    H    -1.3212713329   0.8062933248  -1.8495034284
	    H    -3.2170024221   1.8121208727  -0.6558951454
	    H     1.4096025724   1.3960838898  -1.7597394324
	    H     0.5268924798  -2.4140861533   0.0314252501
	    H    -1.4435346044   0.6873525130   3.0857746713
	    H     3.3275023414   0.2941491500  -2.9485992130
	    H     2.4816143109  -3.3607599984  -1.2273943709
	    H     3.7046078074  -1.9572639245  -2.5948514549
	    H    -3.5438243652   1.6001525878   2.8319791999
			--------------------------
			 OPTKING Finished Execution 
			--------------------------

    Structure for next step:
    Molecular point group: c1
    Full point group: C1

    Geometry (in Angstrom), charge = 1, multiplicity = 1:

    C           -1.341554693728     0.779203093541    -0.767258805021
    C           -2.413146761960     1.347901496033    -0.099512731541
    C            1.612947703738     0.346048441074    -1.614748188500
    C            1.120712605757    -1.781924718406    -0.613143452967
    C           -1.423011318558     0.716479830705     2.005903143526
    C            2.671276641222    -0.237189175375    -2.278343175997
    C            2.188874957223    -2.324238142588    -1.294400210739
    C           -0.304123965081     0.171231497608    -0.061521995862
    C            0.820509775515    -0.428444951316    -0.768527726574
    C           -2.453758022307     1.318316099935     1.288718363064
    C           -0.363131629515     0.148874116507     1.326403757259
    N            2.923917788228    -1.541843141577    -2.098637320931
    O           -3.511484856179     1.885742827880     1.911945897433
    F            0.625340152932    -0.426948352909     2.023250479540
    H           -1.319638701195     0.807323116009    -1.848267047329
    H           -3.215369790352     1.813150663919    -0.654658764330
    H            1.411235204105     1.397113681090    -1.758503051391
    H            0.528525111489    -2.413056362033     0.032661631126
    H           -1.441901972622     0.688382304219     3.087011052357
    H            3.329134973163     0.295178941241    -2.947362832006
    H            2.483246942650    -3.359730207149    -1.226157989861
    H            3.706240439094    -1.956234133301    -2.593615073867
    H           -3.542191733459     1.601182379062     2.833215580964

gradient() will perform analytic gradient computation.

*** tstart() called on gpu-1-7.local
*** at Sat Nov 11 19:07:03 2017

    SCF Algorithm Type (re)set to DF.

*** tstart() called on gpu-1-7.local
*** at Sat Nov 11 19:07:03 2017

   => Loading Basis Set <=

    Name: AUG-CC-PVTZ
    Role: ORBITAL
    Keyword: BASIS
    atoms 1-11  entry C          line   221 file /cbio/jclab/home/chayas/anaconda/envs/py35/share/psi4/basis/aug-cc-pvtz.gbs 
    atoms 12    entry N          line   267 file /cbio/jclab/home/chayas/anaconda/envs/py35/share/psi4/basis/aug-cc-pvtz.gbs 
    atoms 13    entry O          line   313 file /cbio/jclab/home/chayas/anaconda/envs/py35/share/psi4/basis/aug-cc-pvtz.gbs 
    atoms 14    entry F          line   359 file /cbio/jclab/home/chayas/anaconda/envs/py35/share/psi4/basis/aug-cc-pvtz.gbs 
    atoms 15-23 entry H          line    34 file /cbio/jclab/home/chayas/anaconda/envs/py35/share/psi4/basis/aug-cc-pvtz.gbs 


         ---------------------------------------------------------
                                   SCF
            by Justin Turney, Rob Parrish, and Andy Simmonett
                              RHF Reference
                        8 Threads,   4768 MiB Core
         ---------------------------------------------------------

  ==> Geometry <==

    Molecular point group: c1
    Full point group: C1

    Geometry (in Angstrom), charge = 1, multiplicity = 1:

       Center              X                  Y                   Z               Mass       
    ------------   -----------------  -----------------  -----------------  -----------------
           C         -1.341554693728     0.779203093541    -0.767258805021    12.000000000000
           C         -2.413146761960     1.347901496033    -0.099512731541    12.000000000000
           C          1.612947703738     0.346048441074    -1.614748188500    12.000000000000
           C          1.120712605757    -1.781924718406    -0.613143452967    12.000000000000
           C         -1.423011318558     0.716479830705     2.005903143526    12.000000000000
           C          2.671276641222    -0.237189175375    -2.278343175997    12.000000000000
           C          2.188874957223    -2.324238142588    -1.294400210739    12.000000000000
           C         -0.304123965081     0.171231497608    -0.061521995862    12.000000000000
           C          0.820509775515    -0.428444951316    -0.768527726574    12.000000000000
           C         -2.453758022307     1.318316099935     1.288718363064    12.000000000000
           C         -0.363131629515     0.148874116507     1.326403757259    12.000000000000
           N          2.923917788228    -1.541843141577    -2.098637320931    14.003074004780
           O         -3.511484856179     1.885742827880     1.911945897433    15.994914619560
           F          0.625340152932    -0.426948352909     2.023250479540    18.998403224000
           H         -1.319638701195     0.807323116009    -1.848267047329     1.007825032070
           H         -3.215369790352     1.813150663919    -0.654658764330     1.007825032070
           H          1.411235204105     1.397113681090    -1.758503051391     1.007825032070
           H          0.528525111489    -2.413056362033     0.032661631126     1.007825032070
           H         -1.441901972622     0.688382304219     3.087011052357     1.007825032070
           H          3.329134973163     0.295178941241    -2.947362832006     1.007825032070
           H          2.483246942650    -3.359730207149    -1.226157989861     1.007825032070
           H          3.706240439094    -1.956234133301    -2.593615073867     1.007825032070
           H         -3.542191733459     1.601182379062     2.833215580964     1.007825032070

  Running in c1 symmetry.

  Rotational constants: A =      0.06340  B =      0.01287  C =      0.01148 [cm^-1]
  Rotational constants: A =   1900.59215  B =    385.76826  C =    344.12087 [MHz]
  Nuclear repulsion =  830.578323131997308

  Charge       = 1
  Multiplicity = 1
  Electrons    = 98
  Nalpha       = 49
  Nbeta        = 49

  ==> Algorithm <==

  SCF Algorithm Type is DF.
  DIIS enabled.
  MOM disabled.
  Fractional occupation disabled.
  Guess Type is READ.
  Energy threshold   = 1.00e-10
  Density threshold  = 1.00e-10
  Integral threshold = 0.00e+00

  ==> Primary Basis <==

  Basis Set: AUG-CC-PVTZ
    Blend: AUG-CC-PVTZ
    Number of shells: 277
    Number of basis function: 851
    Number of Cartesian functions: 995
    Spherical Harmonics?: true
    Max angular momentum: 3

   => Loading Basis Set <=

    Name: (AUG-CC-PVTZ AUX)
    Role: JKFIT
    Keyword: DF_BASIS_SCF
    atoms 1-11  entry C          line   161 file /cbio/jclab/home/chayas/anaconda/envs/py35/share/psi4/basis/aug-cc-pvtz-jkfit.gbs 
    atoms 12    entry N          line   223 file /cbio/jclab/home/chayas/anaconda/envs/py35/share/psi4/basis/aug-cc-pvtz-jkfit.gbs 
    atoms 13    entry O          line   285 file /cbio/jclab/home/chayas/anaconda/envs/py35/share/psi4/basis/aug-cc-pvtz-jkfit.gbs 
    atoms 14    entry F          line   347 file /cbio/jclab/home/chayas/anaconda/envs/py35/share/psi4/basis/aug-cc-pvtz-jkfit.gbs 
    atoms 15-23 entry H          line    69 file /cbio/jclab/home/chayas/anaconda/envs/py35/share/psi4/basis/aug-cc-pvtz-jkfit.gbs 

  Reading orbitals from file 180, no projection.

  ==> Pre-Iterations <==

   -------------------------------------------------------
    Irrep   Nso     Nmo     Nalpha   Nbeta   Ndocc  Nsocc
   -------------------------------------------------------
     A        851     851       0       0       0       0
   -------------------------------------------------------
    Total     851     851      49      49      49       0
   -------------------------------------------------------

  ==> Integral Setup <==

  ==> DFJK: Density-Fitted J/K Matrices <==

    J tasked:                  Yes
    K tasked:                  Yes
    wK tasked:                  No
    OpenMP threads:              8
    Integrals threads:           8
    Memory (MB):              3576
    Algorithm:                Disk
    Integral Cache:           NONE
    Schwarz Cutoff:          1E-12
    Fitting Condition:       1E-12

   => Auxiliary Basis Set <=

  Basis Set: (AUG-CC-PVTZ AUX)
    Blend: AUG-CC-PVTZ-JKFIT
    Number of shells: 546
    Number of basis function: 1870
    Number of Cartesian functions: 2329
    Spherical Harmonics?: true
    Max angular momentum: 4

  Minimum eigenvalue in the overlap matrix is 6.7413449963E-07.
  Using Symmetric Orthogonalization.

  SCF Guess: Orbitals guess was supplied from a previous computation.

  ==> Iterations <==

                           Total Energy        Delta E     RMS |[F,P]|

   @DF-RHF iter   0:  -650.60949619570442   -6.50609e+02   3.01288e-04 
   @DF-RHF iter   1:  -650.56435494183881    4.51413e-02   4.60005e-05 
   @DF-RHF iter   2:  -650.56455625650779   -2.01315e-04   2.77122e-05 DIIS
   @DF-RHF iter   3:  -650.56464290709039   -8.66506e-05   6.88107e-06 DIIS
   @DF-RHF iter   4:  -650.56464993419752   -7.02711e-06   2.92255e-06 DIIS
   @DF-RHF iter   5:  -650.56465168449517   -1.75030e-06   1.09635e-06 DIIS
   @DF-RHF iter   6:  -650.56465207745487   -3.92960e-07   5.19781e-07 DIIS
   @DF-RHF iter   7:  -650.56465220670214   -1.29247e-07   2.35023e-07 DIIS
   @DF-RHF iter   8:  -650.56465224111366   -3.44115e-08   8.49637e-08 DIIS
   @DF-RHF iter   9:  -650.56465224496139   -3.84773e-09   3.35927e-08 DIIS
   @DF-RHF iter  10:  -650.56465224528176   -3.20370e-10   1.13696e-08 DIIS
   @DF-RHF iter  11:  -650.56465224534691   -6.51426e-11   3.03275e-09 DIIS
   @DF-RHF iter  12:  -650.56465224535566   -8.75389e-12   1.51354e-09 DIIS
   @DF-RHF iter  13:  -650.56465224533667    1.89857e-11   6.74652e-10 DIIS
   @DF-RHF iter  14:  -650.56465224533258    4.09273e-12   2.66997e-10 DIIS
   @DF-RHF iter  15:  -650.56465224536350   -3.09228e-11   1.22421e-10 DIIS
   @DF-RHF iter  16:  -650.56465224535179    1.17097e-11   4.67356e-11 DIIS

  ==> Post-Iterations <==

    Orbital Energies (a.u.)
    -----------------------

    Doubly Occupied:                                                      

       1A    -26.442654     2A    -20.705468     3A    -15.841599  
       4A    -11.488668     5A    -11.487095     6A    -11.466533  
       7A    -11.454425     8A    -11.436410     9A    -11.419569  
      10A    -11.418589    11A    -11.381833    12A    -11.377334  
      13A    -11.358470    14A    -11.349628    15A     -1.762447  
      16A     -1.525929    17A     -1.517688    18A     -1.323939  
      19A     -1.273945    20A     -1.245163    21A     -1.165273  
      22A     -1.154614    23A     -1.071311    24A     -1.063554  
      25A     -0.992935    26A     -0.970568    27A     -0.963632  
      28A     -0.891861    29A     -0.874265    30A     -0.860731  
      31A     -0.857163    32A     -0.828583    33A     -0.820654  
      34A     -0.807976    35A     -0.801207    36A     -0.780187  
      37A     -0.759152    38A     -0.748983    39A     -0.730025  
      40A     -0.715177    41A     -0.711700    42A     -0.684647  
      43A     -0.657212    44A     -0.645490    45A     -0.619403  
      46A     -0.578084    47A     -0.542601    48A     -0.472522  
      49A     -0.446529  

    Virtual:                                                              

      50A     -0.106573    51A     -0.086167    52A     -0.064954  
      53A     -0.062790    54A     -0.058148    55A     -0.050245  
      56A     -0.042441    57A     -0.039557    58A     -0.034047  
      59A     -0.029829    60A     -0.024871    61A     -0.018493  
      62A     -0.013313    63A     -0.009581    64A     -0.006241  
      65A     -0.001507    66A      0.001902    67A      0.008617  
      68A      0.009278    69A      0.013319    70A      0.016749  
      71A      0.018693    72A      0.022959    73A      0.025898  
      74A      0.031642    75A      0.033339    76A      0.035120  
      77A      0.038409    78A      0.040539    79A      0.043146  
      80A      0.046963    81A      0.051830    82A      0.055442  
      83A      0.059943    84A      0.065971    85A      0.067012  
      86A      0.069881    87A      0.078285    88A      0.079710  
      89A      0.083887    90A      0.085941    91A      0.092028  
      92A      0.096318    93A      0.101695    94A      0.107818  
      95A      0.112171    96A      0.117048    97A      0.118089  
      98A      0.124293    99A      0.128494   100A      0.133328  
     101A      0.136595   102A      0.137985   103A      0.140521  
     104A      0.143693   105A      0.148723   106A      0.154998  
     107A      0.158198   108A      0.160487   109A      0.164883  
     110A      0.167708   111A      0.169433   112A      0.174107  
     113A      0.176965   114A      0.180870   115A      0.184307  
     116A      0.189653   117A      0.196641   118A      0.198069  
     119A      0.199574   120A      0.206136   121A      0.209349  
     122A      0.211013   123A      0.217710   124A      0.220084  
     125A      0.221865   126A      0.224634   127A      0.229486  
     128A      0.234687   129A      0.235998   130A      0.242504  
     131A      0.244751   132A      0.249130   133A      0.253529  
     134A      0.255097   135A      0.261776   136A      0.266522  
     137A      0.269532   138A      0.274159   139A      0.281494  
     140A      0.282656   141A      0.284871   142A      0.292500  
     143A      0.294405   144A      0.299558   145A      0.305217  
     146A      0.312823   147A      0.316072   148A      0.320248  
     149A      0.322561   150A      0.323467   151A      0.328365  
     152A      0.329418   153A      0.332767   154A      0.338041  
     155A      0.342868   156A      0.343367   157A      0.346466  
     158A      0.349021   159A      0.352538   160A      0.354465  
     161A      0.361155   162A      0.364121   163A      0.370826  
     164A      0.371583   165A      0.373526   166A      0.379176  
     167A      0.380203   168A      0.381399   169A      0.390180  
     170A      0.390682   171A      0.392778   172A      0.402466  
     173A      0.403124   174A      0.406919   175A      0.408854  
     176A      0.413779   177A      0.418593   178A      0.423228  
     179A      0.425180   180A      0.428665   181A      0.431767  
     182A      0.436290   183A      0.439613   184A      0.445742  
     185A      0.450902   186A      0.455170   187A      0.459994  
     188A      0.466626   189A      0.470457   190A      0.475880  
     191A      0.480703   192A      0.481263   193A      0.488865  
[...]
	 D(1,2,10,13)     =         3.126845	     179.155028
	 D(1,8,9,3)       =         0.514870	      29.499869
	 D(1,8,9,4)       =        -2.612124	    -149.663666
	 D(1,8,11,5)      =        -0.012325	      -0.706177
	 D(1,8,11,14)     =        -3.106351	    -177.980817
	 D(2,1,8,9)       =         3.136691	     179.719183
	 D(2,1,8,11)      =        -0.009053	      -0.518683
	 D(2,10,5,11)     =        -0.001283	      -0.073489
	 D(2,10,5,19)     =         3.124010	     178.992608
	 D(2,10,13,23)    =         2.882197	     165.137728
	 D(3,6,12,7)      =         0.000674	       0.038612
	 D(3,6,12,22)     =        -3.137028	    -179.738482
	 D(3,9,4,7)       =        -0.004346	      -0.248990
	 D(3,9,4,18)      =        -3.122974	    -178.933223
	 D(3,9,8,11)      =        -2.622299	    -150.246683
	 D(4,7,12,6)      =        -0.002066	      -0.118372
	 D(4,7,12,22)     =         3.135637	     179.658744
	 D(4,9,3,6)       =         0.002974	       0.170408
	 D(4,9,3,17)      =        -3.103878	    -177.839117
	 D(4,9,8,11)      =         0.533892	      30.589782
	 D(5,10,2,16)     =         3.115145	     178.484634
	 D(5,10,13,23)    =        -0.254790	     -14.598366
	 D(5,11,8,9)      =         3.125029	     179.050974
	 D(6,3,9,8)       =        -3.124850	    -179.040737
	 D(6,12,7,21)     =         3.131412	     179.416711
	 D(7,4,9,8)       =         3.123118	     178.941499
	 D(7,12,6,20)     =         3.129157	     179.287511
	 D(8,1,2,10)      =         0.024637	       1.411585
	 D(8,1,2,16)      =        -3.109535	    -178.163225
	 D(8,9,3,17)      =         0.051483	       2.949737
	 D(8,9,4,18)      =         0.004490	       0.257267
	 D(8,11,5,10)     =         0.017445	       0.999509
	 D(8,11,5,19)     =        -3.108319	    -178.093554
	 D(9,3,6,12)      =        -0.001187	      -0.068016
	 D(9,3,6,20)      =        -3.128754	    -179.264420
	 D(9,4,7,12)      =         0.003962	       0.226998
	 D(9,4,7,21)      =        -3.128965	    -179.276488
	 D(9,8,1,15)      =         0.054749	       3.136861
	 D(9,8,11,14)     =         0.031003	       1.776334
	 D(10,2,1,15)     =         3.106980	     178.016869
	 D(10,5,11,14)    =         3.112231	     178.317704
	 D(11,5,10,13)    =         3.135580	     179.655491
	 D(11,8,1,15)     =        -3.090996	    -177.101006
	 D(12,6,3,17)     =         3.106499	     177.989301
	 D(12,7,4,18)     =         3.123188	     178.945508
	 D(13,10,2,16)    =        -0.022002	      -1.260639
	 D(13,10,5,19)    =        -0.022313	      -1.278413
	 D(14,11,5,19)    =        -0.013533	      -0.775359
	 D(15,1,2,16)     =        -0.027191	      -1.557942
	 D(17,3,6,20)     =        -0.021068	      -1.207102
	 D(18,4,7,21)     =        -0.009739	      -0.557978
	 D(20,6,12,22)    =        -0.008545	      -0.489583
	 D(21,7,12,22)    =        -0.014070	      -0.806173
	 R(4,14)          =         5.220543	       2.762592

	Current energy   :      -653.2505883471

	Energy change for the previous step:
		Projected    :         0.0000018276
		Actual       :         0.0000002277

	Performing BFGS update.
	Previous computed or guess Hessian on step 1.
	Steps to be used in Hessian update: 15 14
	Adding user-defined constraint: Fragment 1; Coordinate 72:
		Value =     2.882197; Fixed value    =     2.879790
		Force =    -0.002106; Force constant =     0.875000
	Removing off-diagonal coupling between coordinate 72 and others.
	Taking RFO optimization step.
	Going to follow RFO solution 1.
	Rejecting RFO root 1 because normalization gives large value.
	Using RFO vector 2.
	Norm of target step-size    0.00281
	Projected energy change by RFO approximation:        -0.0000000280

	Back-transformation to cartesian coordinates...
	Successfully converged to displaced geometry.

	--- Internal Coordinate Step in ANG or DEG, aJ/ANG or AJ/DEG ---
	 ---------------------------------------------------------------------------
	   Coordinate                Previous        Force       Change         New 
	   ----------                --------       ------       ------       ------
	    1 R(1,2)          =      1.374715     0.000053     0.000020     1.374735
	    2 R(1,8)          =      1.402747     0.000286     0.000032     1.402779
	    3 R(1,15)         =      1.079254     0.000164     0.000043     1.079297
	    4 R(2,10)         =      1.394309     0.000309     0.000068     1.394376
	    5 R(2,16)         =      1.077828     0.000187     0.000045     1.077874
	    6 R(3,6)          =      1.371718     0.000052     0.000010     1.371728
	    7 R(3,9)          =      1.401637     0.000325     0.000046     1.401683
	    8 R(3,17)         =      1.077375     0.000211     0.000052     1.077428
	    9 R(4,7)          =      1.372544    -0.000038    -0.000013     1.372531
	   10 R(4,9)          =      1.402133     0.000172     0.000048     1.402180
	   11 R(4,18)         =      1.075480     0.000246     0.000034     1.075514
	   12 R(5,10)         =      1.389755     0.000261     0.000077     1.389833
	   13 R(5,11)         =      1.374347     0.000030    -0.000019     1.374328
	   14 R(5,19)         =      1.078921     0.000219     0.000052     1.078973
	   15 R(6,12)         =      1.342812     0.000485     0.000079     1.342891
	   16 R(6,20)         =      1.077121     0.000157     0.000041     1.077161
	   17 R(7,12)         =      1.342642     0.000401     0.000088     1.342730
	   18 R(7,21)         =      1.077139     0.000158     0.000040     1.077179
	   19 R(8,9)          =      1.444602    -0.000213    -0.000092     1.444511
	   20 R(8,11)         =      1.394047     0.000229     0.000028     1.394075
	   21 R(10,13)        =      1.342490    -0.000081    -0.000013     1.342477
	   22 R(11,14)        =      1.344079     0.000157     0.000051     1.344130
	   23 R(12,22)        =      1.011883     0.000003    -0.000003     1.011880
	   24 R(13,23)        =      0.963739     0.000305     0.000055     0.963795
	   25 B(1,2,10)       =    119.830076    -0.000001    -0.002493   119.827583
	   26 B(1,2,16)       =    121.204113    -0.000000     0.000322   121.204435
	   27 B(1,8,9)        =    120.856209    -0.000001     0.011876   120.868085
	   28 B(1,8,11)       =    116.372694     0.000001     0.008788   116.381481
	   29 B(2,1,8)        =    121.874902     0.000000    -0.006151   121.868750
	   30 B(2,1,15)       =    118.671864     0.000000     0.012900   118.684765
	   31 B(2,10,5)       =    119.834850     0.000000     0.006475   119.841325
	   32 B(2,10,13)      =    117.019700    -0.000000    -0.002879   117.016821
	   33 B(3,6,12)       =    119.362494    -0.000000    -0.000258   119.362237
	   34 B(3,6,20)       =    123.621104    -0.000000     0.000969   123.622073
	   35 B(3,9,4)        =    116.902743     0.000001     0.011278   116.914021
	   36 B(3,9,8)        =    120.340264    -0.000000     0.006955   120.347219
	   37 B(4,7,12)       =    119.673349    -0.000001    -0.002557   119.670793
	   38 B(4,7,21)       =    123.399176    -0.000000     0.002943   123.402120
	   39 B(4,9,8)        =    122.752024    -0.000001    -0.018468   122.733556
	   40 B(5,10,13)      =    123.144928    -0.000000    -0.003644   123.141284
	   41 B(5,11,8)       =    123.096342    -0.000001    -0.000963   123.095379
	   42 B(5,11,14)      =    117.573132     0.000000     0.013234   117.586366
	   43 B(6,3,9)        =    120.983727    -0.000001    -0.007857   120.975870
	   44 B(6,3,17)       =    118.263493     0.000000     0.010269   118.273762
	   45 B(6,12,7)       =    122.448023     0.000000     0.004119   122.452142
	   46 B(6,12,22)      =    118.780787    -0.000000    -0.002202   118.778585
	   47 B(7,4,9)        =    120.629202     0.000000    -0.004735   120.624466
	   48 B(7,4,18)       =    118.352719     0.000001     0.011242   118.363961
	   49 B(7,12,22)      =    118.770824    -0.000000    -0.001895   118.768929
	   50 B(8,1,15)       =    119.367244    -0.000000    -0.007039   119.360206
	   51 B(8,11,14)      =    119.277089     0.000000    -0.012213   119.264876
	   52 B(9,3,17)       =    120.723848     0.000001    -0.002636   120.721213
	   53 B(9,4,18)       =    121.005418    -0.000001    -0.006826   120.998593
	   54 B(9,8,11)       =    122.770646     0.000000    -0.020663   122.749983
	   55 B(10,2,16)      =    118.964474     0.000001     0.002143   118.966617
	   56 B(10,5,11)      =    118.973022     0.000000    -0.005804   118.967218
	   57 B(10,5,19)      =    121.934147     0.000000     0.000702   121.934849
	   58 B(10,13,23)     =    110.875687     0.000000     0.000209   110.875895
	   59 B(11,5,19)      =    119.086364    -0.000001     0.005072   119.091436
	   60 B(12,6,20)      =    117.011811     0.000000    -0.000666   117.011144
	   61 B(12,7,21)      =    116.925724     0.000001    -0.000421   116.925303
	   62 D(1,2,10,5)     =     -1.099698    -0.000000    -0.017201    -1.116899
	   63 D(1,2,10,13)    =    179.155028     0.000000    -0.005694   179.149334
	   64 D(1,8,9,3)      =     29.499869     0.000000     0.034132    29.534001
	   65 D(1,8,9,4)      =   -149.663666     0.000000     0.053573  -149.610093
	   66 D(1,8,11,5)     =     -0.706177    -0.000000    -0.005136    -0.711314
	   67 D(1,8,11,14)    =   -177.980817    -0.000000    -0.006948  -177.987765
	   68 D(2,1,8,9)      =    179.719183     0.000000     0.004656   179.723840
	   69 D(2,1,8,11)     =     -0.518683     0.000000     0.004794    -0.513888
	   70 D(2,10,5,11)    =     -0.073489     0.000000     0.016798    -0.056690
	   71 D(2,10,5,19)    =    178.992608     0.000000     0.014662   179.007270
	   72 D(2,10,13,23)   =    165.137728    -0.000002    -0.016236   165.121492
	   73 D(3,6,12,7)     =      0.038612    -0.000000    -0.004967     0.033646
	   74 D(3,6,12,22)    =   -179.738482    -0.000000    -0.011744  -179.750226
	   75 D(3,9,4,7)      =     -0.248990    -0.000000    -0.002703    -0.251693
	   76 D(3,9,4,18)     =   -178.933223    -0.000000     0.013596  -178.919627
	   77 D(3,9,8,11)     =   -150.246683    -0.000000     0.033906  -150.212777
	   78 D(4,7,12,6)     =     -0.118372     0.000000    -0.002896    -0.121268
	   79 D(4,7,12,22)    =    179.658744     0.000000     0.003880   179.662624
	   80 D(4,9,3,6)      =      0.170408     0.000000    -0.005156     0.165252
	   81 D(4,9,3,17)     =   -177.839117     0.000000     0.002306  -177.836811
	   82 D(4,9,8,11)     =     30.589782    -0.000000     0.053348    30.643130
	   83 D(5,10,2,16)    =    178.484634    -0.000000    -0.021505   178.463129
	   84 D(5,10,13,23)   =    -14.598366    -0.000002    -0.004344   -14.602710
	   85 D(5,11,8,9)     =    179.050974    -0.000000    -0.004909   179.046065
	   86 D(6,3,9,8)      =   -179.040737     0.000000     0.013426  -179.027311
	   87 D(6,12,7,21)    =    179.416711    -0.000000    -0.007429   179.409282
	   88 D(7,4,9,8)      =    178.941499    -0.000000    -0.021541   178.919958
	   89 D(7,12,6,20)    =    179.287511    -0.000000    -0.001291   179.286220
	   90 D(8,1,2,10)     =      1.411585     0.000000     0.006095     1.417680
	   91 D(8,1,2,16)     =   -178.163225     0.000000     0.010491  -178.152735
	   92 D(8,9,3,17)     =      2.949737     0.000000     0.020889     2.970625
	   93 D(8,9,4,18)     =      0.257267    -0.000000    -0.005243     0.252024
	   94 D(8,11,5,10)    =      0.999509    -0.000000    -0.005655     0.993854
	   95 D(8,11,5,19)    =   -178.093554    -0.000000    -0.003542  -178.097096
	   96 D(9,3,6,12)     =     -0.068016     0.000000     0.009033    -0.058983
	   97 D(9,3,6,20)     =   -179.264420     0.000000     0.005114  -179.259305
	   98 D(9,4,7,12)     =      0.226998     0.000000     0.006711     0.233709
	   99 D(9,4,7,21)     =   -179.276488     0.000000     0.011571  -179.264916
	  100 D(9,8,1,15)     =      3.136861     0.000000     0.009964     3.146824
	  101 D(9,8,11,14)    =      1.776334    -0.000000    -0.006721     1.769613
	  102 D(10,2,1,15)    =    178.016869     0.000000     0.000169   178.017038
	  103 D(10,5,11,14)   =    178.317704    -0.000000    -0.004516   178.313188
	  104 D(11,5,10,13)   =    179.655491    -0.000000     0.004561   179.660051
	  105 D(11,8,1,15)    =   -177.101006     0.000000     0.010102  -177.090904
	  106 D(12,6,3,17)    =    177.989301    -0.000000     0.001509   177.990810
	  107 D(12,7,4,18)    =    178.945508    -0.000000    -0.009393   178.936115
	  108 D(13,10,2,16)   =     -1.260639     0.000000    -0.009999    -1.270638
	  109 D(13,10,5,19)   =     -1.278413    -0.000000     0.002424    -1.275989
	  110 D(14,11,5,19)   =     -0.775359    -0.000000    -0.002403    -0.777762
	  111 D(15,1,2,16)    =     -1.557942     0.000000     0.004565    -1.553377
	  112 D(17,3,6,20)    =     -1.207102    -0.000000    -0.002410    -1.209512
	  113 D(18,4,7,21)    =     -0.557978     0.000000    -0.004533    -0.562510
	  114 D(20,6,12,22)   =     -0.489583    -0.000000    -0.008069    -0.497652
	  115 D(21,7,12,22)   =     -0.806173    -0.000000    -0.000653    -0.806826
	  116 R(4,14)         =      2.762592    -0.000097    -0.000951     2.761641
	 ---------------------------------------------------------------------------
	Successfully symmetrized geometry.
	 Forces used to impose fixed constraints are not included.
	  Forces zeroed: 72 

  ==> Convergence Check <==

  Measures of convergence in internal coordinates in au.
  Criteria marked as inactive (o), active & met (*), and active & unmet ( ).
  ---------------------------------------------------------------------------------------------
   Step     Total Energy     Delta E     MAX Force     RMS Force      MAX Disp      RMS Disp   
  ---------------------------------------------------------------------------------------------
    Convergence Criteria    1.00e-06 *    3.00e-04 *             o    1.20e-03 *             o
  ---------------------------------------------------------------------------------------------
     16    -653.25058835    2.28e-07 *    9.23e-05 *    1.68e-05 o    1.80e-03      2.61e-04 o  ~
  ---------------------------------------------------------------------------------------------


  **** Optimization is complete! (in 16 steps) ****

  ==> Optimization Summary <==

  Measures of convergence in internal coordinates in au.
  --------------------------------------------------------------------------------------------------------------- ~
   Step         Total Energy             Delta E       MAX Force       RMS Force        MAX Disp        RMS Disp  ~
  --------------------------------------------------------------------------------------------------------------- ~
      1    -653.242286221570   -653.242286221570      0.01605131      0.00435042      0.02912950      0.00927666  ~
      2    -653.245352021383     -0.003065799813      0.00490200      0.00163705      0.04072631      0.00926690  ~
      3    -653.246427522530     -0.001075501147      0.00300977      0.00074294      0.04801112      0.00925250  ~
      4    -653.247089106158     -0.000661583628      0.00292458      0.00059894      0.04812827      0.00924522  ~
      5    -653.247689330703     -0.000600224545      0.00278392      0.00055908      0.04754844      0.00923693  ~
      6    -653.248250770307     -0.000561439604      0.00256063      0.00053669      0.04641519      0.00923195  ~
      7    -653.248775129024     -0.000524358717      0.00228451      0.00049606      0.04497473      0.00922829  ~
      8    -653.249251115600     -0.000475986577      0.00218524      0.00043986      0.04648608      0.00922634  ~
      9    -653.249667286878     -0.000416171278      0.00199186      0.00037935      0.04899680      0.00922485  ~
     10    -653.250015280329     -0.000347993450      0.00167197      0.00031401      0.05025713      0.00922412  ~
     11    -653.250287174033     -0.000271893704      0.00121840      0.00024592      0.04944726      0.00922377  ~
     12    -653.250475559146     -0.000188385114      0.00072263      0.00017906      0.04576819      0.00922503  ~
     13    -653.250575240898     -0.000099681752      0.00072409      0.00013207      0.02847481      0.00572697  ~
     14    -653.250591288545     -0.000016047647      0.00050737      0.00007529      0.00401073      0.00048069  ~
     15    -653.250588574821      0.000002713724      0.00014661      0.00002235      0.00271548      0.00048147  ~
     16    -653.250588347104      0.000000227717      0.00013047      0.00002074      0.00179739      0.00026127  ~
  --------------------------------------------------------------------------------------------------------------- ~

	Writing optimization data to binary file.
	Final energy is   -653.2505883471041
	Final (previous) structure:
	Cartesian Geometry (in Angstrom)
	    C    -1.1465859480   1.0576245282  -0.6968731720
	    C    -2.2130359484   1.6349695321  -0.0494176098
	    C     1.4461552293   0.2589476607  -1.8221716760
	    C     1.3726052550  -1.6629732601  -0.4044756141
	    C    -1.5543451192   0.5412799449   1.9935095560
	    C     2.4883113707  -0.3066494319  -2.5118250309
	    C     2.4153414751  -2.2009847772  -1.1166002110
	    C    -0.2596045434   0.1933938044  -0.0380339784
	    C     0.8506536509  -0.4060180892  -0.7415312579
	    C    -2.4169206333   1.3879966817   1.3076129116
	    C    -0.5113830679  -0.0401318573   1.3130541117
	    N     2.9433782074  -1.5149169919  -2.1428438457
	    O    -3.4651920178   1.9942944920   1.8871030930
	    F     0.3256538810  -0.8264767307   2.0113231467
	    H    -1.0249158347   1.2353593521  -1.7544157967
	    H    -2.9047892775   2.2743059309  -0.5732880728
	    H     1.1167711896   1.2428970910  -2.1121492189
	    H     0.9545518240  -2.2381989004   0.4023722000
	    H    -1.6709572268   0.3390853521   3.0468797954
	    H     2.9842026127   0.1708000320  -3.3402712908
	    H     2.8429489751  -3.1664522401  -0.9038708305
	    H     3.7151291866  -1.9221385722  -2.6551698177
	    H    -3.6634232942   1.5952188304   2.7416420148
	Saving final (previous) structure.
			--------------------------
			 OPTKING Finished Execution 
			--------------------------

    Final optimized geometry and variables:
    Molecular point group: c1
    Full point group: C1

    Geometry (in Angstrom), charge = 1, multiplicity = 1:

    C           -1.146585948017     1.057624528208    -0.696873172045
    C           -2.213035948410     1.634969532069    -0.049417609761
    C            1.446155229291     0.258947660705    -1.822171675984
    C            1.372605254993    -1.662973260096    -0.404475614103
    C           -1.554345119189     0.541279944922     1.993509555992
    C            2.488311370671    -0.306649431895    -2.511825030926
    C            2.415341475133    -2.200984777191    -1.116600210996
    C           -0.259604543404     0.193393804394    -0.038033978439
    C            0.850653650910    -0.406018089173    -0.741531257883
    C           -2.416920633305     1.387996681739     1.307612911580
    C           -0.511383067860    -0.040131857275     1.313054111661
    N            2.943378207400    -1.514916991949    -2.142843845698
    O           -3.465192017759     1.994294492027     1.887103092998
    F            0.325653880999    -0.826476730746     2.011323146707
    H           -1.024915834712     1.235359352089    -1.754415796671
    H           -2.904789277477     2.274305930925    -0.573288072789
    H            1.116771189568     1.242897091044    -2.112149218859
    H            0.954551824003    -2.238198900449     0.402372199956
    H           -1.670957226845     0.339085352081     3.046879795430
    H            2.984202612665     0.170800032008    -3.340271290783
    H            2.842948975119    -3.166452240104    -0.903870830467
    H            3.715129186644    -1.922138572250    -2.655169817706
    H           -3.663423294161     1.595218830351     2.741642014806

	Cleaning optimization helper files.

*** Psi4 exiting successfully. Buy a developer a beer!
