
    -----------------------------------------------------------------------
          Psi4: An Open-Source Ab Initio Electronic Structure Package
                               Psi4 1.1 release

                         Git: Rev {HEAD} add49b9 


    R. M. Parrish, L. A. Burns, D. G. A. Smith, A. C. Simmonett,
    A. E. DePrince III, E. G. Hohenstein, U. Bozkaya, A. Yu. Sokolov,
    R. Di Remigio, R. M. Richard, J. F. Gonthier, A. M. James,
    H. R. McAlexander, A. Kumar, M. Saitow, X. Wang, B. P. Pritchard,
    P. Verma, H. F. Schaefer III, K. Patkowski, R. A. King, E. F. Valeev,
    F. A. Evangelista, J. M. Turney, T. D. Crawford, and C. D. Sherrill,
    J. Chem. Theory Comput. in press (2017).
    (doi: 10.1021/acs.jctc.7b00174)

    -----------------------------------------------------------------------


    Psi4 started on: Saturday, 11 November 2017 06:59PM

    Process ID:  28153
    PSIDATADIR: /cbio/jclab/home/chayas/anaconda/envs/py35/share/psi4
    Memory:     500.0 MiB
    Threads:    8
    
  ==> Input File <==

--------------------------------------------------------------------------

memory 5 Gb

molecule phepyrFOH_cation {
  symmetry C1
  1 1 
  C      1.885   -1.036   -0.112
  C      0.807   -0.463   0.561
  C      4.830   -1.443   -0.930
  C      4.321   -3.578   0.063
  C      1.800   -1.079   2.676
  C      5.894   -2.040   -1.592
  C      5.398   -4.120   -0.624
  C      2.921   -1.631   0.608
  C      4.038   -2.225   -0.095
  C      0.764   -0.484   1.955
  C      2.878   -1.652   2.002
  N      6.144   -3.345   -1.422
  O      -0.289   0.076   2.612
  F      3.866   -2.220   2.709
  H      1.904   -1.012   -1.199
  H      0.002   -0.002   -0.006
  H      4.632   -0.385   -1.072
  H      3.719   -4.212   0.708
  H      1.772   -1.099   3.762
  H      6.561   -1.511   -2.259
  H      5.691   -5.159   -0.561
  H      6.930   -3.764   -1.918
  H      -0.502   0.941   2.229
  units Angstrom
}

dih_string = "2 10 13 23 315"
set optking fixed_dihedral = $dih_string

optimize('MP2/aug-cc-PVTZ')
--------------------------------------------------------------------------

  Memory set to   4.657 GiB by Python driver.
gradient() will perform analytic gradient computation.

*** tstart() called on gpu-1-15.local
*** at Sat Nov 11 18:59:18 2017

    SCF Algorithm Type (re)set to DF.

*** tstart() called on gpu-1-15.local
*** at Sat Nov 11 18:59:18 2017

   => Loading Basis Set <=

    Name: AUG-CC-PVTZ
    Role: ORBITAL
    Keyword: BASIS
    atoms 1-11  entry C          line   221 file /cbio/jclab/home/chayas/anaconda/envs/py35/share/psi4/basis/aug-cc-pvtz.gbs 
    atoms 12    entry N          line   267 file /cbio/jclab/home/chayas/anaconda/envs/py35/share/psi4/basis/aug-cc-pvtz.gbs 
    atoms 13    entry O          line   313 file /cbio/jclab/home/chayas/anaconda/envs/py35/share/psi4/basis/aug-cc-pvtz.gbs 
    atoms 14    entry F          line   359 file /cbio/jclab/home/chayas/anaconda/envs/py35/share/psi4/basis/aug-cc-pvtz.gbs 
    atoms 15-23 entry H          line    34 file /cbio/jclab/home/chayas/anaconda/envs/py35/share/psi4/basis/aug-cc-pvtz.gbs 


         ---------------------------------------------------------
                                   SCF
            by Justin Turney, Rob Parrish, and Andy Simmonett
                              RHF Reference
                        8 Threads,   4768 MiB Core
         ---------------------------------------------------------

  ==> Geometry <==

    Molecular point group: c1
    Full point group: C1

    Geometry (in Angstrom), charge = 1, multiplicity = 1:

       Center              X                  Y                   Z               Mass       
    ------------   -----------------  -----------------  -----------------  -----------------
           C         -1.336190796776     0.758857820663    -0.781020238728    12.000000000000
           C         -2.414190796776     1.331857820663    -0.108020238728    12.000000000000
           C          1.608809203224     0.351857820663    -1.599020238728    12.000000000000
           C          1.099809203224    -1.783142179337    -0.606020238728    12.000000000000
           C         -1.421190796776     0.715857820663     2.006979761272    12.000000000000
           C          2.672809203224    -0.245142179337    -2.261020238728    12.000000000000
           C          2.176809203224    -2.325142179337    -1.293020238728    12.000000000000
           C         -0.300190796776     0.163857820663    -0.061020238728    12.000000000000
           C          0.816809203224    -0.430142179337    -0.764020238728    12.000000000000
           C         -2.457190796776     1.310857820663     1.285979761272    12.000000000000
           C         -0.343190796776     0.142857820663     1.332979761272    12.000000000000
           N          2.922809203224    -1.550142179337    -2.091020238728    14.003074004780
           O         -3.510190796776     1.870857820663     1.942979761272    15.994914619560
           F          0.644809203224    -0.425142179337     2.039979761272    18.998403224000
           H         -1.317190796776     0.782857820663    -1.868020238728     1.007825032070
           H         -3.219190796776     1.792857820663    -0.675020238728     1.007825032070
           H          1.410809203224     1.409857820663    -1.741020238728     1.007825032070
           H          0.497809203224    -2.417142179337     0.038979761272     1.007825032070
           H         -1.449190796776     0.695857820663     3.092979761272     1.007825032070
           H          3.339809203224     0.283857820663    -2.928020238728     1.007825032070
           H          2.469809203224    -3.364142179337    -1.230020238728     1.007825032070
           H          3.708809203224    -1.969142179337    -2.587020238728     1.007825032070
           H         -3.723190796776     2.735857820663     1.559979761272     1.007825032070

  Running in c1 symmetry.

  Rotational constants: A =      0.06270  B =      0.01289  C =      0.01150 [cm^-1]
  Rotational constants: A =   1879.56876  B =    386.40798  C =    344.64877 [MHz]
  Nuclear repulsion =  829.292347649707722

  Charge       = 1
  Multiplicity = 1
  Electrons    = 98
  Nalpha       = 49
  Nbeta        = 49

  ==> Algorithm <==

  SCF Algorithm Type is DF.
  DIIS enabled.
  MOM disabled.
  Fractional occupation disabled.
  Guess Type is SAD.
  Energy threshold   = 1.00e-10
  Density threshold  = 1.00e-10
  Integral threshold = 0.00e+00

  ==> Primary Basis <==

  Basis Set: AUG-CC-PVTZ
    Blend: AUG-CC-PVTZ
    Number of shells: 277
    Number of basis function: 851
    Number of Cartesian functions: 995
    Spherical Harmonics?: true
    Max angular momentum: 3

   => Loading Basis Set <=

    Name: (AUG-CC-PVTZ AUX)
    Role: JKFIT
    Keyword: DF_BASIS_SCF
    atoms 1-11  entry C          line   161 file /cbio/jclab/home/chayas/anaconda/envs/py35/share/psi4/basis/aug-cc-pvtz-jkfit.gbs 
    atoms 12    entry N          line   223 file /cbio/jclab/home/chayas/anaconda/envs/py35/share/psi4/basis/aug-cc-pvtz-jkfit.gbs 
    atoms 13    entry O          line   285 file /cbio/jclab/home/chayas/anaconda/envs/py35/share/psi4/basis/aug-cc-pvtz-jkfit.gbs 
    atoms 14    entry F          line   347 file /cbio/jclab/home/chayas/anaconda/envs/py35/share/psi4/basis/aug-cc-pvtz-jkfit.gbs 
    atoms 15-23 entry H          line    69 file /cbio/jclab/home/chayas/anaconda/envs/py35/share/psi4/basis/aug-cc-pvtz-jkfit.gbs 

  ==> Pre-Iterations <==

   -------------------------------------------------------
    Irrep   Nso     Nmo     Nalpha   Nbeta   Ndocc  Nsocc
   -------------------------------------------------------
     A        851     851       0       0       0       0
   -------------------------------------------------------
    Total     851     851      49      49      49       0
   -------------------------------------------------------

  ==> Integral Setup <==

  ==> DFJK: Density-Fitted J/K Matrices <==

    J tasked:                  Yes
    K tasked:                  Yes
    wK tasked:                  No
    OpenMP threads:              8
    Integrals threads:           8
    Memory (MB):              3576
    Algorithm:                Disk
    Integral Cache:           NONE
    Schwarz Cutoff:          1E-12
    Fitting Condition:       1E-12

   => Auxiliary Basis Set <=

  Basis Set: (AUG-CC-PVTZ AUX)
    Blend: AUG-CC-PVTZ-JKFIT
    Number of shells: 546
    Number of basis function: 1870
    Number of Cartesian functions: 2329
    Spherical Harmonics?: true
    Max angular momentum: 4

  Minimum eigenvalue in the overlap matrix is 7.3436550849E-07.
  Using Symmetric Orthogonalization.

  SCF Guess: Superposition of Atomic Densities via on-the-fly atomic UHF.

  ==> Iterations <==

                           Total Energy        Delta E     RMS |[F,P]|

   @DF-RHF iter   0:  -652.68803684821967   -6.52688e+02   1.65806e-02 
   @DF-RHF iter   1:  -650.09698183279590    2.59106e+00   1.75973e-03 
   @DF-RHF iter   2:  -650.45300795777791   -3.56026e-01   8.88226e-04 DIIS
   @DF-RHF iter   3:  -650.53648592965044   -8.34780e-02   3.43084e-04 DIIS
   @DF-RHF iter   4:  -650.55389782101713   -1.74119e-02   1.28553e-04 DIIS
   @DF-RHF iter   5:  -650.55631254141610   -2.41472e-03   4.37333e-05 DIIS
   @DF-RHF iter   6:  -650.55674147251375   -4.28931e-04   1.62199e-05 DIIS
   @DF-RHF iter   7:  -650.55680858317385   -6.71107e-05   5.26523e-06 DIIS
   @DF-RHF iter   8:  -650.55681711751583   -8.53434e-06   1.63988e-06 DIIS
   @DF-RHF iter   9:  -650.55681836879251   -1.25128e-06   8.60835e-07 DIIS
   @DF-RHF iter  10:  -650.55681869769887   -3.28906e-07   3.91999e-07 DIIS
   @DF-RHF iter  11:  -650.55681877577797   -7.80791e-08   1.20635e-07 DIIS
   @DF-RHF iter  12:  -650.55681878174437   -5.96640e-09   5.31587e-08 DIIS
   @DF-RHF iter  13:  -650.55681878252005   -7.75685e-10   1.85068e-08 DIIS
   @DF-RHF iter  14:  -650.55681878264340   -1.23350e-10   6.43205e-09 DIIS
   @DF-RHF iter  15:  -650.55681878267353   -3.01270e-11   2.77821e-09 DIIS
   @DF-RHF iter  16:  -650.55681878268547   -1.19371e-11   1.18932e-09 DIIS
   @DF-RHF iter  17:  -650.55681878266705    1.84173e-11   5.26582e-10 DIIS
   @DF-RHF iter  18:  -650.55681878266091    6.13909e-12   2.47588e-10 DIIS
   @DF-RHF iter  19:  -650.55681878267478   -1.38698e-11   1.14090e-10 DIIS
   @DF-RHF iter  20:  -650.55681878268865   -1.38698e-11   4.39393e-11 DIIS

  ==> Post-Iterations <==

    Orbital Energies (a.u.)
    -----------------------

    Doubly Occupied:                                                      

       1A    -26.442492     2A    -20.696982     3A    -15.844464  
       4A    -11.491064     5A    -11.489368     6A    -11.466914  
       7A    -11.452612     8A    -11.433513     9A    -11.422976  
      10A    -11.421478    11A    -11.384395    12A    -11.380376  
      13A    -11.358702    14A    -11.356519    15A     -1.760628  
      16A     -1.519600    17A     -1.514393    18A     -1.326017  
      19A     -1.270684    20A     -1.243651    21A     -1.163591  
      22A     -1.151002    23A     -1.073653    24A     -1.061735  
      25A     -0.984420    26A     -0.970937    27A     -0.965720  
      28A     -0.888631    29A     -0.877851    30A     -0.867020  
      31A     -0.837093    32A     -0.827567    33A     -0.822197  
      34A     -0.804929    35A     -0.799469    36A     -0.781413  
      37A     -0.764322    38A     -0.747521    39A     -0.730216  
      40A     -0.717711    41A     -0.713485    42A     -0.671247  
      43A     -0.659957    44A     -0.631888    45A     -0.611506  
      46A     -0.579552    47A     -0.541283    48A     -0.468640  
      49A     -0.452129  

    Virtual:                                                              

      50A     -0.106371    51A     -0.087122    52A     -0.067937  
      53A     -0.064039    54A     -0.059061    55A     -0.050679  
      56A     -0.044130    57A     -0.038700    58A     -0.034686  
      59A     -0.030371    60A     -0.024557    61A     -0.019873  
      62A     -0.013166    63A     -0.009640    64A     -0.006507  
      65A     -0.005093    66A      0.001139    67A      0.007216  
      68A      0.008857    69A      0.011642    70A      0.014429  
      71A      0.017960    72A      0.023780    73A      0.025909  
      74A      0.030043    75A      0.033470    76A      0.034917  
      77A      0.039022    78A      0.040099    79A      0.044863  
      80A      0.046514    81A      0.048837    82A      0.053725  
      83A      0.060739    84A      0.063791    85A      0.068831  
      86A      0.073546    87A      0.074696    88A      0.078522  
      89A      0.082462    90A      0.088118    91A      0.092771  
      92A      0.094372    93A      0.101042    94A      0.106630  
      95A      0.111445    96A      0.116819    97A      0.118388  
      98A      0.122599    99A      0.128630   100A      0.133036  
     101A      0.135132   102A      0.138153   103A      0.142808  
     104A      0.143588   105A      0.146772   106A      0.153550  
     107A      0.157995   108A      0.160050   109A      0.163441  
     110A      0.169123   111A      0.169602   112A      0.171725  
     113A      0.179810   114A      0.181865   115A      0.186185  
     116A      0.188284   117A      0.194774   118A      0.195659  
     119A      0.198289   120A      0.202431   121A      0.206601  
     122A      0.210129   123A      0.213746   124A      0.221178  
     125A      0.222607   126A      0.225996   127A      0.230586  
     128A      0.233674   129A      0.234967   130A      0.237564  
     131A      0.243720   132A      0.250292   133A      0.252601  
     134A      0.255573   135A      0.259460   136A      0.266578  
     137A      0.268909   138A      0.273500   139A      0.278917  
     140A      0.282657   141A      0.283435   142A      0.291557  
     143A      0.296383   144A      0.300324   145A      0.304308  
     146A      0.310011   147A      0.315260   148A      0.319258  
     149A      0.320068   150A      0.322082   151A      0.324844  
     152A      0.327658   153A      0.333524   154A      0.335745  
     155A      0.337113   156A      0.343750   157A      0.346039  
     158A      0.349113   159A      0.350930   160A      0.353318  
     161A      0.359529   162A      0.368869   163A      0.369777  
     164A      0.370423   165A      0.373676   166A      0.377267  
     167A      0.380812   168A      0.383556   169A      0.388818  
     170A      0.394033   171A      0.396466   172A      0.398451  
     173A      0.402185   174A      0.406253   175A      0.410669  
     176A      0.413418   177A      0.417367   178A      0.420146  
     179A      0.422567   180A      0.425123   181A      0.430159  
     182A      0.434174   183A      0.442967   184A      0.446629  
     185A      0.449144   186A      0.452052   187A      0.461824  
     188A      0.467076   189A      0.472898   190A      0.473711  
     191A      0.480301   192A      0.486691   193A      0.487537  
     194A      0.492427   195A      0.501226   196A      0.506480  
     197A      0.516280   198A      0.520300   199A      0.526661  
     200A      0.530145   201A      0.537919   202A      0.541596  
     203A      0.548049   204A      0.559190   205A      0.561683  
     206A      0.566282   207A      0.568892   208A      0.572175  
     209A      0.578244   210A      0.585243   211A      0.592414  
     212A      0.595520   213A      0.602446   214A      0.603613  
     215A      0.606337   216A      0.611462   217A      0.615897  
     218A      0.618678   219A      0.623734   220A      0.626173  
     221A      0.637461   222A      0.641284   223A      0.644888  
     224A      0.657221   225A      0.662225   226A      0.673138  
     227A      0.678014   228A      0.684846   229A      0.692552  
     230A      0.699449   231A      0.700828   232A      0.706085  
     233A      0.715080   234A      0.720391   235A      0.721498  
     236A      0.727581   237A      0.739575   238A      0.742295  
     239A      0.743509   240A      0.747880   241A      0.755548  
     242A      0.759757   243A      0.762368   244A      0.767433  
     245A      0.774039   246A      0.777621   247A      0.782767  
     248A      0.784275   249A      0.785975   250A      0.792122  
     251A      0.797558   252A      0.803847   253A      0.806985  
     254A      0.808921   255A      0.816300   256A      0.817657  
     257A      0.825689   258A      0.830283   259A      0.833257  
     260A      0.842449   261A      0.846974   262A      0.849277  
     263A      0.850141   264A      0.855629   265A      0.864922  
     266A      0.866639   267A      0.875434   268A      0.879736  
     269A      0.883144   270A      0.888247   271A      0.893478  
     272A      0.896180   273A      0.903543   274A      0.907847  
     275A      0.913921   276A      0.919130   277A      0.923219  
     278A      0.926452   279A      0.927099   280A      0.932947  
     281A      0.933595   282A      0.941407   283A      0.944182  
     284A      0.946618   285A      0.955507   286A      0.960643  
     287A      0.965821   288A      0.969334   289A      0.974914  
     290A      0.977585   291A      0.981840   292A      0.988722  
     293A      0.989884   294A      0.993496   295A      0.995027  
     296A      0.997994   297A      1.002459   298A      1.009198  
     299A      1.014843   300A      1.017545   301A      1.020667  
     302A      1.024801   303A      1.029354   304A      1.038626  
     305A      1.045300   306A      1.048829   307A      1.056198  
     308A      1.061051   309A      1.067057   310A      1.068961  
     311A      1.073055   312A      1.075995   313A      1.082098  
     314A      1.084346   315A      1.092144   316A      1.096918  
     317A      1.101134   318A      1.112401   319A      1.119063  
     320A      1.120654   321A      1.124375   322A      1.128269  
     323A      1.131721   324A      1.139103   325A      1.142313  
     326A      1.147370   327A      1.156629   328A      1.162419  
     329A      1.170197   330A      1.171931   331A      1.182990  
     332A      1.191802   333A      1.196410   334A      1.203444  
     335A      1.211665   336A      1.218384   337A      1.225596  
     338A      1.233186   339A      1.241088   340A      1.245276  
     341A      1.250571   342A      1.257056   343A      1.259371  
     344A      1.266479   345A      1.270193   346A      1.272447  
     347A      1.280571   348A      1.284533   349A      1.295662  
     350A      1.297426   351A      1.302841   352A      1.314654  
     353A      1.316120   354A      1.324417   355A      1.331339  
     356A      1.333628   357A      1.343840   358A      1.347993  
     359A      1.357395   360A      1.359227   361A      1.373826  
     362A      1.382687   363A      1.387381   364A      1.393694  
     365A      1.398155   366A      1.406026   367A      1.415710  
     368A      1.428663   369A      1.430841   370A      1.438708  
     371A      1.444107   372A      1.450887   373A      1.462142  
     374A      1.466148   375A      1.471843   376A      1.488330  
     377A      1.493155   378A      1.497712   379A      1.506898  
     380A      1.509845   381A      1.518245   382A      1.524474  
     383A      1.527488   384A      1.535711   385A      1.539503  
     386A      1.545459   387A      1.554542   388A      1.556865  
     389A      1.570139   390A      1.571755   391A      1.585536  
     392A      1.598951   393A      1.599411   394A      1.615738  
     395A      1.619881   396A      1.623615   397A      1.635752  
     398A      1.640869   399A      1.645722   400A      1.657389  
     401A      1.671057   402A      1.677863   403A      1.682588  
     404A      1.685251   405A      1.695744   406A      1.708492  
     407A      1.718811   408A      1.726920   409A      1.730637  
     410A      1.737275   411A      1.745178   412A      1.745883  
     413A      1.756546   414A      1.765976   415A      1.773667  
     416A      1.779733   417A      1.785491   418A      1.801894  
     419A      1.806894   420A      1.809091   421A      1.813237  
     422A      1.823654   423A      1.825925   424A      1.839762  
     425A      1.848163   426A      1.849598   427A      1.854853  
     428A      1.855441   429A      1.870560   430A      1.883503  
     431A      1.892062   432A      1.894955   433A      1.905159  
     434A      1.911959   435A      1.918190   436A      1.924322  
     437A      1.930738   438A      1.939736   439A      1.947588  
     440A      1.955303   441A      1.961414   442A      1.971968  
     443A      1.983810   444A      1.986141   445A      1.993397  
     446A      2.001038   447A      2.022523   448A      2.026503  
     449A      2.032068   450A      2.045113   451A      2.048411  
     452A      2.056347   453A      2.064242   454A      2.073193  
     455A      2.074829   456A      2.082374   457A      2.091677  
     458A      2.110488   459A      2.117353   460A      2.124168  
     461A      2.133556   462A      2.144519   463A      2.159202  
     464A      2.165267   465A      2.175278   466A      2.183988  
     467A      2.192229   468A      2.202316   469A      2.220811  
     470A      2.223822   471A      2.229787   472A      2.235476  
     473A      2.253287   474A      2.259765   475A      2.265370  
     476A      2.273927   477A      2.292656   478A      2.302932  
     479A      2.308765   480A      2.320489   481A      2.330550  
     482A      2.340845   483A      2.347085   484A      2.369130  
     485A      2.378369   486A      2.386252   487A      2.391323  
     488A      2.401517   489A      2.404811   490A      2.414758  
     491A      2.423887   492A      2.427184   493A      2.462842  
     494A      2.472073   495A      2.488480   496A      2.506975  
     497A      2.525156   498A      2.530637   499A      2.537194  
     500A      2.558168   501A      2.566194   502A      2.575623  
     503A      2.587930   504A      2.597040   505A      2.601292  
     506A      2.615305   507A      2.633935   508A      2.639259  
     509A      2.652091   510A      2.668429   511A      2.706421  
     512A      2.720809   513A      2.749614   514A      2.753279  
     515A      2.773351   516A      2.780327   517A      2.800480  
     518A      2.824955   519A      2.848210   520A      2.861556  
     521A      2.898494   522A      2.911016   523A      2.925849  
     524A      2.934472   525A      2.947036   526A      2.947192  
     527A      2.972917   528A      2.978111   529A      2.992134  
     530A      3.003663   531A      3.026739   532A      3.037835  
     533A      3.042222   534A      3.059822   535A      3.067596  
     536A      3.080612   537A      3.103644   538A      3.109797  
     539A      3.116878   540A      3.136761   541A      3.140984  
     542A      3.154611   543A      3.163799   544A      3.184470  
     545A      3.196734   546A      3.212653   547A      3.216194  
     548A      3.224774   549A      3.240008   550A      3.246423  
     551A      3.262748   552A      3.269431   553A      3.274830  
     554A      3.286647   555A      3.296019   556A      3.301666  
     557A      3.310825   558A      3.319910   559A      3.332523  
     560A      3.336432   561A      3.355312   562A      3.367718  
     563A      3.369790   564A      3.375096   565A      3.381351  
     566A      3.387400   567A      3.391831   568A      3.402615  
     569A      3.412970   570A      3.418646   571A      3.432499  
     572A      3.441004   573A      3.442894   574A      3.448331  
     575A      3.459608   576A      3.468314   577A      3.483193  
     578A      3.491868   579A      3.502399   580A      3.507444  
     581A      3.521608   582A      3.536835   583A      3.539336  
     584A      3.543699   585A      3.555032   586A      3.558714  
     587A      3.572443   588A      3.586799   589A      3.589733  
     590A      3.603965   591A      3.617453   592A      3.619304  
     593A      3.623713   594A      3.642931   595A      3.648929  
     596A      3.653871   597A      3.660507   598A      3.674585  
     599A      3.681205   600A      3.690725   601A      3.702875  
     602A      3.707656   603A      3.713701   604A      3.720254  
     605A      3.730672   606A      3.740250   607A      3.742156  
     608A      3.752224   609A      3.759115   610A      3.772180  
     611A      3.775255   612A      3.790769   613A      3.791226  
     614A      3.804338   615A      3.814789   616A      3.821984  
     617A      3.830411   618A      3.840567   619A      3.842148  
     620A      3.857206   621A      3.861821   622A      3.865577  
     623A      3.876351   624A      3.884353   625A      3.894634  
     626A      3.898095   627A      3.903585   628A      3.905426  
     629A      3.929448   630A      3.937446   631A      3.950736  
     632A      3.953014   633A      3.974793   634A      3.978250  
     635A      3.983953   636A      3.995137   637A      3.999576  
     638A      4.013372   639A      4.024064   640A      4.032324  
     641A      4.037694   642A      4.050685   643A      4.059251  
     644A      4.067508   645A      4.075555   646A      4.082649  
     647A      4.096815   648A      4.097779   649A      4.110834  
     650A      4.117571   651A      4.118237   652A      4.136200  
     653A      4.145223   654A      4.152658   655A      4.170610  
     656A      4.179497   657A      4.188128   658A      4.194673  
     659A      4.202864   660A      4.207755   661A      4.217250  
     662A      4.226077   663A      4.235140   664A      4.242786  
     665A      4.250910   666A      4.253106   667A      4.261058  
     668A      4.269012   669A      4.289751   670A      4.293806  
     671A      4.298763   672A      4.308814   673A      4.316620  
     674A      4.317498   675A      4.338040   676A      4.355147  
     677A      4.361984   678A      4.367230   679A      4.373893  
     680A      4.384850   681A      4.391800   682A      4.415070  
     683A      4.426846   684A      4.431464   685A      4.439776  
     686A      4.448315   687A      4.467407   688A      4.474410  
     689A      4.482990   690A      4.487588   691A      4.511723  
     692A      4.520682   693A      4.532236   694A      4.557726  
     695A      4.576960   696A      4.593916   697A      4.600885  
     698A      4.613171   699A      4.627842   700A      4.636076  
     701A      4.638918   702A      4.648035   703A      4.662108  
     704A      4.678686   705A      4.697993   706A      4.706977  
     707A      4.720319   708A      4.735212   709A      4.744246  
     710A      4.756136   711A      4.763779   712A      4.771750  
     713A      4.796396   714A      4.808201   715A      4.817064  
     716A      4.826865   717A      4.830356   718A      4.849052  
     719A      4.849965   720A      4.867299   721A      4.894479  
     722A      4.901320   723A      4.911146   724A      4.915236  
     725A      4.926943   726A      4.936256   727A      4.941024  
     728A      4.953516   729A      4.963184   730A      4.985184  
     731A      5.007350   732A      5.013975   733A      5.023096  
     734A      5.032057   735A      5.039765   736A      5.053430  
     737A      5.061779   738A      5.065006   739A      5.072417  
     740A      5.097245   741A      5.110533   742A      5.141375  
     743A      5.165320   744A      5.173275   745A      5.193995  
     746A      5.204277   747A      5.212011   748A      5.221406  
     749A      5.233330   750A      5.255016   751A      5.267285  
     752A      5.273501   753A      5.307675   754A      5.318553  
     755A      5.350179   756A      5.362504   757A      5.378835  
     758A      5.383838   759A      5.403731   760A      5.435794  
     761A      5.448327   762A      5.476984   763A      5.505026  
     764A      5.513967   765A      5.530908   766A      5.556301  
     767A      5.588036   768A      5.600173   769A      5.604997  
     770A      5.622516   771A      5.637709   772A      5.661576  
     773A      5.690981   774A      5.693974   775A      5.709404  
     776A      5.740745   777A      5.775646   778A      5.827720  
     779A      5.833058   780A      5.881085   781A      5.914203  
     782A      5.928257   783A      5.972714   784A      5.980827  
     785A      6.008801   786A      6.056489   787A      6.093281  
     788A      6.128302   789A      6.151534   790A      6.173426  
     791A      6.197592   792A      6.217089   793A      6.266010  
     794A      6.337018   795A      6.346837   796A      6.403247  
     797A      6.422620   798A      6.463459   799A      6.514209  
     800A      6.558110   801A      6.571900   802A      6.617758  
     803A      6.651479   804A      6.710404   805A      6.742944  
     806A      6.815482   807A      6.824915   808A      6.832515  
     809A      6.839374   810A      6.908379   811A      6.965277  
     812A      7.013769   813A      7.150618   814A      7.203788  
     815A      7.295224   816A      7.329741   817A      7.434619  
     818A      7.445473   819A      7.521865   820A      7.538514  
     821A      7.568819   822A      7.695942   823A      7.819645  
     824A      8.185586   825A      8.500713   826A      8.890183  
     827A      8.931272   828A      9.153136   829A      9.174116  
     830A      9.291286   831A      9.403168   832A      9.424551  
     833A      9.473491   834A      9.527658   835A      9.601733  
     836A      9.914484   837A      9.961523   838A     15.831046  
     839A     16.048293   840A     16.456238   841A     16.503382  
     842A     16.841433   843A     16.867811   844A     18.722523  
     845A     19.117416   846A     19.512149   847A     19.624835  
     848A     20.063838   849A     20.139784   850A     20.362595  
     851A     21.684783  

    Final Occupation by Irrep:
              A 
    DOCC [    49 ]

  Energy converged.

  @DF-RHF Final Energy:  -650.55681878268865

   => Energetics <=

    Nuclear Repulsion Energy =            829.2923476497077218
    One-Electron Energy =               -2518.8113017648961431
    Two-Electron Energy =                1038.9621353324998836
    DFT Exchange-Correlation Energy =       0.0000000000000000
    Empirical Dispersion Energy =           0.0000000000000000
    PCM Polarization Energy =               0.0000000000000000
    EFP Energy =                            0.0000000000000000
    Total Energy =                       -650.5568187826886515



Properties will be evaluated at   0.000000,   0.000000,   0.000000 Bohr

Properties computed using the SCF density matrix

  Nuclear Dipole Moment: (a.u.)
     X:     0.9772      Y:     0.3684      Z:    -7.8499

  Electronic Dipole Moment: (a.u.)
     X:     1.8983      Y:    -1.4009      Z:     4.6635

  Dipole Moment: (a.u.)
     X:     2.8755      Y:    -1.0325      Z:    -3.1864     Total:     4.4145

  Dipole Moment: (Debye)
     X:     7.3088      Y:    -2.6244      Z:    -8.0991     Total:    11.2206


*** tstop() called on gpu-1-15.local at Sat Nov 11 19:07:51 2017
Module time:
	user time   =    1211.09 seconds =      20.18 minutes
	system time =      50.95 seconds =       0.85 minutes
	total time  =        513 seconds =       8.55 minutes
Total time:
	user time   =    1211.10 seconds =      20.19 minutes
	system time =      50.95 seconds =       0.85 minutes
	total time  =        513 seconds =       8.55 minutes

  //>>>>>>>>>>>>>>>>>>>>>>>>>>>>>>>>>>>//
  //               DFMP2               //
  //<<<<<<<<<<<<<<<<<<<<<<<<<<<<<<<<<<<//

   => Loading Basis Set <=

    Name: (AUG-CC-PVTZ AUX)
    Role: RIFIT
    Keyword: DF_BASIS_MP2
    atoms 1-11  entry C          line   147 file /cbio/jclab/home/chayas/anaconda/envs/py35/share/psi4/basis/aug-cc-pvtz-ri.gbs 
    atoms 12    entry N          line   205 file /cbio/jclab/home/chayas/anaconda/envs/py35/share/psi4/basis/aug-cc-pvtz-ri.gbs 
    atoms 13    entry O          line   263 file /cbio/jclab/home/chayas/anaconda/envs/py35/share/psi4/basis/aug-cc-pvtz-ri.gbs 
    atoms 14    entry F          line   321 file /cbio/jclab/home/chayas/anaconda/envs/py35/share/psi4/basis/aug-cc-pvtz-ri.gbs 
    atoms 15-23 entry H          line    29 file /cbio/jclab/home/chayas/anaconda/envs/py35/share/psi4/basis/aug-cc-pvtz-ri.gbs 

	 --------------------------------------------------------
	                          DF-MP2                         
	      2nd-Order Density-Fitted Moller-Plesset Theory     
	              RMP2 Wavefunction,   8 Threads             
	                                                         
	        Rob Parrish, Justin Turney, Andy Simmonett,      
	           Ed Hohenstein, and C. David Sherrill          
	 --------------------------------------------------------

   => Auxiliary Basis Set <=

  Basis Set: (AUG-CC-PVTZ AUX)
    Blend: AUG-CC-PVTZ-RI
    Number of shells: 518
    Number of basis function: 1898
    Number of Cartesian functions: 2399
    Spherical Harmonics?: true
    Max angular momentum: 4

	 --------------------------------------------------------
	                 NBF =   851, NAUX =  1898
	 --------------------------------------------------------
	   CLASS    FOCC     OCC    AOCC    AVIR     VIR    FVIR
	   PAIRS       0      49      49     802     802       0
	 --------------------------------------------------------


         ------------------------------------------------------------
                                     CPHF                           
                                  Rob Parrish                       
         ------------------------------------------------------------

  ==> Geometry <==

    Molecular point group: c1
    Full point group: C1

    Geometry (in Angstrom), charge = 1, multiplicity = 1:

       Center              X                  Y                   Z               Mass       
    ------------   -----------------  -----------------  -----------------  -----------------
           C         -1.336190796776     0.758857820663    -0.781020238728    12.000000000000
           C         -2.414190796776     1.331857820663    -0.108020238728    12.000000000000
           C          1.608809203224     0.351857820663    -1.599020238728    12.000000000000
           C          1.099809203224    -1.783142179337    -0.606020238728    12.000000000000
           C         -1.421190796776     0.715857820663     2.006979761272    12.000000000000
           C          2.672809203224    -0.245142179337    -2.261020238728    12.000000000000
           C          2.176809203224    -2.325142179337    -1.293020238728    12.000000000000
           C         -0.300190796776     0.163857820663    -0.061020238728    12.000000000000
           C          0.816809203224    -0.430142179337    -0.764020238728    12.000000000000
           C         -2.457190796776     1.310857820663     1.285979761272    12.000000000000
           C         -0.343190796776     0.142857820663     1.332979761272    12.000000000000
           N          2.922809203224    -1.550142179337    -2.091020238728    14.003074004780
           O         -3.510190796776     1.870857820663     1.942979761272    15.994914619560
           F          0.644809203224    -0.425142179337     2.039979761272    18.998403224000
           H         -1.317190796776     0.782857820663    -1.868020238728     1.007825032070
           H         -3.219190796776     1.792857820663    -0.675020238728     1.007825032070
           H          1.410809203224     1.409857820663    -1.741020238728     1.007825032070
           H          0.497809203224    -2.417142179337     0.038979761272     1.007825032070
           H         -1.449190796776     0.695857820663     3.092979761272     1.007825032070
           H          3.339809203224     0.283857820663    -2.928020238728     1.007825032070
           H          2.469809203224    -3.364142179337    -1.230020238728     1.007825032070
           H          3.708809203224    -1.969142179337    -2.587020238728     1.007825032070
           H         -3.723190796776     2.735857820663     1.559979761272     1.007825032070

  Nuclear repulsion =  829.292347649707722
  Reference energy  = -650.556818782688651

  ==> Basis Set <==

  Basis Set: AUG-CC-PVTZ
    Blend: AUG-CC-PVTZ
    Number of shells: 277
    Number of basis function: 851
    Number of Cartesian functions: 995
    Spherical Harmonics?: true
    Max angular momentum: 3

  ==> CGRSolver (by Rob Parrish) <==

   Number of roots    =         1
   Preconditioning    =    JACOBI
   Convergence cutoff =     1E-06
   Maximum iterations =       100

  ==> CPHFRHamiltonian (by Rob Parrish) <== 

  ==> DFJK: Density-Fitted J/K Matrices <==

    J tasked:                  Yes
    K tasked:                  Yes
    wK tasked:                  No
    OpenMP threads:              8
    Integrals threads:           8
    Memory (MB):              3576
    Algorithm:                Disk
    Integral Cache:           NONE
    Schwarz Cutoff:          1E-12
    Fitting Condition:       1E-12

   => Auxiliary Basis Set <=

  Basis Set: (AUG-CC-PVTZ AUX)
    Blend: AUG-CC-PVTZ-JKFIT
    Number of shells: 546
    Number of basis function: 1870
    Number of Cartesian functions: 2329
    Spherical Harmonics?: true
    Max angular momentum: 4

  ==> CPHF Iterations <==

  => Iterations <=

             Iter  Converged  Remaining    Residual
  CGR           1          0          1   1.176E-01
  CGR           2          0          1   4.655E-02
  CGR           3          0          1   2.734E-02
  CGR           4          0          1   8.853E-03
  CGR           5          0          1   3.640E-03
  CGR           6          0          1   1.500E-03
  CGR           7          0          1   4.879E-04
  CGR           8          0          1   2.154E-04
  CGR           9          0          1   1.001E-04
  CGR          10          0          1   3.849E-05
  CGR          11          0          1   1.480E-05
  CGR          12          0          1   5.286E-06
  CGR          13          0          1   1.937E-06
  CGR          14          1          0   6.714E-07

    CGRSolver converged.

  ==> DFCorrGrad: Density-Fitted Correlated Gradients <==

    OpenMP threads:              8
    Integrals threads:           8
    Memory (MB):              3576
    Schwarz Cutoff:          0E+00
    Fitting Condition:       1E-12

   => Auxiliary Basis Set <=

  Basis Set: (AUG-CC-PVTZ AUX)
    Blend: AUG-CC-PVTZ-JKFIT
    Number of shells: 546
    Number of basis function: 1870
    Number of Cartesian functions: 2329
    Spherical Harmonics?: true
    Max angular momentum: 4

	-----------------------------------------------------------
	 ==================> DF-MP2 Energies <==================== 
	-----------------------------------------------------------
	 Reference Energy          =    -650.5568187826886515 [Eh]
	 Singles Energy            =      -0.0000000000000003 [Eh]
	 Same-Spin Energy          =      -0.6688955104730504 [Eh]
	 Opposite-Spin Energy      =      -2.0135428806010456 [Eh]
	 Correlation Energy        =      -2.6824383910740965 [Eh]
	 Total Energy              =    -653.2392571737627804 [Eh]
	-----------------------------------------------------------
	 ================> DF-SCS-MP2 Energies <================== 
	-----------------------------------------------------------
	 SCS Same-Spin Scale       =       0.3333333333333333 [-]
	 SCS Opposite-Spin Scale   =       1.2000000000000000 [-]
	 SCS Same-Spin Energy      =      -0.2229651701576835 [Eh]
	 SCS Opposite-Spin Energy  =      -2.4162514567212545 [Eh]
	 SCS Correlation Energy    =      -2.6392166268789383 [Eh]
	 SCS Total Energy          =    -653.1960354095675712 [Eh]
	-----------------------------------------------------------


  -Total Gradient:
     Atom            X                  Y                   Z
    ------   -----------------  -----------------  -----------------
       1        0.008471316785    -0.010471833260    -0.007689360745
       2       -0.006574068565     0.003386764650     0.008083868314
       3       -0.010428980716     0.007999954296     0.010025972722
       4       -0.014134148266     0.006527613506     0.005334294752
       5       -0.003891788342     0.004692157766    -0.004224375942
       6        0.002018185767    -0.011466993247     0.003252702315
       7        0.006089032454     0.007804326847    -0.007764594862
       8       -0.002674952446     0.001239807962    -0.002772428910
       9        0.003082725155    -0.001816155445    -0.003873782251
      10       -0.001698779685    -0.006091659281     0.007742671427
      11        0.026541130971    -0.007331494047     0.000447988302
      12        0.001095884937    -0.001129735018    -0.000730168192
      13       -0.007041950859    -0.001203117199    -0.005641843756
      14        0.000439631617    -0.000977789488     0.004961353409
      15       -0.001749076840     0.001744168932    -0.005409534166
      16       -0.003229413813     0.003031815258    -0.004012133629
      17       -0.001275677255     0.005455620193    -0.001522439634
      18       -0.003375936969    -0.003935725702     0.003734298333
      19       -0.000123455142    -0.001252010448     0.005494985031
      20        0.002109578334     0.000192941000    -0.002131195868
      21        0.001875946343    -0.002249812885    -0.000415416586
      22        0.004465475521    -0.002571386303    -0.002983169723
      23        0.000009321029     0.008422541921     0.000092309675


*** tstop() called on gpu-1-15.local at Sat Nov 11 19:49:53 2017
Module time:
	user time   =    6238.23 seconds =     103.97 minutes
	system time =     111.20 seconds =       1.85 minutes
	total time  =       3035 seconds =      50.58 minutes
Total time:
	user time   =    6238.24 seconds =     103.97 minutes
	system time =     111.20 seconds =       1.85 minutes
	total time  =       3035 seconds =      50.58 minutes

			-----------------------------------------
			 OPTKING 2.0: for geometry optimizations 
			  - R.A. King,  Bethel University        
			-----------------------------------------

	Internal coordinates to be generated automatically.
	Detected frag 1 with atoms:  1 2 3 4 5 6 7 8 9 10 11 12 13 14 15 16 17 18 19 20
	 21 22 23
	---Fragment 1 Bond Connectivity---
	 1 : 2 8 15
	 2 : 1 10 16
	 3 : 6 9 17
	 4 : 7 9 18
	 5 : 10 11 19
	 6 : 3 12 20
	 7 : 4 12 21
	 8 : 1 9 11
	 9 : 3 4 8
	 10 : 2 5 13
	 11 : 5 8 14
	 12 : 6 7 22
	 13 : 10 23
	 14 : 11
	 15 : 1
	 16 : 2
	 17 : 3
	 18 : 4
	 19 : 5
	 20 : 6
	 21 : 7
	 22 : 12
	 23 : 13

	Assuming in current code that numbering for constraints corresponds to unified fragment.
	Fixed dihedral atom list: 
	     2    10    13    23
	---Fragment 1 Geometry and Gradient---
	 C          -2.5250346672        1.4340334549       -1.4759143554
	 C          -4.5621594384        2.5168465290       -0.2041286680
	 C           3.0402087942        0.6649149188       -3.0217103321
	 C           2.0783381925       -3.3696503749       -1.1452122822
	 C          -2.6856613885        1.3527752311        3.7926421030
	 C           5.0508773995       -0.4632515826       -4.2727090321
	 C           4.1135732376       -4.3938819390       -2.4434541355
	 C          -0.5672783935        0.3096464058       -0.1153115398
	 C           1.5435456969       -0.8128509171       -1.4437890112
	 C          -4.6434176622        2.4771622802        2.4301495612
	 C          -0.6485366172        0.2699621570        2.5189666895
	 N           5.5233089328       -2.9293441860       -3.9514555895
	 O          -6.6332992801        3.5354089146        3.6716996305
	 F           1.2185128021       -0.8034022865        3.8550030654
	 H          -2.4891298707        1.4793868820       -3.5300466619
	 H          -6.0833889754        3.3880102763       -1.2756033854
	 H           2.6660430198        2.6642451674       -3.2900514430
	 H           0.9407230605       -4.5677367432        0.0736610735
	 H          -2.7385737202        1.3149807085        5.8448846834
	 H           6.3113247302        0.5364135417       -5.5331563627
	 H           4.6672629946       -6.3573073910       -2.3244013891
	 H           7.0086336732       -3.7211394357       -4.8887597514
	 H          -7.0358109464        5.1700220196        2.9479345216
	             0.0084713168       -0.0104718333       -0.0076893607
	            -0.0065740686        0.0033867646        0.0080838683
	            -0.0104289807        0.0079999543        0.0100259727
	            -0.0141341483        0.0065276135        0.0053342948
	            -0.0038917883        0.0046921578       -0.0042243759
	             0.0020181858       -0.0114669932        0.0032527023
	             0.0060890325        0.0078043268       -0.0077645949
	            -0.0026749524        0.0012398080       -0.0027724289
	             0.0030827252       -0.0018161554       -0.0038737823
	            -0.0016987797       -0.0060916593        0.0077426714
	             0.0265411310       -0.0073314940        0.0004479883
	             0.0010958849       -0.0011297350       -0.0007301682
	            -0.0070419509       -0.0012031172       -0.0056418438
	             0.0004396316       -0.0009777895        0.0049613534
	            -0.0017490768        0.0017441689       -0.0054095342
	            -0.0032294138        0.0030318153       -0.0040121336
	            -0.0012756773        0.0054556202       -0.0015224396
	            -0.0033759370       -0.0039357257        0.0037342983
	            -0.0001234551       -0.0012520104        0.0054949850
	             0.0021095783        0.0001929410       -0.0021311959
	             0.0018759463       -0.0022498129       -0.0004154166
	             0.0044654755       -0.0025713863       -0.0029831697
	             0.0000093210        0.0084225419        0.0000923097

	Previous optimization step data not found.  Starting new optimization.

	---Fragment 1 Intrafragment Coordinates---
	 - Coordinate -           - BOHR/RAD -       - ANG/DEG -
	 R(1,2)           =         2.634350	       1.394038
	 R(1,8)           =         2.635962	       1.394891
	 R(1,15)          =         2.054947	       1.087431
	 R(2,10)          =         2.635830	       1.394821
	 R(2,16)          =         2.054537	       1.087214
	 R(3,6)           =         2.623079	       1.388074
	 R(3,9)           =         2.629378	       1.391407
	 R(3,17)          =         2.051665	       1.085694
	 R(4,7)           =         2.622339	       1.387682
	 R(4,9)           =         2.629140	       1.391281
	 R(4,18)          =         2.053103	       1.086455
	 R(5,10)          =         2.636938	       1.395407
	 R(5,11)          =         2.635263	       1.394521
	 R(5,19)          =         2.053272	       1.086545
	 R(6,12)          =         2.531404	       1.339561
	 R(6,20)          =         2.043719	       1.081489
	 R(7,12)          =         2.531066	       1.339382
	 R(7,21)          =         2.043474	       1.081360
	 R(8,9)           =         2.735038	       1.447320
	 R(8,11)          =         2.635830	       1.394821
	 R(10,13)         =         2.573123	       1.361638
	 R(11,14)         =         2.534359	       1.341125
	 R(12,22)         =         1.926569	       1.019496
	 R(13,23)         =         1.832433	       0.969682
	 B(1,2,10)        =         2.094553	     120.009056
	 B(1,2,16)        =         2.088723	     119.675016
	 B(1,8,9)         =         2.091569	     119.838095
	 B(1,8,11)        =         2.093692	     119.959722
	 B(2,1,8)         =         2.094940	     120.031219
	 B(2,1,15)        =         2.079469	     119.144799
	 B(2,10,5)        =         2.094306	     119.994870
	 B(2,10,13)       =         2.094247	     119.991510
	 B(3,6,12)        =         2.096160	     120.101096
	 B(3,6,20)        =         2.160978	     123.814942
	 B(3,9,4)         =         2.093156	     119.928982
	 B(3,9,8)         =         2.094542	     120.008404
	 B(4,7,12)        =         2.095824	     120.081885
	 B(4,7,21)        =         2.161239	     123.829863
	 B(4,9,8)         =         2.095488	     120.062613
	 B(5,10,13)       =         2.094633	     120.013619
	 B(5,11,8)        =         2.095181	     120.045019
	 B(5,11,14)       =         2.081414	     119.256220
	 B(6,3,9)         =         2.072362	     118.737620
	 B(6,3,17)        =         2.090402	     119.771194
	 B(6,12,7)        =         2.135730	     122.368334
	 B(6,12,22)       =         2.074333	     118.850498
	 B(7,4,9)         =         2.073138	     118.782073
	 B(7,4,18)        =         2.089816	     119.737652
	 B(7,12,22)       =         2.073122	     118.781161
	 B(8,1,15)        =         2.108776	     120.823969
	 B(8,11,14)       =         2.106591	     120.698759
	 B(9,3,17)        =         2.120421	     121.491171
	 B(9,4,18)        =         2.120230	     121.480258
	 B(9,8,11)        =         2.097924	     120.202184
	 B(10,2,16)       =         2.099909	     120.315896
	 B(10,5,11)       =         2.093699	     119.960108
	 B(10,5,19)       =         2.100355	     120.341451
	 B(10,13,23)      =         1.924274	     110.252792
	 B(11,5,19)       =         2.089132	     119.698439
	 B(12,6,20)       =         2.026047	     116.083959
	 B(12,7,21)       =         2.026122	     116.088250
	 D(1,2,10,5)      =        -0.000325	      -0.018609
	 D(1,2,10,13)     =         3.141388	     179.988267
	 D(1,8,9,3)       =         1.047203	      60.000294
	 D(1,8,9,4)       =        -2.094232	    -119.990639
	 D(1,8,11,5)      =         0.000325	       0.018608
	 D(1,8,11,14)     =        -3.141528	    -179.996269
	 D(2,1,8,9)       =         3.141277	     179.981897
	 D(2,1,8,11)      =        -0.000348	      -0.019945
	 D(2,10,5,11)     =         0.000301	       0.017261
	 D(2,10,5,19)     =        -3.141029	    -179.967685
	 D(2,10,13,23)    =        -0.785613	     -45.012302
	 D(3,6,12,7)      =        -0.000167	      -0.009589
	 D(3,6,12,22)     =         3.140892	     179.959844
	 D(3,9,4,7)       =        -0.000213	      -0.012204
	 D(3,9,4,18)      =        -3.140964	    -179.964007
	 D(3,9,8,11)      =        -2.094358	    -119.997860
	 D(4,7,12,6)      =         0.000492	       0.028196
	 D(4,7,12,22)     =        -3.140567	    -179.941258
	 D(4,9,3,6)       =         0.000525	       0.030092
	 D(4,9,3,17)      =         3.141327	     179.984799
	 D(4,9,8,11)      =         1.047393	      60.011207
	 D(5,10,2,16)     =         3.140149	     179.917291
	 D(5,10,13,23)    =         2.356100	     134.994575
	 D(5,11,8,9)      =        -3.141300	    -179.983240
	 D(6,3,9,8)       =        -3.140909	    -179.960854
	 D(6,12,7,21)     =        -3.140902	    -179.960420
	 D(7,4,9,8)       =         3.141222	     179.978736
	 D(7,12,6,20)     =         3.141065	     179.969740
	 D(8,1,2,10)      =         0.000348	       0.019955
	 D(8,1,2,16)      =        -3.140133	    -179.916358
	 D(8,9,3,17)      =        -0.000107	      -0.006146
	 D(8,9,4,18)      =         0.000470	       0.026933
	 D(8,11,5,10)     =        -0.000301	      -0.017270
	 D(8,11,5,19)     =         3.141030	     179.967774
	 D(9,3,6,12)      =        -0.000344	      -0.019721
	 D(9,3,6,20)      =        -3.141547	    -179.997375
	 D(9,4,7,12)      =        -0.000293	      -0.016764
	 D(9,4,7,21)      =         3.141085	     179.970928
	 D(9,8,1,15)      =         0.000403	       0.023110
	 D(9,8,11,14)     =         0.000033	       0.001883
	 D(10,2,1,15)     =         3.141234	     179.979432
	 D(10,5,11,14)    =         3.141547	     179.997392
	 D(11,5,10,13)    =        -3.141411	    -179.989616
	 D(11,8,1,15)     =        -3.141221	    -179.978731
	 D(12,6,3,17)     =        -3.141160	    -179.975226
	 D(12,7,4,18)     =         3.140474	     179.935898
	 D(13,10,2,16)    =        -0.001324	      -0.075833
	 D(13,10,5,19)    =         0.000444	       0.025437
	 D(14,11,5,19)    =        -0.000307	      -0.017564
	 D(15,1,2,16)     =         0.000753	       0.043120
	 D(17,3,6,20)     =         0.000822	       0.047120
	 D(18,4,7,21)     =        -0.001334	      -0.076410
	 D(20,6,12,22)    =        -0.001062	      -0.060827
	 D(21,7,12,22)    =         0.001224	       0.070126
	 R(4,14)          =         5.685691	       3.008738

	Current energy   :      -653.2392571738

	Generating empirical Hessian (Schlegel '84) for each fragment.
	Adding user-defined constraint: Fragment 1; Coordinate 72:
		Value =    -0.785613; Fixed value    =    -0.785398
		Force =     0.000107; Force constant =     0.500000
	Removing off-diagonal coupling between coordinate 72 and others.
	Taking RFO optimization step.
	Going to follow RFO solution 1.
	Using RFO vector 1.

	Determining step-restricting scale parameter for RS-RFO.
	Maximum step size allowed    0.10000

	 Iter      |step|        alpha        rfo_root  
	------------------------------------------------
	    0     0.35710       1.00000           1
	    1     0.23133       3.60913           1
	    2     0.16403       9.01240           1
	    3     0.12732      18.73935           1
	    4     0.10805      30.80222           1
	    5     0.10101      37.76624           1
	    6     0.10002      38.90086           1
	    7     0.10000      38.92297           1
	------------------------------------------------
	Norm of target step-size    0.10000
	Projected energy change by RFO approximation:        -0.0046471537

	Back-transformation to cartesian coordinates...
	Could not converge backtransformation.
	Using first guess instead.

	--- Internal Coordinate Step in ANG or DEG, aJ/ANG or AJ/DEG ---
	 ---------------------------------------------------------------------------
	   Coordinate                Previous        Force       Change         New 
	   ----------                --------       ------       ------       ------
	    1 R(1,2)          =      1.394038    -0.081914    -0.008166     1.385872
	    2 R(1,8)          =      1.394891    -0.016803    -0.001528     1.393363
	    3 R(1,15)         =      1.087431    -0.044615    -0.005510     1.081921
	    4 R(2,10)         =      1.394821    -0.013845    -0.001385     1.393437
	    5 R(2,16)         =      1.087214    -0.047530    -0.005876     1.081339
	    6 R(3,6)          =      1.388074    -0.093780    -0.009349     1.378725
	    7 R(3,9)          =      1.391407     0.025787     0.002660     1.394067
	    8 R(3,17)         =      1.085694    -0.047358    -0.005824     1.079870
	    9 R(4,7)          =      1.387682    -0.095286    -0.009442     1.378240
	   10 R(4,9)          =      1.391281     0.034472     0.003604     1.394884
	   11 R(4,18)         =      1.086455    -0.052598    -0.006493     1.079963
	   12 R(5,10)         =      1.395407    -0.080356    -0.008269     1.387139
	   13 R(5,11)         =      1.394521    -0.128893    -0.013159     1.381362
	   14 R(5,19)         =      1.086545    -0.045465    -0.005611     1.080934
	   15 R(6,12)         =      1.339561     0.015207     0.001390     1.340952
	   16 R(6,20)         =      1.081489    -0.022326    -0.002720     1.078769
	   17 R(7,12)         =      1.339382     0.020891     0.001850     1.341232
	   18 R(7,21)         =      1.081360    -0.021798    -0.002624     1.078736
	   19 R(8,9)          =      1.447320     0.089277     0.010542     1.457862
	   20 R(8,11)         =      1.394821    -0.047173    -0.004477     1.390344
	   21 R(10,13)        =      1.361638    -0.047208    -0.003872     1.357766
	   22 R(11,14)        =      1.341125    -0.025995    -0.002212     1.338913
	   23 R(12,22)        =      1.019496    -0.049028    -0.005143     1.014354
	   24 R(13,23)        =      0.969682    -0.061582    -0.005473     0.964209
	   25 B(1,2,10)       =    120.009056    -0.000063    -0.081331   119.927725
	   26 B(1,2,16)       =    119.675016     0.000126     0.259157   119.934173
	   27 B(1,8,9)        =    119.838095     0.000385     0.644162   120.482256
	   28 B(1,8,11)       =    119.959722    -0.000636    -1.151030   118.808692
	   29 B(2,1,8)        =    120.031219     0.000150     0.351421   120.382640
	   30 B(2,1,15)       =    119.144799     0.000112     0.256551   119.401350
	   31 B(2,10,5)       =    119.994870     0.000075     0.131296   120.126166
	   32 B(2,10,13)      =    119.991510     0.000789     1.430001   121.421511
	   33 B(3,6,12)       =    120.101096    -0.000322    -0.639178   119.461919
	   34 B(3,6,20)       =    123.814942     0.000064     0.095146   123.910088
	   35 B(3,9,4)        =    119.928982    -0.000509    -0.943603   118.985379
	   36 B(3,9,8)        =    120.008404     0.000181     0.314335   120.322739
	   37 B(4,7,12)       =    120.081885    -0.000322    -0.633851   119.448034
	   38 B(4,7,21)       =    123.829863     0.000061     0.087559   123.917422
	   39 B(4,9,8)        =    120.062613     0.000328     0.629194   120.691807
	   40 B(5,10,13)      =    120.013619    -0.000864    -1.565561   118.448058
	   41 B(5,11,8)       =    120.045019     0.000749     1.320074   121.365093
	   42 B(5,11,14)      =    119.256220    -0.000120    -0.237899   119.018321
	   43 B(6,3,9)        =    118.737620     0.000426     0.812803   119.550423
	   44 B(6,3,17)       =    119.771194    -0.000190    -0.355649   119.415544
	   45 B(6,12,7)       =    122.368334     0.000325     0.624902   122.993236
	   46 B(6,12,22)      =    118.850498    -0.000170    -0.328086   118.522412
	   47 B(7,4,9)        =    118.782073     0.000403     0.778887   119.560960
	   48 B(7,4,18)       =    119.737652    -0.000180    -0.343361   119.394290
	   49 B(7,12,22)      =    118.781161    -0.000155    -0.296813   118.484348
	   50 B(8,1,15)       =    120.823969    -0.000263    -0.609254   120.214715
	   51 B(8,11,14)      =    120.698759    -0.000629    -1.082965   119.615794
	   52 B(9,3,17)       =    121.491171    -0.000236    -0.457153   121.034018
	   53 B(9,4,18)       =    121.480258    -0.000223    -0.435518   121.044740
	   54 B(9,8,11)       =    120.202184     0.000251     0.506852   120.709036
	   55 B(10,2,16)      =    120.315896    -0.000063    -0.177889   120.138008
	   56 B(10,5,11)      =    119.960108    -0.000275    -0.571864   119.388245
	   57 B(10,5,19)      =    120.341451     0.000093     0.182503   120.523954
	   58 B(10,13,23)     =    110.252792    -0.000136    -0.311585   109.941207
	   59 B(11,5,19)      =    119.698439     0.000182     0.389307   120.087746
	   60 B(12,6,20)      =    116.083959     0.000259     0.543883   116.627842
	   61 B(12,7,21)      =    116.088250     0.000261     0.546277   116.634527
	   62 D(1,2,10,5)     =     -0.018609    -0.000017    -0.337227    -0.355836
	   63 D(1,2,10,13)    =    179.988267     0.000022     0.418885   180.407152
	   64 D(1,8,9,3)      =     60.000294    -0.000047    -0.845568    59.154726
	   65 D(1,8,9,4)      =   -119.990639    -0.000043    -0.754587  -120.745226
	   66 D(1,8,11,5)     =      0.018608    -0.000009    -0.166696    -0.148088
	   67 D(1,8,11,14)    =   -179.996269     0.000010     0.175180  -179.821089
	   68 D(2,1,8,9)      =    179.981897    -0.000011    -0.199978   179.781918
	   69 D(2,1,8,11)     =     -0.019945    -0.000009    -0.152800    -0.172745
	   70 D(2,10,5,11)    =      0.017261    -0.000000     0.022272     0.039533
	   71 D(2,10,5,19)    =   -179.967685     0.000004     0.092898  -179.874788
	   72 D(2,10,13,23)   =    -45.012302     0.000018     0.128401   -44.883901
	   73 D(3,6,12,7)     =     -0.009589     0.000003     0.053591     0.044002
	   74 D(3,6,12,22)    =    179.959844     0.000004     0.059677   180.019521
	   75 D(3,9,4,7)      =     -0.012204     0.000002     0.052087     0.039882
	   76 D(3,9,4,18)     =   -179.964007     0.000002     0.040653  -179.923354
	   77 D(3,9,8,11)     =   -119.997860    -0.000050    -0.893619  -120.891479
	   78 D(4,7,12,6)     =      0.028196    -0.000000    -0.006621     0.021574
	   79 D(4,7,12,22)    =   -179.941258    -0.000001    -0.012696  -179.953954
	   80 D(4,9,3,6)      =      0.030092     0.000001    -0.005584     0.024508
	   81 D(4,9,3,17)     =    179.984799     0.000005     0.084197   180.068996
	   82 D(4,9,8,11)     =     60.011207    -0.000046    -0.802638    59.208569
	   83 D(5,10,2,16)    =    179.917291    -0.000020    -0.384483   179.532809
	   84 D(5,10,13,23)   =    134.994575     0.000056     0.872079   135.866654
	   85 D(5,11,8,9)     =   -179.983240    -0.000006    -0.119405  -180.102645
	   86 D(6,3,9,8)      =   -179.960854     0.000005     0.083714  -179.877139
	   87 D(6,12,7,21)    =   -179.960420    -0.000003    -0.062932  -180.023352
	   88 D(7,4,9,8)      =    179.978736    -0.000002    -0.037581   179.941155
	   89 D(7,12,6,20)    =    179.969740    -0.000004    -0.061873   179.907867
	   90 D(8,1,2,10)     =      0.019955     0.000022     0.402963     0.422917
	   91 D(8,1,2,16)     =   -179.916358     0.000025     0.450402  -179.465956
	   92 D(8,9,3,17)     =     -0.006146     0.000009     0.173495     0.167349
	   93 D(8,9,4,18)     =      0.026933    -0.000002    -0.049014    -0.022081
	   94 D(8,11,5,10)    =     -0.017270     0.000013     0.231407     0.214137
	   95 D(8,11,5,19)    =    179.967774     0.000009     0.161065   180.128839
	   96 D(9,3,6,12)     =     -0.019721    -0.000003    -0.046485    -0.066205
	   97 D(9,3,6,20)     =   -179.997375     0.000004     0.077806  -179.919569
	   98 D(9,4,7,12)     =     -0.016764    -0.000003    -0.046541    -0.063305
	   99 D(9,4,7,21)     =    179.970928     0.000001     0.014160   179.985088
	  100 D(9,8,1,15)     =      0.023110     0.000009     0.175198     0.198308
	  101 D(9,8,11,14)    =      0.001883     0.000012     0.222471     0.224354
	  102 D(10,2,1,15)    =    179.979432     0.000001     0.030468   180.009900
	  103 D(10,5,11,14)   =    179.997392    -0.000005    -0.108345   179.889047
	  104 D(11,5,10,13)   =   -179.989616    -0.000039    -0.711367  -180.700983
	  105 D(11,8,1,15)    =   -179.978731     0.000012     0.222376  -179.756355
	  106 D(12,6,3,17)    =   -179.975226    -0.000008    -0.134741  -180.109967
	  107 D(12,7,4,18)    =    179.935898    -0.000002    -0.035355   179.900543
	  108 D(13,10,2,16)   =     -0.075833     0.000019     0.371630     0.295797
	  109 D(13,10,5,19)   =      0.025437    -0.000035    -0.640742    -0.615304
	  110 D(14,11,5,19)   =     -0.017564    -0.000009    -0.178688    -0.196251
	  111 D(15,1,2,16)    =      0.043120     0.000004     0.077908     0.121027
	  112 D(17,3,6,20)    =      0.047120    -0.000001    -0.010451     0.036669
	  113 D(18,4,7,21)    =     -0.076410     0.000002     0.025346    -0.051064
	  114 D(20,6,12,22)   =     -0.060827    -0.000003    -0.055787    -0.116613
	  115 D(21,7,12,22)   =      0.070126    -0.000004    -0.069006     0.001120
	  116 R(4,14)         =      3.008738    -0.010141    -0.003742     3.004996
	 ---------------------------------------------------------------------------
	Successfully symmetrized geometry.
	 Forces used to impose fixed constraints are not included.
	  Forces zeroed: 72 

  ==> Convergence Check <==

  Measures of convergence in internal coordinates in au.
  Criteria marked as inactive (o), active & met (*), and active & unmet ( ).
  --------------------------------------------------------------------------------------------- ~
   Step     Total Energy     Delta E     MAX Force     RMS Force      MAX Disp      RMS Disp    ~
  --------------------------------------------------------------------------------------------- ~
    Convergence Criteria    1.00e-06 *    3.00e-04 *             o    1.20e-03 *             o  ~
  --------------------------------------------------------------------------------------------- ~
      1    -653.23925717   -6.53e+02      1.56e-02      4.23e-03 o    2.73e-02      9.27e-03 o  ~
  ---------------------------------------------------------------------------------------------

	Writing optimization data to binary file.
	Structure for next step:
	Cartesian Geometry (in Angstrom)
	    C    -1.3418083577   0.7748335189  -0.7790422883
	    C    -2.4146007573   1.3429289775  -0.1104438289
	    C     1.6164998448   0.3388753242  -1.6126108338
	    C     1.1161575659  -1.7859743728  -0.6084129567
	    C    -1.4329495463   0.7196502453   1.9999970771
	    C     2.6769862011  -0.2477934611  -2.2699310492
	    C     2.1866205901  -2.3316593518  -1.2836040050
	    C    -0.3080208742   0.1699600297  -0.0670936054
	    C     0.8192001793  -0.4324856672  -0.7683726460
	    C    -2.4578820154   1.3182259188   1.2821012882
	    C    -0.3723924689   0.1511434002   1.3216317183
	    N     2.9266436079  -1.5524160955  -2.0861314577
	    O    -3.4980044336   1.8583136381   1.9676519049
	    F     0.6139713720  -0.4226490732   2.0220153040
	    H    -1.3168259793   0.7989584238  -1.8604055904
	    H    -3.2171728451   1.8028280905  -0.6705008360
	    H     1.4172130952   1.3899433410  -1.7597828840
	    H     0.5199000311  -2.4145784277   0.0362988766
	    H    -1.4609691441   0.6950452899   3.0802877355
	    H     3.3388464549   0.2818225897  -2.9371576549
	    H     2.4790224352  -3.3675074311  -1.2115570683
	    H     3.7106108144  -1.9693266424  -2.5765335322
	    H    -3.7224340959   2.7205916106   1.5991308416
			--------------------------
			 OPTKING Finished Execution 
			--------------------------

    Structure for next step:
    Molecular point group: c1
    Full point group: C1

    Geometry (in Angstrom), charge = 1, multiplicity = 1:

    C           -1.339239762123     0.774280778136    -0.776813282735
    C           -2.412032161705     1.342376236752    -0.108214823385
    C            1.619068440324     0.338322583412    -1.610381828294
    C            1.118726161447    -1.786527113532    -0.606183951187
    C           -1.430380950785     0.719097504516     2.002226082652
    C            2.679554796612    -0.248346201894    -2.267702043645
    C            2.189189185669    -2.332212092560    -1.281374999408
    C           -0.305452278670     0.169407288934    -0.064864599844
    C            0.821768774832    -0.433038407976    -0.766143640425
    C           -2.455313419891     1.317673178035     1.284330293721
    C           -0.369823873316     0.150590659421     1.323860723849
    N            2.929212203496    -1.552968836265    -2.083902452197
    O           -3.495435838013     1.857760897371     1.969880910470
    F            0.616539967584    -0.423201813969     2.024244309508
    H           -1.314257383719     0.798405683088    -1.858176584853
    H           -3.214604249512     1.802275349762    -0.668271830477
    H            1.419781690727     1.389390600213    -1.757553878468
    H            0.522468626675    -2.415131168496     0.038527882127
    H           -1.458400548511     0.694492549142     3.082516741053
    H            3.341415050424     0.281269848966    -2.934928649354
    H            2.481591030741    -3.368060171861    -1.209328062744
    H            3.713179409905    -1.969879383200    -2.574304526629
    H           -3.719865500317     2.720038869791     1.601359847100

gradient() will perform analytic gradient computation.

*** tstart() called on gpu-1-15.local
*** at Sat Nov 11 19:49:55 2017

    SCF Algorithm Type (re)set to DF.

*** tstart() called on gpu-1-15.local
*** at Sat Nov 11 19:49:55 2017

   => Loading Basis Set <=

    Name: AUG-CC-PVTZ
    Role: ORBITAL
    Keyword: BASIS
    atoms 1-11  entry C          line   221 file /cbio/jclab/home/chayas/anaconda/envs/py35/share/psi4/basis/aug-cc-pvtz.gbs 
    atoms 12    entry N          line   267 file /cbio/jclab/home/chayas/anaconda/envs/py35/share/psi4/basis/aug-cc-pvtz.gbs 
    atoms 13    entry O          line   313 file /cbio/jclab/home/chayas/anaconda/envs/py35/share/psi4/basis/aug-cc-pvtz.gbs 
    atoms 14    entry F          line   359 file /cbio/jclab/home/chayas/anaconda/envs/py35/share/psi4/basis/aug-cc-pvtz.gbs 
    atoms 15-23 entry H          line    34 file /cbio/jclab/home/chayas/anaconda/envs/py35/share/psi4/basis/aug-cc-pvtz.gbs 


         ---------------------------------------------------------
                                   SCF
            by Justin Turney, Rob Parrish, and Andy Simmonett
                              RHF Reference
                        8 Threads,   4768 MiB Core
         ---------------------------------------------------------

  ==> Geometry <==

    Molecular point group: c1
    Full point group: C1

    Geometry (in Angstrom), charge = 1, multiplicity = 1:

       Center              X                  Y                   Z               Mass       
    ------------   -----------------  -----------------  -----------------  -----------------
           C         -1.339239762123     0.774280778136    -0.776813282735    12.000000000000
           C         -2.412032161705     1.342376236752    -0.108214823385    12.000000000000
           C          1.619068440324     0.338322583412    -1.610381828294    12.000000000000
           C          1.118726161447    -1.786527113532    -0.606183951187    12.000000000000
           C         -1.430380950785     0.719097504516     2.002226082652    12.000000000000
           C          2.679554796612    -0.248346201894    -2.267702043645    12.000000000000
           C          2.189189185669    -2.332212092560    -1.281374999408    12.000000000000
           C         -0.305452278670     0.169407288934    -0.064864599844    12.000000000000
           C          0.821768774832    -0.433038407976    -0.766143640425    12.000000000000
           C         -2.455313419891     1.317673178035     1.284330293721    12.000000000000
           C         -0.369823873316     0.150590659421     1.323860723849    12.000000000000
           N          2.929212203496    -1.552968836265    -2.083902452197    14.003074004780
           O         -3.495435838013     1.857760897371     1.969880910470    15.994914619560
           F          0.616539967584    -0.423201813969     2.024244309508    18.998403224000
           H         -1.314257383719     0.798405683088    -1.858176584853     1.007825032070
           H         -3.214604249512     1.802275349762    -0.668271830477     1.007825032070
           H          1.419781690727     1.389390600213    -1.757553878468     1.007825032070
           H          0.522468626675    -2.415131168496     0.038527882127     1.007825032070
           H         -1.458400548511     0.694492549142     3.082516741053     1.007825032070
           H          3.341415050424     0.281269848966    -2.934928649354     1.007825032070
           H          2.481591030741    -3.368060171861    -1.209328062744     1.007825032070
           H          3.713179409905    -1.969879383200    -2.574304526629     1.007825032070
           H         -3.719865500317     2.720038869791     1.601359847100     1.007825032070

  Running in c1 symmetry.

  Rotational constants: A =      0.06345  B =      0.01286  C =      0.01148 [cm^-1]
  Rotational constants: A =   1902.10615  B =    385.43062  C =    344.02758 [MHz]
  Nuclear repulsion =  830.348602034249893

  Charge       = 1
  Multiplicity = 1
  Electrons    = 98
  Nalpha       = 49
  Nbeta        = 49

  ==> Algorithm <==

  SCF Algorithm Type is DF.
  DIIS enabled.
  MOM disabled.
  Fractional occupation disabled.
  Guess Type is READ.
  Energy threshold   = 1.00e-10
  Density threshold  = 1.00e-10
  Integral threshold = 0.00e+00

  ==> Primary Basis <==

  Basis Set: AUG-CC-PVTZ
    Blend: AUG-CC-PVTZ
    Number of shells: 277
    Number of basis function: 851
    Number of Cartesian functions: 995
    Spherical Harmonics?: true
    Max angular momentum: 3

   => Loading Basis Set <=

    Name: (AUG-CC-PVTZ AUX)
    Role: JKFIT
    Keyword: DF_BASIS_SCF
    atoms 1-11  entry C          line   161 file /cbio/jclab/home/chayas/anaconda/envs/py35/share/psi4/basis/aug-cc-pvtz-jkfit.gbs 
    atoms 12    entry N          line   223 file /cbio/jclab/home/chayas/anaconda/envs/py35/share/psi4/basis/aug-cc-pvtz-jkfit.gbs 
    atoms 13    entry O          line   285 file /cbio/jclab/home/chayas/anaconda/envs/py35/share/psi4/basis/aug-cc-pvtz-jkfit.gbs 
    atoms 14    entry F          line   347 file /cbio/jclab/home/chayas/anaconda/envs/py35/share/psi4/basis/aug-cc-pvtz-jkfit.gbs 
    atoms 15-23 entry H          line    69 file /cbio/jclab/home/chayas/anaconda/envs/py35/share/psi4/basis/aug-cc-pvtz-jkfit.gbs 

  Reading orbitals from file 180, no projection.

  ==> Pre-Iterations <==

   -------------------------------------------------------
    Irrep   Nso     Nmo     Nalpha   Nbeta   Ndocc  Nsocc
   -------------------------------------------------------
     A        851     851       0       0       0       0
   -------------------------------------------------------
    Total     851     851      49      49      49       0
   -------------------------------------------------------

  ==> Integral Setup <==

  ==> DFJK: Density-Fitted J/K Matrices <==

    J tasked:                  Yes
    K tasked:                  Yes
    wK tasked:                  No
    OpenMP threads:              8
    Integrals threads:           8
    Memory (MB):              3576
    Algorithm:                Disk
    Integral Cache:           NONE
    Schwarz Cutoff:          1E-12
    Fitting Condition:       1E-12

   => Auxiliary Basis Set <=

  Basis Set: (AUG-CC-PVTZ AUX)
    Blend: AUG-CC-PVTZ-JKFIT
    Number of shells: 546
    Number of basis function: 1870
    Number of Cartesian functions: 2329
    Spherical Harmonics?: true
    Max angular momentum: 4

  Minimum eigenvalue in the overlap matrix is 7.0219448251E-07.
  Using Symmetric Orthogonalization.

  SCF Guess: Orbitals guess was supplied from a previous computation.

  ==> Iterations <==

                           Total Energy        Delta E     RMS |[F,P]|

   @DF-RHF iter   0:  -650.60788855117357   -6.50608e+02   2.99243e-04 
   @DF-RHF iter   1:  -650.56174921688762    4.61393e-02   6.90959e-05 
   @DF-RHF iter   2:  -650.56194342777133   -1.94211e-04   4.20749e-05 DIIS
   @DF-RHF iter   3:  -650.56203938051283   -9.59527e-05   9.35001e-06 DIIS
   @DF-RHF iter   4:  -650.56204578282950   -6.40232e-06   4.04063e-06 DIIS
   @DF-RHF iter   5:  -650.56204733161280   -1.54878e-06   1.32821e-06 DIIS
   @DF-RHF iter   6:  -650.56204763137873   -2.99766e-07   7.02853e-07 DIIS
   @DF-RHF iter   7:  -650.56204772445460   -9.30759e-08   3.20455e-07 DIIS
   @DF-RHF iter   8:  -650.56204775164235   -2.71878e-08   9.95171e-08 DIIS
   @DF-RHF iter   9:  -650.56204775518211   -3.53975e-09   4.58643e-08 DIIS
   @DF-RHF iter  10:  -650.56204775546792   -2.85809e-10   1.46152e-08 DIIS
   @DF-RHF iter  11:  -650.56204775548190   -1.39835e-11   3.20271e-09 DIIS
   @DF-RHF iter  12:  -650.56204775552499   -4.30873e-11   1.35317e-09 DIIS
   @DF-RHF iter  13:  -650.56204775553840   -1.34150e-11   7.13843e-10 DIIS
   @DF-RHF iter  14:  -650.56204775550134    3.70619e-11   3.36028e-10 DIIS
   @DF-RHF iter  15:  -650.56204775550066    6.82121e-13   1.65035e-10 DIIS
   @DF-RHF iter  16:  -650.56204775554431   -4.36557e-11   6.78773e-11 DIIS

  ==> Post-Iterations <==

    Orbital Energies (a.u.)
    -----------------------

    Doubly Occupied:                                                      

       1A    -26.440254     2A    -20.697508     3A    -15.842687  
       4A    -11.489748     5A    -11.487907     6A    -11.463886  
       7A    -11.455426     8A    -11.432336     9A    -11.420894  
      10A    -11.419464    11A    -11.383027    12A    -11.379953  
      13A    -11.354658    14A    -11.354127    15A     -1.760373  
      16A     -1.518704    17A     -1.518273    18A     -1.324792  
      19A     -1.273995    20A     -1.246104    21A     -1.165779  
      22A     -1.153217    23A     -1.072248    24A     -1.064009  
      25A     -0.985586    26A     -0.973186    27A     -0.966701  
      28A     -0.889951    29A     -0.878642    30A     -0.867823  
      31A     -0.837503    32A     -0.827229    33A     -0.822115  
      34A     -0.805154    35A     -0.801959    36A     -0.780995  
      37A     -0.765902    38A     -0.749636    39A     -0.730251  
      40A     -0.717445    41A     -0.714657    42A     -0.672544  
      43A     -0.662226    44A     -0.634574    45A     -0.612702  
      46A     -0.579621    47A     -0.543398    48A     -0.470693  
      49A     -0.452453  

    Virtual:                                                              

      50A     -0.107654    51A     -0.086654    52A     -0.065753  
      53A     -0.063903    54A     -0.058812    55A     -0.050618  
      56A     -0.044037    57A     -0.038603    58A     -0.034535  
      59A     -0.030315    60A     -0.024373    61A     -0.019696  
      62A     -0.012729    63A     -0.009485    64A     -0.005912  
      65A     -0.004683    66A      0.001488    67A      0.007395  
      68A      0.008965    69A      0.012146    70A      0.014648  
      71A      0.018198    72A      0.024052    73A      0.026170  
      74A      0.029928    75A      0.033761    76A      0.035054  
      77A      0.039065    78A      0.039966    79A      0.045038  
      80A      0.046621    81A      0.048901    82A      0.053935  
      83A      0.060914    84A      0.063994    85A      0.068917  
      86A      0.073659    87A      0.074917    88A      0.078612  
      89A      0.082336    90A      0.087967    91A      0.092725  
      92A      0.094681    93A      0.101440    94A      0.106924  
      95A      0.112125    96A      0.117171    97A      0.118634  
      98A      0.122638    99A      0.128824   100A      0.133222  
     101A      0.135039   102A      0.137999   103A      0.143068  
     104A      0.143667   105A      0.147004   106A      0.153727  
     107A      0.157852   108A      0.160160   109A      0.163641  
     110A      0.169131   111A      0.169692   112A      0.171607  
     113A      0.180192   114A      0.182614   115A      0.185921  
     116A      0.188439   117A      0.195214   118A      0.196505  
     119A      0.198512   120A      0.203020   121A      0.207031  
     122A      0.210567   123A      0.214268   124A      0.221007  
     125A      0.223492   126A      0.226538   127A      0.231375  
     128A      0.234022   129A      0.235695   130A      0.238604  
     131A      0.244445   132A      0.250675   133A      0.253022  
     134A      0.256154   135A      0.259193   136A      0.266969  
     137A      0.270323   138A      0.273806   139A      0.279435  
     140A      0.283244   141A      0.283495   142A      0.292220  
     143A      0.296231   144A      0.300666   145A      0.305401  
     146A      0.310294   147A      0.316058   148A      0.319482  
     149A      0.321400   150A      0.322425   151A      0.324887  
     152A      0.328184   153A      0.332942   154A      0.335905  
     155A      0.338208   156A      0.343468   157A      0.346487  
     158A      0.349323   159A      0.351785   160A      0.353763  
     161A      0.360131   162A      0.369119   163A      0.370008  
     164A      0.371056   165A      0.373774   166A      0.378193  
     167A      0.381226   168A      0.383740   169A      0.389787  
     170A      0.394149   171A      0.397423   172A      0.398475  
     173A      0.403366   174A      0.407335   175A      0.410893  
     176A      0.413084   177A      0.418039   178A      0.420579  
     179A      0.422894   180A      0.426713   181A      0.430907  
     182A      0.434840   183A      0.443378   184A      0.446956  
     185A      0.450130   186A      0.451397   187A      0.461718  
     188A      0.467740   189A      0.472517   190A      0.475394  
     191A      0.480541   192A      0.486190   193A      0.487952  
[...]
	   17 R(7,12)         =      1.342538     0.000472     0.001536     1.344074
	   18 R(7,21)         =      1.077008     0.000929     0.001901     1.078909
	   19 R(8,9)          =      1.446114    -0.000042     0.000315     1.446429
	   20 R(8,11)         =      1.395239    -0.000519     0.000711     1.395950
	   21 R(10,13)        =      1.350862     0.001601     0.005432     1.356294
	   22 R(11,14)        =      1.343589     0.000740     0.001638     1.345227
	   23 R(12,22)        =      1.012011     0.000078     0.000392     1.012404
	   24 R(13,23)        =      0.963087     0.002768     0.003367     0.966454
	   25 B(1,2,10)       =    119.822474    -0.000005    -0.299766   119.522709
	   26 B(1,2,16)       =    120.319933    -0.000000     0.010852   120.330785
	   27 B(1,8,9)        =    120.761796    -0.000005     0.216356   120.978152
	   28 B(1,8,11)       =    116.591971     0.000010     0.467125   117.059096
	   29 B(2,1,8)        =    121.647737    -0.000001    -0.206666   121.441071
	   30 B(2,1,15)       =    118.828122     0.000002     0.181759   119.009880
	   31 B(2,10,5)       =    119.886310     0.000003     0.527934   120.414244
	   32 B(2,10,13)      =    122.749438    -0.000013    -0.751608   121.997830
	   33 B(3,6,12)       =    119.323469    -0.000000     0.014932   119.338401
	   34 B(3,6,20)       =    123.665417    -0.000002    -0.020895   123.644522
	   35 B(3,9,4)        =    117.009780     0.000005     0.258766   117.268546
	   36 B(3,9,8)        =    120.379386    -0.000001     0.292154   120.671540
	   37 B(4,7,12)       =    119.630884    -0.000002    -0.070376   119.560508
	   38 B(4,7,21)       =    123.436703    -0.000000     0.041294   123.477997
	   39 B(4,9,8)        =    122.603854    -0.000004    -0.546416   122.057438
	   40 B(5,10,13)      =    117.080669     0.000011     0.219268   117.299938
	   41 B(5,11,8)       =    122.972750    -0.000005    -0.242552   122.730198
	   42 B(5,11,14)      =    117.943232    -0.000004    -0.075991   117.867241
	   43 B(6,3,9)        =    120.935669    -0.000004    -0.197001   120.738669
	   44 B(6,3,17)       =    118.353904     0.000001     0.019851   118.373756
	   45 B(6,12,7)       =    122.513905     0.000004     0.119594   122.633499
	   46 B(6,12,22)      =    118.745688    -0.000001     0.003643   118.749332
	   47 B(7,4,9)        =    120.585838    -0.000002    -0.126173   120.459665
	   48 B(7,4,18)       =    118.450660    -0.000001    -0.066631   118.384029
	   49 B(7,12,22)      =    118.740077    -0.000003    -0.123500   118.616577
	   50 B(8,1,15)       =    119.388306    -0.000001     0.090917   119.479222
	   51 B(8,11,14)      =    119.036270     0.000009     0.257520   119.293791
	   52 B(9,3,17)       =    120.681910     0.000003     0.177910   120.859820
	   53 B(9,4,18)       =    120.951754     0.000003     0.193398   121.145152
	   54 B(9,8,11)       =    122.645386    -0.000005    -0.682890   121.962497
	   55 B(10,2,16)      =    119.855390     0.000006     0.254489   120.109879
	   56 B(10,5,11)      =    119.033129    -0.000002    -0.242490   118.790640
	   57 B(10,5,19)      =    120.514928     0.000004     0.165946   120.680874
	   58 B(10,13,23)     =    110.752457    -0.000000    -0.032145   110.720313
	   59 B(11,5,19)      =    120.449448    -0.000002     0.070142   120.519590
	   60 B(12,6,20)      =    117.006458     0.000002     0.002112   117.008570
	   61 B(12,7,21)      =    116.930847     0.000003     0.028116   116.958964
	   62 D(1,2,10,5)     =     -2.385116     0.000001     0.153366    -2.231750
	   63 D(1,2,10,13)    =   -176.086850    -0.000003     0.186406  -175.900444
	   64 D(1,8,9,3)      =     30.840002    -0.000000     0.320561    31.160563
	   65 D(1,8,9,4)      =   -148.169776    -0.000001    -0.081434  -148.251210
	   66 D(1,8,11,5)     =     -0.707985     0.000000    -0.360496    -1.068481
	   67 D(1,8,11,14)    =   -178.140973     0.000001     0.947692  -177.193281
	   68 D(2,1,8,9)      =    178.860271     0.000000     0.529858   179.390129
	   69 D(2,1,8,11)     =     -0.813789    -0.000000     0.384387    -0.429402
	   70 D(2,10,5,11)    =      0.912549    -0.000001    -0.122881     0.789668
	   71 D(2,10,5,19)    =   -179.659433    -0.000001    -0.630329  -180.289762
	   72 D(2,10,13,23)   =    -44.869124     0.000006    -0.514480   -45.383604
	   73 D(3,6,12,7)     =      0.058902    -0.000000     0.140445     0.199347
	   74 D(3,6,12,22)    =   -179.729195    -0.000000     0.212637  -179.516558
	   75 D(3,9,4,7)      =     -0.238120    -0.000000     0.148111    -0.090009
	   76 D(3,9,4,18)     =   -178.971960    -0.000000     0.116545  -178.855416
	   77 D(3,9,8,11)     =   -149.506141     0.000000     0.477270  -149.028871
	   78 D(4,7,12,6)     =     -0.140551     0.000000     0.122252    -0.018298
	   79 D(4,7,12,22)    =    179.647558    -0.000000     0.050409   179.697967
	   80 D(4,9,3,6)      =      0.157650     0.000000     0.113474     0.271124
	   81 D(4,9,3,17)     =   -177.867952    -0.000000     0.086598  -177.781354
	   82 D(4,9,8,11)     =     31.484081    -0.000000     0.075275    31.559356
	   83 D(5,10,2,16)    =    177.076733    -0.000000    -1.502177   175.574556
	   84 D(5,10,13,23)   =    141.263323     0.000003    -0.503237   140.760086
	   85 D(5,11,8,9)     =    179.624642    -0.000001    -0.510746   179.113896
	   86 D(6,3,9,8)      =   -178.906052    -0.000000    -0.261964  -179.168016
	   87 D(6,12,7,21)    =    179.419853     0.000000     0.003155   179.423008
	   88 D(7,4,9,8)      =    178.803040     0.000000     0.537759   179.340799
	   89 D(7,12,6,20)    =    179.302905     0.000000    -0.125730   179.177175
	   90 D(8,1,2,10)     =      2.352116     0.000000    -0.302859     2.049256
	   91 D(8,1,2,16)     =   -177.107199     0.000001     1.355084  -175.752115
	   92 D(8,9,3,17)     =      3.068345    -0.000000    -0.288839     2.779506
	   93 D(8,9,4,18)     =      0.069200     0.000000     0.506192     0.575393
	   94 D(8,11,5,10)    =      0.651047     0.000001     0.236983     0.888030
	   95 D(8,11,5,19)    =   -178.777356     0.000001     0.743020  -178.034335
	   96 D(9,3,6,12)     =     -0.070015     0.000000    -0.257383    -0.327398
	   97 D(9,3,6,20)     =   -179.260726    -0.000000     0.027274  -179.233452
	   98 D(9,4,7,12)     =      0.232665     0.000000    -0.267536    -0.034872
	   99 D(9,4,7,21)     =   -179.297681     0.000000    -0.140159  -179.437841
	  100 D(9,8,1,15)     =      3.147599    -0.000001    -0.688164     2.459434
	  101 D(9,8,11,14)    =      2.191654     0.000001     0.797442     2.989096
	  102 D(10,2,1,15)    =    178.088107     0.000001     0.905902   178.994009
	  103 D(10,5,11,14)   =    178.110494    -0.000000    -1.045375   177.065119
	  104 D(11,5,10,13)   =    174.964474     0.000002    -0.216099   174.748375
	  105 D(11,8,1,15)    =   -176.526462    -0.000001    -0.833635  -177.360096
	  106 D(12,6,3,17)    =    178.000515     0.000000    -0.227958   177.772557
	  107 D(12,7,4,18)    =    178.997654     0.000000    -0.233545   178.764109
	  108 D(13,10,2,16)   =      3.374999    -0.000003    -1.469138     1.905861
	  109 D(13,10,5,19)   =     -5.607509     0.000001    -0.723547    -6.331055
	  110 D(14,11,5,19)   =     -1.317908    -0.000000    -0.539338    -1.857246
	  111 D(15,1,2,16)    =     -1.371207     0.000002     2.563846     1.192639
	  112 D(17,3,6,20)    =     -1.190196     0.000000     0.056699    -1.133498
	  113 D(18,4,7,21)    =     -0.532692    -0.000000    -0.106169    -0.638861
	  114 D(20,6,12,22)   =     -0.485192     0.000000    -0.053538    -0.538730
	  115 D(21,7,12,22)   =     -0.792038     0.000000    -0.068688    -0.860726
	  116 R(4,14)         =      2.762368    -0.000670    -0.022174     2.740194
	 ---------------------------------------------------------------------------
	Successfully symmetrized geometry.
	 Forces used to impose fixed constraints are not included.
	  Forces zeroed: 72 

  ==> Convergence Check <==

  Measures of convergence in internal coordinates in au.
  Criteria marked as inactive (o), active & met (*), and active & unmet ( ).
  ---------------------------------------------------------------------------------------------
   Step     Total Energy     Delta E     MAX Force     RMS Force      MAX Disp      RMS Disp   
  ---------------------------------------------------------------------------------------------
    Convergence Criteria    1.00e-06 *    3.00e-04 *             o    1.20e-03 *             o
  ---------------------------------------------------------------------------------------------
     29    -653.24739335   -9.59e-06      3.87e-04      8.50e-05 o    4.47e-02      9.27e-03 o  ~
  ---------------------------------------------------------------------------------------------

	Writing optimization data to binary file.
	Structure for next step:
	Cartesian Geometry (in Angstrom)
	    C    -1.1412819695   1.0582653018  -0.7421331446
	    C    -2.2182220290   1.6399594007  -0.1072396876
	    C     1.4913711562   0.2453400129  -1.8045578948
	    C     1.3431452445  -1.6716775723  -0.3762737988
	    C    -1.5676709738   0.5735681621   1.9582001465
	    C     2.5425987406  -0.3445888774  -2.4609898678
	    C     2.3991534816  -2.2306944721  -1.0523028503
	    C    -0.2633359814   0.2089247605  -0.0598193001
	    C     0.8557812975  -0.4063074176  -0.7389526494
	    C    -2.4174402540   1.4139140016   1.2541975876
	    C    -0.5206838015  -0.0159186368   1.2936557508
	    N     2.9667133900  -1.5582827670  -2.0683112216
	    O    -3.5030513509   1.8931048991   1.9109756549
	    F     0.3268672587  -0.7792168531   2.0068657559
	    H    -1.0039230297   1.2258024994  -1.8016981784
	    H    -2.9268652197   2.2405459958  -0.6689719337
	    H     1.1870077631   1.2358176632  -2.1089583131
	    H     0.8892024220  -2.2362174385   0.4223169250
	    H    -1.7155178135   0.3987113564   3.0160318227
	    H     3.0728589393   0.1189395886  -3.2781222851
	    H     2.8067182465  -3.2024394554  -0.8206848232
	    H     3.7475240594  -1.9819004928  -2.5539490696
	    H    -3.6660168150   2.8158911353   1.6744573828
			--------------------------
			 OPTKING Finished Execution 
			--------------------------

    Structure for next step:
    Molecular point group: c1
    Full point group: C1

    Geometry (in Angstrom), charge = 1, multiplicity = 1:

    C           -1.142190770494     1.058660916693    -0.739651750504
    C           -2.219130829994     1.640355015648    -0.104758293477
    C            1.490462355178     0.245735627782    -1.802076500613
    C            1.342236443511    -1.671281957447    -0.373792404701
    C           -1.568579774837     0.573963777020     1.960681540625
    C            2.541689939548    -0.344193262505    -2.458508473677
    C            2.398244680582    -2.230298857205    -1.049821456168
    C           -0.264244782448     0.209320375444    -0.057337905974
    C            0.854872496478    -0.405911802703    -0.736471255227
    C           -2.418349054975     1.414309616539     1.256678981703
    C           -0.521592602501    -0.015523021925     1.296137144971
    N            2.965804588963    -1.557887152094    -2.065829827473
    O           -3.503960151902     1.893500514039     1.913457049082
    F            0.325958457700    -0.778821238210     2.009347150062
    H           -1.004831830697     1.226198114251    -1.799216784279
    H           -2.927774020743     2.240941610723    -0.666490539558
    H            1.186098962071     1.236213278117    -2.106476918931
    H            0.888293621024    -2.235821823591     0.424798319132
    H           -1.716426614538     0.399106971328     3.018513216850
    H            3.071950138256     0.119335203506    -3.275640890969
    H            2.805809445484    -3.202043840520    -0.818203429047
    H            3.746615258432    -1.981504877908    -2.551467675476
    H           -3.666925616024     2.816286750207     1.676938776939

gradient() will perform analytic gradient computation.

*** tstart() called on gpu-1-15.local
*** at Sun Nov 12 18:50:58 2017

    SCF Algorithm Type (re)set to DF.

*** tstart() called on gpu-1-15.local
*** at Sun Nov 12 18:50:58 2017

   => Loading Basis Set <=

    Name: AUG-CC-PVTZ
    Role: ORBITAL
    Keyword: BASIS
    atoms 1-11  entry C          line   221 file /cbio/jclab/home/chayas/anaconda/envs/py35/share/psi4/basis/aug-cc-pvtz.gbs 
    atoms 12    entry N          line   267 file /cbio/jclab/home/chayas/anaconda/envs/py35/share/psi4/basis/aug-cc-pvtz.gbs 
    atoms 13    entry O          line   313 file /cbio/jclab/home/chayas/anaconda/envs/py35/share/psi4/basis/aug-cc-pvtz.gbs 
    atoms 14    entry F          line   359 file /cbio/jclab/home/chayas/anaconda/envs/py35/share/psi4/basis/aug-cc-pvtz.gbs 
    atoms 15-23 entry H          line    34 file /cbio/jclab/home/chayas/anaconda/envs/py35/share/psi4/basis/aug-cc-pvtz.gbs 


         ---------------------------------------------------------
                                   SCF
            by Justin Turney, Rob Parrish, and Andy Simmonett
                              RHF Reference
                        8 Threads,   4768 MiB Core
         ---------------------------------------------------------

  ==> Geometry <==

    Molecular point group: c1
    Full point group: C1

    Geometry (in Angstrom), charge = 1, multiplicity = 1:

       Center              X                  Y                   Z               Mass       
    ------------   -----------------  -----------------  -----------------  -----------------
           C         -1.142190770494     1.058660916693    -0.739651750504    12.000000000000
           C         -2.219130829994     1.640355015648    -0.104758293477    12.000000000000
           C          1.490462355178     0.245735627782    -1.802076500613    12.000000000000
           C          1.342236443511    -1.671281957447    -0.373792404701    12.000000000000
           C         -1.568579774837     0.573963777020     1.960681540625    12.000000000000
           C          2.541689939548    -0.344193262505    -2.458508473677    12.000000000000
           C          2.398244680582    -2.230298857205    -1.049821456168    12.000000000000
           C         -0.264244782448     0.209320375444    -0.057337905974    12.000000000000
           C          0.854872496478    -0.405911802703    -0.736471255227    12.000000000000
           C         -2.418349054975     1.414309616539     1.256678981703    12.000000000000
           C         -0.521592602501    -0.015523021925     1.296137144971    12.000000000000
           N          2.965804588963    -1.557887152094    -2.065829827473    14.003074004780
           O         -3.503960151902     1.893500514039     1.913457049082    15.994914619560
           F          0.325958457700    -0.778821238210     2.009347150062    18.998403224000
           H         -1.004831830697     1.226198114251    -1.799216784279     1.007825032070
           H         -2.927774020743     2.240941610723    -0.666490539558     1.007825032070
           H          1.186098962071     1.236213278117    -2.106476918931     1.007825032070
           H          0.888293621024    -2.235821823591     0.424798319132     1.007825032070
           H         -1.716426614538     0.399106971328     3.018513216850     1.007825032070
           H          3.071950138256     0.119335203506    -3.275640890969     1.007825032070
           H          2.805809445484    -3.202043840520    -0.818203429047     1.007825032070
           H          3.746615258432    -1.981504877908    -2.551467675476     1.007825032070
           H         -3.666925616024     2.816286750207     1.676938776939     1.007825032070

  Running in c1 symmetry.

  Rotational constants: A =      0.06324  B =      0.01313  C =      0.01114 [cm^-1]
  Rotational constants: A =   1895.87939  B =    393.67834  C =    333.83809 [MHz]
  Nuclear repulsion =  830.996019817561887

  Charge       = 1
  Multiplicity = 1
  Electrons    = 98
  Nalpha       = 49
  Nbeta        = 49

  ==> Algorithm <==

  SCF Algorithm Type is DF.
  DIIS enabled.
  MOM disabled.
  Fractional occupation disabled.
  Guess Type is READ.
  Energy threshold   = 1.00e-10
  Density threshold  = 1.00e-10
  Integral threshold = 0.00e+00

  ==> Primary Basis <==

  Basis Set: AUG-CC-PVTZ
    Blend: AUG-CC-PVTZ
    Number of shells: 277
    Number of basis function: 851
    Number of Cartesian functions: 995
    Spherical Harmonics?: true
    Max angular momentum: 3

   => Loading Basis Set <=

    Name: (AUG-CC-PVTZ AUX)
    Role: JKFIT
    Keyword: DF_BASIS_SCF
    atoms 1-11  entry C          line   161 file /cbio/jclab/home/chayas/anaconda/envs/py35/share/psi4/basis/aug-cc-pvtz-jkfit.gbs 
    atoms 12    entry N          line   223 file /cbio/jclab/home/chayas/anaconda/envs/py35/share/psi4/basis/aug-cc-pvtz-jkfit.gbs 
    atoms 13    entry O          line   285 file /cbio/jclab/home/chayas/anaconda/envs/py35/share/psi4/basis/aug-cc-pvtz-jkfit.gbs 
    atoms 14    entry F          line   347 file /cbio/jclab/home/chayas/anaconda/envs/py35/share/psi4/basis/aug-cc-pvtz-jkfit.gbs 
    atoms 15-23 entry H          line    69 file /cbio/jclab/home/chayas/anaconda/envs/py35/share/psi4/basis/aug-cc-pvtz-jkfit.gbs 

  Reading orbitals from file 180, no projection.

  ==> Pre-Iterations <==

   -------------------------------------------------------
    Irrep   Nso     Nmo     Nalpha   Nbeta   Ndocc  Nsocc
   -------------------------------------------------------
     A        851     851       0       0       0       0
   -------------------------------------------------------
    Total     851     851      49      49      49       0
   -------------------------------------------------------

  ==> Integral Setup <==

  ==> DFJK: Density-Fitted J/K Matrices <==

    J tasked:                  Yes
    K tasked:                  Yes
    wK tasked:                  No
    OpenMP threads:              8
    Integrals threads:           8
    Memory (MB):              3576
    Algorithm:                Disk
    Integral Cache:           NONE
    Schwarz Cutoff:          1E-12
    Fitting Condition:       1E-12

   => Auxiliary Basis Set <=

  Basis Set: (AUG-CC-PVTZ AUX)
    Blend: AUG-CC-PVTZ-JKFIT
    Number of shells: 546
    Number of basis function: 1870
    Number of Cartesian functions: 2329
    Spherical Harmonics?: true
    Max angular momentum: 4

  Minimum eigenvalue in the overlap matrix is 6.2962536553E-07.
  Using Symmetric Orthogonalization.

  SCF Guess: Orbitals guess was supplied from a previous computation.

  ==> Iterations <==

                           Total Energy        Delta E     RMS |[F,P]|

   @DF-RHF iter   0:  -650.51698421201672   -6.50517e+02   3.08908e-04 
   @DF-RHF iter   1:  -650.56522150935700   -4.82373e-02   5.53992e-05 
   @DF-RHF iter   2:  -650.56537562166477   -1.54112e-04   2.54325e-05 DIIS
   @DF-RHF iter   3:  -650.56543625653080   -6.06349e-05   6.68098e-06 DIIS
   @DF-RHF iter   4:  -650.56544102874318   -4.77221e-06   3.11758e-06 DIIS
   @DF-RHF iter   5:  -650.56544175977410   -7.31031e-07   8.68441e-07 DIIS
   @DF-RHF iter   6:  -650.56544187169550   -1.11921e-07   4.22137e-07 DIIS
   @DF-RHF iter   7:  -650.56544189207978   -2.03843e-08   1.41659e-07 DIIS
   @DF-RHF iter   8:  -650.56544189552869   -3.44892e-09   5.69801e-08 DIIS
   @DF-RHF iter   9:  -650.56544189624765   -7.18956e-10   2.58793e-08 DIIS
   @DF-RHF iter  10:  -650.56544189642796   -1.80307e-10   1.18301e-08 DIIS
   @DF-RHF iter  11:  -650.56544189651686   -8.89031e-11   3.55219e-09 DIIS
   @DF-RHF iter  12:  -650.56544189649253    2.43290e-11   1.39323e-09 DIIS
   @DF-RHF iter  13:  -650.56544189651311   -2.05773e-11   4.55616e-10 DIIS
   @DF-RHF iter  14:  -650.56544189648832    2.47837e-11   2.44431e-10 DIIS
   @DF-RHF iter  15:  -650.56544189648230    6.02540e-12   1.23279e-10 DIIS
