
    -----------------------------------------------------------------------
          Psi4: An Open-Source Ab Initio Electronic Structure Package
                               Psi4 1.1 release

                         Git: Rev {HEAD} add49b9 


    R. M. Parrish, L. A. Burns, D. G. A. Smith, A. C. Simmonett,
    A. E. DePrince III, E. G. Hohenstein, U. Bozkaya, A. Yu. Sokolov,
    R. Di Remigio, R. M. Richard, J. F. Gonthier, A. M. James,
    H. R. McAlexander, A. Kumar, M. Saitow, X. Wang, B. P. Pritchard,
    P. Verma, H. F. Schaefer III, K. Patkowski, R. A. King, E. F. Valeev,
    F. A. Evangelista, J. M. Turney, T. D. Crawford, and C. D. Sherrill,
    J. Chem. Theory Comput. in press (2017).
    (doi: 10.1021/acs.jctc.7b00174)

    -----------------------------------------------------------------------


    Psi4 started on: Saturday, 11 November 2017 06:12PM

    Process ID:  29385
    PSIDATADIR: /cbio/jclab/home/chayas/anaconda/envs/py35/share/psi4
    Memory:     500.0 MiB
    Threads:    8
    
  ==> Input File <==

--------------------------------------------------------------------------

memory 5 Gb

molecule phepyrF {
  symmetry C1
  0 1 
  C      1.885   -1.036   -0.112
  C      0.807   -0.463   0.561
  C      2.921   -1.631   0.608
  C      0.764   -0.484   1.955
  C      5.255   -1.793   2.617
  C      3.694   -3.342   3.591
  C      6.250   -2.418   3.351
  C      4.759   -3.898   4.281
  C      2.878   -1.652   2.002
  C      3.955   -2.270   2.745
  C      1.800   -1.079   2.676
  N      6.035   -3.462   4.183
  F      1.744   -1.089   4.016
  H      1.918   -1.020   -1.198
  H      0.000   -0.000   -0.000
  H      3.755   -2.073   0.068
  H      -0.076   -0.038   2.480
  H      5.498   -0.958   1.968
  H      2.693   -3.741   3.716
  H      7.281   -2.083   3.288
  H      4.608   -4.736   4.953
  units Angstrom
}

dih_string = "3 9 10 5 60"
set optking fixed_dihedral = $dih_string

optimize('MP2/aug-cc-PVTZ')
--------------------------------------------------------------------------

  Memory set to   4.657 GiB by Python driver.
gradient() will perform analytic gradient computation.

*** tstart() called on gpu-2-10.local
*** at Sat Nov 11 18:12:58 2017

    SCF Algorithm Type (re)set to DF.

*** tstart() called on gpu-2-10.local
*** at Sat Nov 11 18:12:58 2017

   => Loading Basis Set <=

    Name: AUG-CC-PVTZ
    Role: ORBITAL
    Keyword: BASIS
    atoms 1-11  entry C          line   221 file /cbio/jclab/home/chayas/anaconda/envs/py35/share/psi4/basis/aug-cc-pvtz.gbs 
    atoms 12    entry N          line   267 file /cbio/jclab/home/chayas/anaconda/envs/py35/share/psi4/basis/aug-cc-pvtz.gbs 
    atoms 13    entry F          line   359 file /cbio/jclab/home/chayas/anaconda/envs/py35/share/psi4/basis/aug-cc-pvtz.gbs 
    atoms 14-21 entry H          line    34 file /cbio/jclab/home/chayas/anaconda/envs/py35/share/psi4/basis/aug-cc-pvtz.gbs 


         ---------------------------------------------------------
                                   SCF
            by Justin Turney, Rob Parrish, and Andy Simmonett
                              RHF Reference
                        8 Threads,   4768 MiB Core
         ---------------------------------------------------------

  ==> Geometry <==

    Molecular point group: c1
    Full point group: C1

    Geometry (in Angstrom), charge = 0, multiplicity = 1:

       Center              X                  Y                   Z               Mass       
    ------------   -----------------  -----------------  -----------------  -----------------
           C         -1.368914378838     0.840319666846    -2.663465212715    12.000000000000
           C         -2.446914378838     1.413319666846    -1.990465212715    12.000000000000
           C         -0.332914378838     0.245319666846    -1.943465212715    12.000000000000
           C         -2.489914378838     1.392319666846    -0.596465212715    12.000000000000
           C          2.001085621162     0.083319666846     0.065534787285    12.000000000000
           C          0.440085621162    -1.465680333154     1.039534787285    12.000000000000
           C          2.996085621162    -0.541680333154     0.799534787285    12.000000000000
           C          1.505085621162    -2.021680333154     1.729534787285    12.000000000000
           C         -0.375914378838     0.224319666846    -0.549465212715    12.000000000000
           C          0.701085621162    -0.393680333154     0.193534787285    12.000000000000
           C         -1.453914378838     0.797319666846     0.124534787285    12.000000000000
           N          2.781085621162    -1.585680333154     1.631534787285    14.003074004780
           F         -1.509914378838     0.787319666846     1.464534787285    18.998403224000
           H         -1.335914378838     0.856319666846    -3.749465212715     1.007825032070
           H         -3.253914378838     1.876319666846    -2.551465212715     1.007825032070
           H          0.501085621162    -0.196680333154    -2.483465212715     1.007825032070
           H         -3.329914378838     1.838319666846    -0.071465212715     1.007825032070
           H          2.244085621162     0.918319666846    -0.583465212715     1.007825032070
           H         -0.560914378838    -1.864680333154     1.164534787285     1.007825032070
           H          4.027085621162    -0.206680333154     0.736534787285     1.007825032070
           H          1.354085621162    -2.859680333154     2.401534787285     1.007825032070

  Running in c1 symmetry.

  Rotational constants: A =      0.06384  B =      0.01782  C =      0.01530 [cm^-1]
  Rotational constants: A =   1913.88090  B =    534.25190  C =    458.72377 [MHz]
  Nuclear repulsion =  715.389372580483837

  Charge       = 0
  Multiplicity = 1
  Electrons    = 90
  Nalpha       = 45
  Nbeta        = 45

  ==> Algorithm <==

  SCF Algorithm Type is DF.
  DIIS enabled.
  MOM disabled.
  Fractional occupation disabled.
  Guess Type is SAD.
  Energy threshold   = 1.00e-10
  Density threshold  = 1.00e-10
  Integral threshold = 0.00e+00

  ==> Primary Basis <==

  Basis Set: AUG-CC-PVTZ
    Blend: AUG-CC-PVTZ
    Number of shells: 254
    Number of basis function: 782
    Number of Cartesian functions: 915
    Spherical Harmonics?: true
    Max angular momentum: 3

   => Loading Basis Set <=

    Name: (AUG-CC-PVTZ AUX)
    Role: JKFIT
    Keyword: DF_BASIS_SCF
    atoms 1-11  entry C          line   161 file /cbio/jclab/home/chayas/anaconda/envs/py35/share/psi4/basis/aug-cc-pvtz-jkfit.gbs 
    atoms 12    entry N          line   223 file /cbio/jclab/home/chayas/anaconda/envs/py35/share/psi4/basis/aug-cc-pvtz-jkfit.gbs 
    atoms 13    entry F          line   347 file /cbio/jclab/home/chayas/anaconda/envs/py35/share/psi4/basis/aug-cc-pvtz-jkfit.gbs 
    atoms 14-21 entry H          line    69 file /cbio/jclab/home/chayas/anaconda/envs/py35/share/psi4/basis/aug-cc-pvtz-jkfit.gbs 

  ==> Pre-Iterations <==

   -------------------------------------------------------
    Irrep   Nso     Nmo     Nalpha   Nbeta   Ndocc  Nsocc
   -------------------------------------------------------
     A        782     782       0       0       0       0
   -------------------------------------------------------
    Total     782     782      45      45      45       0
   -------------------------------------------------------

  ==> Integral Setup <==

  ==> DFJK: Density-Fitted J/K Matrices <==

    J tasked:                  Yes
    K tasked:                  Yes
    wK tasked:                  No
    OpenMP threads:              8
    Integrals threads:           8
    Memory (MB):              3576
    Algorithm:                Disk
    Integral Cache:           NONE
    Schwarz Cutoff:          1E-12
    Fitting Condition:       1E-12

   => Auxiliary Basis Set <=

  Basis Set: (AUG-CC-PVTZ AUX)
    Blend: AUG-CC-PVTZ-JKFIT
    Number of shells: 502
    Number of basis function: 1720
    Number of Cartesian functions: 2143
    Spherical Harmonics?: true
    Max angular momentum: 4

  Minimum eigenvalue in the overlap matrix is 6.6700815776E-07.
  Using Symmetric Orthogonalization.

  SCF Guess: Superposition of Atomic Densities via on-the-fly atomic UHF.

  ==> Iterations <==

                           Total Energy        Delta E     RMS |[F,P]|

   @DF-RHF iter   0:  -582.41209261982885   -5.82412e+02   2.33675e-02 
   @DF-RHF iter   1:  -574.95576623238094    7.45633e+00   1.94888e-03 
   @DF-RHF iter   2:  -575.22414809350857   -2.68382e-01   8.59230e-04 DIIS
   @DF-RHF iter   3:  -575.26508618869752   -4.09381e-02   4.92128e-04 DIIS
   @DF-RHF iter   4:  -575.28142752300255   -1.63413e-02   1.43493e-04 DIIS
   @DF-RHF iter   5:  -575.28341638230461   -1.98886e-03   4.92886e-05 DIIS
   @DF-RHF iter   6:  -575.28367117102277   -2.54789e-04   1.88144e-05 DIIS
   @DF-RHF iter   7:  -575.28370324109369   -3.20701e-05   5.21797e-06 DIIS
   @DF-RHF iter   8:  -575.28370703435348   -3.79326e-06   2.76608e-06 DIIS
   @DF-RHF iter   9:  -575.28370824265949   -1.20831e-06   1.32795e-06 DIIS
   @DF-RHF iter  10:  -575.28370871697041   -4.74311e-07   5.59207e-07 DIIS
   @DF-RHF iter  11:  -575.28370877936982   -6.23994e-08   1.48032e-07 DIIS
   @DF-RHF iter  12:  -575.28370878612509   -6.75527e-09   6.28651e-08 DIIS
   @DF-RHF iter  13:  -575.28370878662145   -4.96357e-10   2.06830e-08 DIIS
   @DF-RHF iter  14:  -575.28370878671649   -9.50422e-11   9.48316e-09 DIIS
   @DF-RHF iter  15:  -575.28370878673991   -2.34195e-11   4.28753e-09 DIIS
   @DF-RHF iter  16:  -575.28370878675571   -1.58025e-11   2.07353e-09 DIIS
   @DF-RHF iter  17:  -575.28370878674764    8.07177e-12   7.80326e-10 DIIS
   @DF-RHF iter  18:  -575.28370878674480    2.84217e-12   4.75668e-10 DIIS
   @DF-RHF iter  19:  -575.28370878675582   -1.10276e-11   1.17186e-10 DIIS
   @DF-RHF iter  20:  -575.28370878674093    1.48930e-11   5.65118e-11 DIIS

  ==> Post-Iterations <==

    Orbital Energies (a.u.)
    -----------------------

    Doubly Occupied:                                                      

       1A    -26.322089     2A    -15.566918     3A    -11.341115  
       4A    -11.276281     5A    -11.275377     6A    -11.267087  
       7A    -11.260939     8A    -11.258173     9A    -11.257620  
      10A    -11.255106    11A    -11.250059    12A    -11.241608  
      13A    -11.240160    14A     -1.640689    15A     -1.251795  
      16A     -1.183274    17A     -1.113907    18A     -1.037789  
      19A     -1.032924    20A     -1.025671    21A     -0.892130  
      22A     -0.868134    23A     -0.849091    24A     -0.822923  
      25A     -0.756196    26A     -0.722895    27A     -0.714076  
      28A     -0.707216    29A     -0.669062    30A     -0.664622  
      31A     -0.652346    32A     -0.625366    33A     -0.611876  
      34A     -0.600614    35A     -0.588023    36A     -0.547606  
      37A     -0.535661    38A     -0.525368    39A     -0.514393  
      40A     -0.508799    41A     -0.420829    42A     -0.393184  
      43A     -0.354194    44A     -0.349362    45A     -0.339408  

    Virtual:                                                              

      46A      0.023669    47A      0.030571    48A      0.033595  
      49A      0.036749    50A      0.043757    51A      0.047520  
      52A      0.052569    53A      0.054278    54A      0.075021  
      55A      0.079802    56A      0.085885    57A      0.088516  
      58A      0.092566    59A      0.093142    60A      0.098082  
      61A      0.101600    62A      0.107136    63A      0.107810  
      64A      0.112136    65A      0.113569    66A      0.115382  
      67A      0.118587    68A      0.122415    69A      0.127003  
      70A      0.128925    71A      0.132495    72A      0.134551  
      73A      0.135540    74A      0.142994    75A      0.143381  
      76A      0.147099    77A      0.147679    78A      0.152675  
      79A      0.155338    80A      0.157524    81A      0.170004  
      82A      0.174292    83A      0.175733    84A      0.185976  
      85A      0.187326    86A      0.196911    87A      0.200608  
      88A      0.213345    89A      0.217622    90A      0.224402  
      91A      0.233193    92A      0.236790    93A      0.239852  
      94A      0.241313    95A      0.242704    96A      0.246322  
      97A      0.252137    98A      0.254194    99A      0.259993  
     100A      0.263111   101A      0.267698   102A      0.269605  
     103A      0.273162   104A      0.280486   105A      0.280902  
     106A      0.283026   107A      0.295146   108A      0.295231  
     109A      0.299496   110A      0.307851   111A      0.308600  
     112A      0.312168   113A      0.315831   114A      0.319684  
     115A      0.323237   116A      0.324882   117A      0.327625  
     118A      0.330976   119A      0.336114   120A      0.343484  
     121A      0.349401   122A      0.353293   123A      0.357424  
     124A      0.361956   125A      0.374167   126A      0.377849  
     127A      0.381983   128A      0.385942   129A      0.392690  
     130A      0.395540   131A      0.405297   132A      0.409367  
     133A      0.413620   134A      0.415929   135A      0.421979  
     136A      0.424844   137A      0.431722   138A      0.435394  
     139A      0.439280   140A      0.439789   141A      0.446065  
     142A      0.449253   143A      0.458316   144A      0.460837  
     145A      0.468068   146A      0.469564   147A      0.473824  
     148A      0.474391   149A      0.479341   150A      0.482068  
     151A      0.484139   152A      0.486193   153A      0.490117  
     154A      0.493975   155A      0.497347   156A      0.504922  
     157A      0.507745   158A      0.509590   159A      0.512162  
     160A      0.514448   161A      0.520890   162A      0.521652  
     163A      0.523230   164A      0.527256   165A      0.531332  
     166A      0.538466   167A      0.541764   168A      0.546335  
     169A      0.548231   170A      0.551567   171A      0.557494  
     172A      0.565487   173A      0.569286   174A      0.576685  
     175A      0.578467   176A      0.586822   177A      0.593102  
     178A      0.598297   179A      0.603520   180A      0.616355  
     181A      0.620572   182A      0.625155   183A      0.631338  
     184A      0.636419   185A      0.639774   186A      0.647012  
     187A      0.655293   188A      0.661333   189A      0.671682  
     190A      0.673653   191A      0.676116   192A      0.682781  
     193A      0.687021   194A      0.698212   195A      0.701006  
     196A      0.705734   197A      0.707227   198A      0.714896  
     199A      0.721636   200A      0.723213   201A      0.732851  
     202A      0.737271   203A      0.743323   204A      0.747243  
     205A      0.749319   206A      0.758159   207A      0.763100  
     208A      0.770832   209A      0.782745   210A      0.785971  
     211A      0.790519   212A      0.793847   213A      0.800458  
     214A      0.818369   215A      0.823315   216A      0.830956  
     217A      0.841068   218A      0.845281   219A      0.849990  
     220A      0.855309   221A      0.860262   222A      0.864678  
     223A      0.871852   224A      0.873160   225A      0.874937  
     226A      0.880799   227A      0.885025   228A      0.886308  
     229A      0.887999   230A      0.898416   231A      0.903307  
     232A      0.905976   233A      0.915271   234A      0.916707  
     235A      0.923815   236A      0.929741   237A      0.935686  
     238A      0.941454   239A      0.943819   240A      0.946980  
     241A      0.950365   242A      0.959815   243A      0.962370  
     244A      0.964265   245A      0.968778   246A      0.975963  
     247A      0.983378   248A      0.988233   249A      0.990960  
     250A      0.998543   251A      1.002919   252A      1.007895  
     253A      1.009435   254A      1.015130   255A      1.023383  
     256A      1.028047   257A      1.032245   258A      1.036659  
     259A      1.039156   260A      1.042258   261A      1.049446  
     262A      1.060706   263A      1.064575   264A      1.068238  
     265A      1.074602   266A      1.076150   267A      1.079905  
     268A      1.086017   269A      1.089383   270A      1.093442  
     271A      1.097806   272A      1.100796   273A      1.110053  
     274A      1.117144   275A      1.118871   276A      1.126043  
     277A      1.133849   278A      1.136353   279A      1.137269  
     280A      1.143019   281A      1.146441   282A      1.153151  
     283A      1.155464   284A      1.167872   285A      1.170382  
     286A      1.176475   287A      1.178932   288A      1.183398  
     289A      1.190925   290A      1.198151   291A      1.201961  
     292A      1.210367   293A      1.212488   294A      1.213699  
     295A      1.220972   296A      1.224501   297A      1.232704  
     298A      1.239070   299A      1.245923   300A      1.251723  
     301A      1.255061   302A      1.264686   303A      1.270345  
     304A      1.275881   305A      1.279042   306A      1.284290  
     307A      1.290822   308A      1.295621   309A      1.306785  
     310A      1.313164   311A      1.316013   312A      1.322762  
     313A      1.340583   314A      1.349883   315A      1.351183  
     316A      1.358985   317A      1.368118   318A      1.372631  
     319A      1.373792   320A      1.385488   321A      1.390098  
     322A      1.397487   323A      1.400644   324A      1.407063  
     325A      1.416844   326A      1.424904   327A      1.433372  
     328A      1.440912   329A      1.445485   330A      1.461242  
     331A      1.469078   332A      1.476651   333A      1.483281  
     334A      1.492878   335A      1.497874   336A      1.500984  
     337A      1.504204   338A      1.530334   339A      1.537613  
     340A      1.545973   341A      1.557116   342A      1.562315  
     343A      1.567374   344A      1.571395   345A      1.575787  
     346A      1.585762   347A      1.594550   348A      1.599410  
     349A      1.612082   350A      1.626099   351A      1.629510  
     352A      1.641531   353A      1.646727   354A      1.659201  
     355A      1.666623   356A      1.671120   357A      1.675919  
     358A      1.686104   359A      1.693033   360A      1.698963  
     361A      1.703318   362A      1.714261   363A      1.727114  
     364A      1.728737   365A      1.731694   366A      1.735834  
     367A      1.743571   368A      1.754078   369A      1.761185  
     370A      1.766439   371A      1.784500   372A      1.786955  
     373A      1.798356   374A      1.804802   375A      1.810438  
     376A      1.822769   377A      1.825027   378A      1.840244  
     379A      1.850741   380A      1.858082   381A      1.866773  
     382A      1.876717   383A      1.886946   384A      1.890499  
     385A      1.893162   386A      1.904793   387A      1.908024  
     388A      1.910827   389A      1.922882   390A      1.933954  
     391A      1.939805   392A      1.951861   393A      1.962498  
     394A      1.969355   395A      1.973200   396A      1.991424  
     397A      1.992920   398A      1.998078   399A      2.000517  
     400A      2.010637   401A      2.017663   402A      2.022450  
     403A      2.033283   404A      2.048042   405A      2.049681  
     406A      2.058838   407A      2.061377   408A      2.068423  
     409A      2.080092   410A      2.088691   411A      2.089987  
     412A      2.097111   413A      2.105750   414A      2.115665  
     415A      2.124009   416A      2.127084   417A      2.144677  
     418A      2.154931   419A      2.158461   420A      2.170591  
     421A      2.179048   422A      2.180725   423A      2.184968  
     424A      2.201191   425A      2.210166   426A      2.214666  
     427A      2.233021   428A      2.235136   429A      2.247594  
     430A      2.255637   431A      2.263134   432A      2.273632  
     433A      2.277167   434A      2.288152   435A      2.294711  
     436A      2.309540   437A      2.316336   438A      2.324773  
     439A      2.332287   440A      2.346917   441A      2.353836  
     442A      2.364175   443A      2.373074   444A      2.392587  
     445A      2.409137   446A      2.415348   447A      2.420786  
     448A      2.448785   449A      2.454774   450A      2.468548  
     451A      2.475685   452A      2.478454   453A      2.511279  
     454A      2.518674   455A      2.538285   456A      2.552699  
     457A      2.562113   458A      2.568659   459A      2.572871  
     460A      2.590985   461A      2.594280   462A      2.602542  
     463A      2.633391   464A      2.644661   465A      2.675702  
     466A      2.686880   467A      2.693494   468A      2.725073  
     469A      2.749896   470A      2.752734   471A      2.759904  
     472A      2.766423   473A      2.784860   474A      2.795485  
     475A      2.829990   476A      2.835029   477A      2.860068  
     478A      2.880882   479A      2.930144   480A      2.964168  
     481A      2.981434   482A      3.020783   483A      3.043486  
     484A      3.054311   485A      3.072465   486A      3.076757  
     487A      3.102156   488A      3.125968   489A      3.144079  
     490A      3.153484   491A      3.163042   492A      3.172987  
     493A      3.179094   494A      3.191294   495A      3.200910  
     496A      3.217465   497A      3.239669   498A      3.244685  
     499A      3.255657   500A      3.286045   501A      3.292234  
     502A      3.302007   503A      3.318097   504A      3.323069  
     505A      3.336781   506A      3.360282   507A      3.370504  
     508A      3.384881   509A      3.389507   510A      3.404448  
     511A      3.415556   512A      3.423236   513A      3.432072  
     514A      3.432227   515A      3.440539   516A      3.445460  
     517A      3.455185   518A      3.456654   519A      3.469127  
     520A      3.477524   521A      3.486276   522A      3.497365  
     523A      3.513872   524A      3.528404   525A      3.536306  
     526A      3.543975   527A      3.547721   528A      3.553895  
     529A      3.558246   530A      3.568738   531A      3.576100  
     532A      3.582823   533A      3.596009   534A      3.601127  
     535A      3.602907   536A      3.616151   537A      3.626188  
     538A      3.636591   539A      3.648013   540A      3.652213  
     541A      3.665191   542A      3.674567   543A      3.680595  
     544A      3.685723   545A      3.705500   546A      3.708616  
     547A      3.713004   548A      3.723790   549A      3.726848  
     550A      3.739054   551A      3.749029   552A      3.767641  
     553A      3.781323   554A      3.786363   555A      3.797332  
     556A      3.807453   557A      3.813766   558A      3.818408  
     559A      3.833822   560A      3.845009   561A      3.847281  
     562A      3.854107   563A      3.862137   564A      3.864935  
     565A      3.869304   566A      3.880702   567A      3.891976  
     568A      3.909525   569A      3.916892   570A      3.926462  
     571A      3.934902   572A      3.940933   573A      3.947410  
     574A      3.953636   575A      3.956582   576A      3.975923  
     577A      3.979583   578A      3.982703   579A      3.999842  
     580A      4.003605   581A      4.009658   582A      4.019270  
     583A      4.029089   584A      4.032271   585A      4.034508  
     586A      4.050304   587A      4.064498   588A      4.074455  
     589A      4.081855   590A      4.087237   591A      4.103448  
     592A      4.104453   593A      4.117650   594A      4.122482  
     595A      4.133477   596A      4.138844   597A      4.144918  
     598A      4.158244   599A      4.171568   600A      4.190723  
     601A      4.200852   602A      4.210198   603A      4.219519  
     604A      4.230658   605A      4.233014   606A      4.253261  
     607A      4.259187   608A      4.270194   609A      4.282307  
     610A      4.294508   611A      4.300176   612A      4.305047  
     613A      4.315897   614A      4.324106   615A      4.336804  
     616A      4.345780   617A      4.356048   618A      4.358403  
     619A      4.365378   620A      4.381924   621A      4.386636  
     622A      4.393152   623A      4.402419   624A      4.414287  
     625A      4.415627   626A      4.432376   627A      4.442479  
     628A      4.449751   629A      4.459812   630A      4.473417  
     631A      4.476496   632A      4.491895   633A      4.499623  
     634A      4.513545   635A      4.522464   636A      4.532469  
     637A      4.554334   638A      4.575629   639A      4.583258  
     640A      4.604043   641A      4.613999   642A      4.625624  
     643A      4.648965   644A      4.661358   645A      4.678889  
     646A      4.689190   647A      4.699956   648A      4.713086  
     649A      4.721685   650A      4.743272   651A      4.748305  
     652A      4.753678   653A      4.771398   654A      4.788278  
     655A      4.807177   656A      4.819990   657A      4.842795  
     658A      4.857292   659A      4.876816   660A      4.891770  
     661A      4.910990   662A      4.935292   663A      4.940577  
     664A      4.951866   665A      4.962111   666A      4.972984  
     667A      4.987857   668A      4.995452   669A      5.009108  
     670A      5.024457   671A      5.027578   672A      5.030100  
     673A      5.044597   674A      5.052331   675A      5.084896  
     676A      5.090036   677A      5.111256   678A      5.115368  
     679A      5.128919   680A      5.134284   681A      5.152248  
     682A      5.155004   683A      5.170043   684A      5.171624  
     685A      5.178822   686A      5.185533   687A      5.192230  
     688A      5.195000   689A      5.203631   690A      5.238134  
     691A      5.270602   692A      5.280655   693A      5.299981  
     694A      5.321950   695A      5.326732   696A      5.343439  
     697A      5.356255   698A      5.369609   699A      5.380669  
     700A      5.392074   701A      5.431987   702A      5.444641  
     703A      5.451993   704A      5.457588   705A      5.476729  
     706A      5.518844   707A      5.528760   708A      5.547532  
     709A      5.561267   710A      5.587086   711A      5.634124  
     712A      5.640953   713A      5.663495   714A      5.689442  
     715A      5.714336   716A      5.756150   717A      5.775945  
     718A      5.789747   719A      5.798962   720A      5.806164  
     721A      5.838222   722A      5.864014   723A      5.884486  
     724A      5.907041   725A      5.952468   726A      5.993701  
     727A      6.058139   728A      6.079849   729A      6.112874  
     730A      6.169698   731A      6.180581   732A      6.216319  
     733A      6.237096   734A      6.261876   735A      6.280508  
     736A      6.298006   737A      6.336756   738A      6.357924  
     739A      6.362583   740A      6.482902   741A      6.506159  
     742A      6.535490   743A      6.565771   744A      6.656762  
     745A      6.695665   746A      6.711952   747A      6.729392  
     748A      6.828273   749A      6.871242   750A      6.924379  
     751A      6.984307   752A      7.031549   753A      7.057514  
     754A      7.076895   755A      7.292384   756A      7.415539  
     757A      7.474438   758A      9.005860   759A      9.049437  
     760A      9.269467   761A      9.289526   762A      9.406733  
     763A      9.517948   764A      9.539889   765A      9.592588  
     766A      9.651379   767A      9.718864   768A     10.027465  
     769A     10.076334   770A     15.530494   771A     16.124826  
     772A     16.497529   773A     16.584224   774A     16.680220  
     775A     18.423062   776A     18.642877   777A     19.033410  
     778A     19.297987   779A     20.048095   780A     20.108524  
     781A     20.273881   782A     21.819420  

    Final Occupation by Irrep:
              A 
    DOCC [    45 ]

  Energy converged.

  @DF-RHF Final Energy:  -575.28370878674093

   => Energetics <=

    Nuclear Repulsion Energy =            715.3893725804838368
    One-Electron Energy =               -2202.6822536019139989
    Two-Electron Energy =                 912.0091722346893448
    DFT Exchange-Correlation Energy =       0.0000000000000000
    Empirical Dispersion Energy =           0.0000000000000000
    PCM Polarization Energy =               0.0000000000000000
    EFP Energy =                            0.0000000000000000
    Total Energy =                       -575.2837087867409309



Properties will be evaluated at   0.000000,   0.000000,   0.000000 Bohr

Properties computed using the SCF density matrix

  Nuclear Dipole Moment: (a.u.)
     X:     1.0841      Y:    -0.3992      Z:    -6.2018

  Electronic Dipole Moment: (a.u.)
     X:    -1.8367      Y:     0.8358      Z:     5.0701

  Dipole Moment: (a.u.)
     X:    -0.7525      Y:     0.4367      Z:    -1.1317     Total:     1.4275

  Dipole Moment: (Debye)
     X:    -1.9127      Y:     1.1099      Z:    -2.8766     Total:     3.6284


*** tstop() called on gpu-2-10.local at Sat Nov 11 18:20:58 2017
Module time:
	user time   =    1376.90 seconds =      22.95 minutes
	system time =      52.69 seconds =       0.88 minutes
	total time  =        480 seconds =       8.00 minutes
Total time:
	user time   =    1376.90 seconds =      22.95 minutes
	system time =      52.69 seconds =       0.88 minutes
	total time  =        480 seconds =       8.00 minutes

  //>>>>>>>>>>>>>>>>>>>>>>>>>>>>>>>>>>>//
  //               DFMP2               //
  //<<<<<<<<<<<<<<<<<<<<<<<<<<<<<<<<<<<//

   => Loading Basis Set <=

    Name: (AUG-CC-PVTZ AUX)
    Role: RIFIT
    Keyword: DF_BASIS_MP2
    atoms 1-11  entry C          line   147 file /cbio/jclab/home/chayas/anaconda/envs/py35/share/psi4/basis/aug-cc-pvtz-ri.gbs 
    atoms 12    entry N          line   205 file /cbio/jclab/home/chayas/anaconda/envs/py35/share/psi4/basis/aug-cc-pvtz-ri.gbs 
    atoms 13    entry F          line   321 file /cbio/jclab/home/chayas/anaconda/envs/py35/share/psi4/basis/aug-cc-pvtz-ri.gbs 
    atoms 14-21 entry H          line    29 file /cbio/jclab/home/chayas/anaconda/envs/py35/share/psi4/basis/aug-cc-pvtz-ri.gbs 

	 --------------------------------------------------------
	                          DF-MP2                         
	      2nd-Order Density-Fitted Moller-Plesset Theory     
	              RMP2 Wavefunction,   8 Threads             
	                                                         
	        Rob Parrish, Justin Turney, Andy Simmonett,      
	           Ed Hohenstein, and C. David Sherrill          
	 --------------------------------------------------------

   => Auxiliary Basis Set <=

  Basis Set: (AUG-CC-PVTZ AUX)
    Blend: AUG-CC-PVTZ-RI
    Number of shells: 476
    Number of basis function: 1746
    Number of Cartesian functions: 2208
    Spherical Harmonics?: true
    Max angular momentum: 4

	 --------------------------------------------------------
	                 NBF =   782, NAUX =  1746
	 --------------------------------------------------------
	   CLASS    FOCC     OCC    AOCC    AVIR     VIR    FVIR
	   PAIRS       0      45      45     737     737       0
	 --------------------------------------------------------


         ------------------------------------------------------------
                                     CPHF                           
                                  Rob Parrish                       
         ------------------------------------------------------------

  ==> Geometry <==

    Molecular point group: c1
    Full point group: C1

    Geometry (in Angstrom), charge = 0, multiplicity = 1:

       Center              X                  Y                   Z               Mass       
    ------------   -----------------  -----------------  -----------------  -----------------
           C         -1.368914378838     0.840319666846    -2.663465212715    12.000000000000
           C         -2.446914378838     1.413319666846    -1.990465212715    12.000000000000
           C         -0.332914378838     0.245319666846    -1.943465212715    12.000000000000
           C         -2.489914378838     1.392319666846    -0.596465212715    12.000000000000
           C          2.001085621162     0.083319666846     0.065534787285    12.000000000000
           C          0.440085621162    -1.465680333154     1.039534787285    12.000000000000
           C          2.996085621162    -0.541680333154     0.799534787285    12.000000000000
           C          1.505085621162    -2.021680333154     1.729534787285    12.000000000000
           C         -0.375914378838     0.224319666846    -0.549465212715    12.000000000000
           C          0.701085621162    -0.393680333154     0.193534787285    12.000000000000
           C         -1.453914378838     0.797319666846     0.124534787285    12.000000000000
           N          2.781085621162    -1.585680333154     1.631534787285    14.003074004780
           F         -1.509914378838     0.787319666846     1.464534787285    18.998403224000
           H         -1.335914378838     0.856319666846    -3.749465212715     1.007825032070
           H         -3.253914378838     1.876319666846    -2.551465212715     1.007825032070
           H          0.501085621162    -0.196680333154    -2.483465212715     1.007825032070
           H         -3.329914378838     1.838319666846    -0.071465212715     1.007825032070
           H          2.244085621162     0.918319666846    -0.583465212715     1.007825032070
           H         -0.560914378838    -1.864680333154     1.164534787285     1.007825032070
           H          4.027085621162    -0.206680333154     0.736534787285     1.007825032070
           H          1.354085621162    -2.859680333154     2.401534787285     1.007825032070

  Nuclear repulsion =  715.389372580483837
  Reference energy  = -575.283708786740931

  ==> Basis Set <==

  Basis Set: AUG-CC-PVTZ
    Blend: AUG-CC-PVTZ
    Number of shells: 254
    Number of basis function: 782
    Number of Cartesian functions: 915
    Spherical Harmonics?: true
    Max angular momentum: 3

  ==> CGRSolver (by Rob Parrish) <==

   Number of roots    =         1
   Preconditioning    =    JACOBI
   Convergence cutoff =     1E-06
   Maximum iterations =       100

  ==> CPHFRHamiltonian (by Rob Parrish) <== 

  ==> DFJK: Density-Fitted J/K Matrices <==

    J tasked:                  Yes
    K tasked:                  Yes
    wK tasked:                  No
    OpenMP threads:              8
    Integrals threads:           8
    Memory (MB):              3576
    Algorithm:                Disk
    Integral Cache:           NONE
    Schwarz Cutoff:          1E-12
    Fitting Condition:       1E-12

   => Auxiliary Basis Set <=

  Basis Set: (AUG-CC-PVTZ AUX)
    Blend: AUG-CC-PVTZ-JKFIT
    Number of shells: 502
    Number of basis function: 1720
    Number of Cartesian functions: 2143
    Spherical Harmonics?: true
    Max angular momentum: 4

  ==> CPHF Iterations <==

  => Iterations <=

             Iter  Converged  Remaining    Residual
  CGR           1          0          1   9.746E-02
  CGR           2          0          1   2.971E-02
  CGR           3          0          1   1.904E-02
  CGR           4          0          1   9.432E-03
  CGR           5          0          1   3.668E-03
  CGR           6          0          1   1.323E-03
  CGR           7          0          1   3.831E-04
  CGR           8          0          1   1.308E-04
  CGR           9          0          1   5.187E-05
  CGR          10          0          1   2.164E-05
  CGR          11          0          1   1.073E-05
  CGR          12          0          1   4.189E-06
  CGR          13          0          1   1.428E-06
  CGR          14          1          0   5.135E-07

    CGRSolver converged.

  ==> DFCorrGrad: Density-Fitted Correlated Gradients <==

    OpenMP threads:              8
    Integrals threads:           8
    Memory (MB):              3576
    Schwarz Cutoff:          0E+00
    Fitting Condition:       1E-12

   => Auxiliary Basis Set <=

  Basis Set: (AUG-CC-PVTZ AUX)
    Blend: AUG-CC-PVTZ-JKFIT
    Number of shells: 502
    Number of basis function: 1720
    Number of Cartesian functions: 2143
    Spherical Harmonics?: true
    Max angular momentum: 4

	-----------------------------------------------------------
	 ==================> DF-MP2 Energies <==================== 
	-----------------------------------------------------------
	 Reference Energy          =    -575.2837087867409309 [Eh]
	 Singles Energy            =      -0.0000000000000002 [Eh]
	 Same-Spin Energy          =      -0.6078579964762767 [Eh]
	 Opposite-Spin Energy      =      -1.8320528495882449 [Eh]
	 Correlation Energy        =      -2.4399108460645218 [Eh]
	 Total Energy              =    -577.7236196328054803 [Eh]
	-----------------------------------------------------------
	 ================> DF-SCS-MP2 Energies <================== 
	-----------------------------------------------------------
	 SCS Same-Spin Scale       =       0.3333333333333333 [-]
	 SCS Opposite-Spin Scale   =       1.2000000000000000 [-]
	 SCS Same-Spin Energy      =      -0.2026193321587589 [Eh]
	 SCS Opposite-Spin Energy  =      -2.1984634195058939 [Eh]
	 SCS Correlation Energy    =      -2.4010827516646529 [Eh]
	 SCS Total Energy          =    -577.6847915384055341 [Eh]
	-----------------------------------------------------------


  -Total Gradient:
     Atom            X                  Y                   Z
    ------   -----------------  -----------------  -----------------
       1       -0.001002261698     0.000344281588     0.000804174935
       2       -0.004005764122     0.002203771580    -0.001997075601
       3        0.010614150913    -0.008748043564     0.005807779907
       4        0.000935480284    -0.000221484704    -0.004388427303
       5       -0.002360883780     0.006242518960    -0.003355031031
       6       -0.007340443475    -0.000088238324    -0.003270217792
       7       -0.004185219212     0.010669995215    -0.009062326777
       8       -0.013280544800    -0.000419810241    -0.002374725637
       9        0.002623276976    -0.001256875242    -0.001051004927
      10       -0.001103532202     0.000272917890    -0.002664289380
      11        0.010481430710    -0.003968397886     0.023578719347
      12        0.012780981266    -0.007933223591     0.009153157676
      13       -0.002328293530     0.000702040041     0.002179922954
      14        0.000249096338     0.000232796737    -0.005350052514
      15       -0.003545235577     0.002153575623    -0.003861627130
      16        0.002934989111    -0.000854435046    -0.006571988771
      17       -0.005068021653     0.002479440180     0.000874714126
      18        0.003244859338     0.002812591879    -0.002398147163
      19       -0.003395055362    -0.003072331669     0.001765367849
      20        0.003460907696     0.000433707610     0.000241558882
      21        0.000290082784    -0.001984797035     0.001939518336


*** tstop() called on gpu-2-10.local at Sat Nov 11 18:50:17 2017
Module time:
	user time   =    5696.93 seconds =      94.95 minutes
	system time =     114.01 seconds =       1.90 minutes
	total time  =       2239 seconds =      37.32 minutes
Total time:
	user time   =    5696.93 seconds =      94.95 minutes
	system time =     114.01 seconds =       1.90 minutes
	total time  =       2239 seconds =      37.32 minutes

			-----------------------------------------
			 OPTKING 2.0: for geometry optimizations 
			  - R.A. King,  Bethel University        
			-----------------------------------------

	Internal coordinates to be generated automatically.
	Detected frag 1 with atoms:  1 2 3 4 5 6 7 8 9 10 11 12 13 14 15 16 17 18 19 20
	 21
	---Fragment 1 Bond Connectivity---
	 1 : 2 3 14
	 2 : 1 4 15
	 3 : 1 9 16
	 4 : 2 11 17
	 5 : 7 10 18
	 6 : 8 10 19
	 7 : 5 12 20
	 8 : 6 12 21
	 9 : 3 10 11
	 10 : 5 6 9
	 11 : 4 9 13
	 12 : 7 8
	 13 : 11
	 14 : 1
	 15 : 2
	 16 : 3
	 17 : 4
	 18 : 5
	 19 : 6
	 20 : 7
	 21 : 8

	Assuming in current code that numbering for constraints corresponds to unified fragment.
	Fixed dihedral atom list: 
	     3     9    10     5
	---Fragment 1 Geometry and Gradient---
	 C          -2.5868732754        1.5879740344       -5.0332198165
	 C          -4.6239980466        2.6707871086       -3.7614341291
	 C          -0.6291170017        0.4635869853       -3.6726170008
	 C          -4.7052562703        2.6311028598       -1.1271558998
	 C           3.7815037925        0.1574513518        0.1238428001
	 C           0.8316412990       -2.7697344280        1.9644360536
	 C           5.6617812947       -1.0236274812        1.5109017817
	 C           2.8441996305       -3.8204221579        3.2683470853
	 C          -0.7103752254        0.4239027366       -1.0383387716
	 C           1.3248598197       -0.7439480136        0.3657277452
	 C          -2.7474999967        1.5067158107        0.2353366420
	 N           5.2554901761       -2.9965015640        3.0831539242
	 F          -2.8533246601        1.4878185494        2.7675696601
	 H          -2.5245123130        1.6182096525       -7.0854623968
	 H          -6.1490070359        3.5457303081       -4.8215704896
	 H           0.9469145931       -0.3716719654       -4.6930691126
	 H          -6.2926262220        3.4739207150       -0.1350496801
	 H           4.2407072427        1.7353726728       -1.1025894601
	 H          -1.0599745600       -3.5237351550        2.2006518202
	 H           7.6100889377       -0.3905692267        1.3918490353
	 H           2.5588509845       -5.4040126573        4.5382430466
	            -0.0010022617        0.0003442816        0.0008041749
	            -0.0040057641        0.0022037716       -0.0019970756
	             0.0106141509       -0.0087480436        0.0058077799
	             0.0009354803       -0.0002214847       -0.0043884273
	            -0.0023608838        0.0062425190       -0.0033550310
	            -0.0073404435       -0.0000882383       -0.0032702178
	            -0.0041852192        0.0106699952       -0.0090623268
	            -0.0132805448       -0.0004198102       -0.0023747256
	             0.0026232770       -0.0012568752       -0.0010510049
	            -0.0011035322        0.0002729179       -0.0026642894
	             0.0104814307       -0.0039683979        0.0235787193
	             0.0127809813       -0.0079332236        0.0091531577
	            -0.0023282935        0.0007020400        0.0021799230
	             0.0002490963        0.0002327967       -0.0053500525
	            -0.0035452356        0.0021535756       -0.0038616271
	             0.0029349891       -0.0008544350       -0.0065719888
	            -0.0050680217        0.0024794402        0.0008747141
	             0.0032448593        0.0028125919       -0.0023981472
	            -0.0033950554       -0.0030723317        0.0017653678
	             0.0034609077        0.0004337076        0.0002415589
	             0.0002900828       -0.0019847970        0.0019395183

	Previous optimization step data not found.  Starting new optimization.

	---Fragment 1 Intrafragment Coordinates---
	 - Coordinate -           - BOHR/RAD -       - ANG/DEG -
	 R(1,2)           =         2.634350	       1.394038
	 R(1,3)           =         2.635962	       1.394891
	 R(1,14)          =         2.053412	       1.086619
	 R(2,4)           =         2.635830	       1.394821
	 R(2,15)          =         2.053063	       1.086434
	 R(3,9)           =         2.635830	       1.394821
	 R(3,16)          =         2.054959	       1.087437
	 R(4,11)          =         2.636938	       1.395407
	 R(4,17)          =         2.052891	       1.086343
	 R(5,7)           =         2.618076	       1.385426
	 R(5,10)          =         2.627951	       1.390652
	 R(5,18)          =         2.050571	       1.085115
	 R(6,8)           =         2.618114	       1.385446
	 R(6,10)          =         2.627345	       1.390331
	 R(6,19)          =         2.050006	       1.084817
	 R(7,12)          =         2.555246	       1.352178
	 R(7,20)          =         2.052033	       1.085889
	 R(8,12)          =         2.554890	       1.351990
	 R(8,21)          =         2.049834	       1.084725
	 R(9,10)          =         2.734494	       1.447032
	 R(9,11)          =         2.635263	       1.394521
	 R(11,13)         =         2.534514	       1.341207
	 B(1,2,4)         =         2.094553	     120.009056
	 B(1,2,15)        =         2.094721	     120.018646
	 B(1,3,9)         =         2.093692	     119.959722
	 B(1,3,16)        =         2.079074	     119.122177
	 B(2,1,3)         =         2.094940	     120.031219
	 B(2,1,14)        =         2.094311	     119.995189
	 B(2,4,11)        =         2.094306	     119.994870
	 B(2,4,17)        =         2.095140	     120.042665
	 B(3,1,14)        =         2.093934	     119.973570
	 B(3,9,10)        =         2.090528	     119.778448
	 B(3,9,11)        =         2.095181	     120.045019
	 B(4,2,15)        =         2.093912	     119.972298
	 B(4,11,9)        =         2.093699	     119.960108
	 B(4,11,13)       =         2.081063	     119.236128
	 B(5,7,12)        =         2.165305	     124.062851
	 B(5,7,20)        =         2.108281	     120.795605
	 B(5,10,6)        =         2.089742	     119.733406
	 B(5,10,9)        =         2.096721	     120.133273
	 B(6,8,12)        =         2.165158	     124.054434
	 B(6,8,21)        =         2.107800	     120.768065
	 B(6,10,9)        =         2.096721	     120.133273
	 B(7,5,10)        =         2.057677	     117.896230
	 B(7,5,18)        =         2.098072	     120.210690
	 B(7,12,8)        =         2.030470	     116.337345
	 B(8,6,10)        =         2.058018	     117.915719
	 B(8,6,19)        =         2.099391	     120.286257
	 B(9,3,16)        =         2.110419	     120.918077
	 B(9,11,13)       =         2.108422	     120.803676
	 B(10,5,18)       =         2.127435	     121.893034
	 B(10,6,19)       =         2.125776	     121.798016
	 B(10,9,11)       =         2.097476	     120.176533
	 B(11,4,17)       =         2.093740	     119.962450
	 B(12,7,20)       =         2.009598	     115.141485
	 B(12,8,21)       =         2.010227	     115.177495
	 D(1,2,4,11)      =        -0.000325	      -0.018609
	 D(1,2,4,17)      =        -3.141151	    -179.974682
	 D(1,3,9,10)      =        -3.141334	    -179.985190
	 D(1,3,9,11)      =         0.000325	       0.018608
	 D(2,1,3,9)       =        -0.000348	      -0.019945
	 D(2,1,3,16)      =        -3.140969	    -179.964243
	 D(2,4,11,9)      =         0.000301	       0.017261
	 D(2,4,11,13)     =         3.140029	     179.910408
	 D(3,1,2,4)       =         0.000348	       0.019955
	 D(3,1,2,15)      =        -3.141142	    -179.974167
	 D(3,9,10,5)      =         1.047249	      60.002929
	 D(3,9,10,6)      =        -2.095739	    -120.077013
	 D(3,9,11,4)      =        -0.000301	      -0.017270
	 D(3,9,11,13)     =        -3.139999	    -179.908714
	 D(4,2,1,14)      =         3.141002	     179.966134
	 D(4,11,9,10)     =         3.141358	     179.986543
	 D(5,7,12,8)      =         0.000266	       0.015251
	 D(5,10,6,8)      =        -0.000423	      -0.024254
	 D(5,10,6,19)     =        -3.141425	    -179.990369
	 D(5,10,9,11)     =        -2.094410	    -120.000874
	 D(6,8,12,7)      =        -0.000756	      -0.043333
	 D(6,10,5,7)      =        -0.000016	      -0.000898
	 D(6,10,5,18)     =        -3.140253	    -179.923240
	 D(6,10,9,11)     =         1.045787	      59.919185
	 D(7,5,10,9)      =         3.140187	     179.919481
	 D(7,12,8,21)     =         3.141308	     179.983719
	 D(8,6,10,9)      =        -3.140626	    -179.944633
	 D(8,12,7,20)     =         3.140317	     179.926886
	 D(9,3,1,14)      =        -3.141002	    -179.966136
	 D(9,10,5,18)     =        -0.000050	      -0.002861
	 D(9,10,6,19)     =         0.001558	       0.089252
	 D(9,11,4,17)     =         3.141128	     179.973370
	 D(10,5,7,12)     =         0.000101	       0.005815
	 D(10,5,7,20)     =        -3.139866	    -179.901061
	 D(10,6,8,12)     =         0.000846	       0.048473
	 D(10,6,8,21)     =        -3.141244	    -179.980020
	 D(10,9,3,16)     =        -0.000731	      -0.041910
	 D(10,9,11,13)    =         0.001660	       0.095099
	 D(11,4,2,15)     =         3.141165	     179.975516
	 D(11,9,3,16)     =         3.140927	     179.961888
	 D(12,7,5,18)     =         3.140363	     179.929518
	 D(12,8,6,19)     =        -3.141329	    -179.984879
	 D(13,11,4,17)    =        -0.002330	      -0.133484
	 D(14,1,2,15)     =        -0.000488	      -0.027988
	 D(14,1,3,16)     =         0.001563	       0.089566
	 D(15,2,4,17)     =         0.000339	       0.019443
	 D(18,5,7,20)     =         0.000395	       0.022642
	 D(19,6,8,21)     =        -0.000233	      -0.013371
	 R(6,13)          =         5.687772	       3.009840

	Current energy   :      -577.7236196328

	Generating empirical Hessian (Schlegel '84) for each fragment.
	Adding user-defined constraint: Fragment 1; Coordinate 67:
		Value =     1.047249; Fixed value    =     1.047198
		Force =    -0.000026; Force constant =     0.500000
	Removing off-diagonal coupling between coordinate 67 and others.
	Taking RFO optimization step.
	Going to follow RFO solution 1.
	Using RFO vector 1.

	Determining step-restricting scale parameter for RS-RFO.
	Maximum step size allowed    0.10000

	 Iter      |step|        alpha        rfo_root  
	------------------------------------------------
	    0     0.15870       1.00000           1
	    1     0.13142       6.01471           1
	    2     0.11134      16.55963           1
	    3     0.10188      25.14038           1
	    4     0.10006      27.16816           1
	    5     0.10000      27.24181           1
	------------------------------------------------
	Norm of target step-size    0.10000
	Projected energy change by RFO approximation:        -0.0039895986

	Back-transformation to cartesian coordinates...
	Could not converge backtransformation.
	Using first guess instead.

	--- Internal Coordinate Step in ANG or DEG, aJ/ANG or AJ/DEG ---
	 ---------------------------------------------------------------------------
	   Coordinate                Previous        Force       Change         New 
	   ----------                --------       ------       ------       ------
	    1 R(1,2)          =      1.394038    -0.046872    -0.005165     1.388873
	    2 R(1,3)          =      1.394891    -0.053649    -0.005834     1.389057
	    3 R(1,14)         =      1.086619    -0.044142    -0.006051     1.080568
	    4 R(2,4)          =      1.394821    -0.066079    -0.007405     1.387416
	    5 R(2,15)         =      1.086434    -0.045685    -0.006233     1.080201
	    6 R(3,9)          =      1.394821    -0.026629    -0.002709     1.392112
	    7 R(3,16)         =      1.087437    -0.048292    -0.006598     1.080839
	    8 R(4,11)         =      1.395407    -0.106944    -0.011811     1.383596
	    9 R(4,17)         =      1.086343    -0.044156    -0.005925     1.080417
	   10 R(5,7)          =      1.385426     0.005789     0.000609     1.386035
	   11 R(5,10)         =      1.390652    -0.021399    -0.001811     1.388841
	   12 R(5,18)         =      1.085115    -0.035635    -0.004868     1.080247
	   13 R(6,8)          =      1.385446     0.001984     0.000206     1.385652
	   14 R(6,10)         =      1.390331    -0.018640    -0.001449     1.388882
	   15 R(6,19)         =      1.084817    -0.036795    -0.005020     1.079797
	   16 R(7,12)         =      1.352178    -0.123017    -0.012248     1.339930
	   17 R(7,20)         =      1.085889    -0.028060    -0.003841     1.082048
	   18 R(8,12)         =      1.351990    -0.117282    -0.011695     1.340295
	   19 R(8,21)         =      1.084725    -0.022199    -0.003015     1.081710
	   20 R(9,10)         =      1.447032     0.134896     0.017481     1.464513
	   21 R(9,11)         =      1.394521    -0.057990    -0.006009     1.388512
	   22 R(11,13)        =      1.341207    -0.019775    -0.001757     1.339450
	   23 B(1,2,4)        =    120.009056     0.000047     0.099198   120.108255
	   24 B(1,2,15)       =    120.018646     0.000068     0.200973   120.219619
	   25 B(1,3,9)        =    119.959722     0.000291     0.707689   120.667410
	   26 B(1,3,16)       =    119.122177     0.000186     0.553107   119.675285
	   27 B(2,1,3)        =    120.031219    -0.000093    -0.176430   119.854789
	   28 B(2,1,14)       =    119.995189     0.000046     0.087746   120.082936
	   29 B(2,4,11)       =    119.994870    -0.000273    -0.640096   119.354775
	   30 B(2,4,17)       =    120.042665     0.000289     0.737002   120.779667
	   31 B(3,1,14)       =    119.973570     0.000046     0.088634   120.062204
	   32 B(3,9,10)       =    119.778448     0.000523     1.006593   120.785041
	   33 B(3,9,11)       =    120.045019    -0.000762    -1.586368   118.458651
	   34 B(4,2,15)       =    119.972298    -0.000115    -0.300186   119.672112
	   35 B(4,11,9)       =    119.960108     0.000789     1.595850   121.555958
	   36 B(4,11,13)      =    119.236128    -0.000101    -0.249165   118.986963
	   37 B(5,7,12)       =    124.062851    -0.000032    -0.146902   123.915949
	   38 B(5,7,20)       =    120.795605    -0.000045    -0.094574   120.701031
	   39 B(5,10,6)       =    119.733406    -0.000809    -1.567023   118.166383
	   40 B(5,10,9)       =    120.133273     0.000380     0.697224   120.830497
	   41 B(6,8,12)       =    124.054434    -0.000018    -0.115262   123.939171
	   42 B(6,8,21)       =    120.768065    -0.000046    -0.093137   120.674928
	   43 B(6,10,9)       =    120.133273     0.000429     0.869549   121.002822
	   44 B(7,5,10)       =    117.896230     0.000358     0.869125   118.765355
	   45 B(7,5,18)       =    120.210690    -0.000002     0.050748   120.261438
	   46 B(7,12,8)       =    116.337345     0.000158     0.124242   116.461588
	   47 B(8,6,10)       =    117.915719     0.000343     0.835587   118.751306
	   48 B(8,6,19)       =    120.286257    -0.000013     0.015248   120.301505
	   49 B(9,3,16)       =    120.918077    -0.000477    -1.260796   119.657281
	   50 B(9,11,13)      =    120.803676    -0.000688    -1.347061   119.456616
	   51 B(10,5,18)      =    121.893034    -0.000357    -0.919909   120.973125
	   52 B(10,6,19)      =    121.798016    -0.000330    -0.850925   120.947090
	   53 B(10,9,11)      =    120.176533     0.000239     0.579476   120.756009
	   54 B(11,4,17)      =    119.962450    -0.000016    -0.096897   119.865553
	   55 B(12,7,20)      =    115.141485     0.000077     0.241299   115.382783
	   56 B(12,8,21)      =    115.177495     0.000064     0.208405   115.385900
	   57 D(1,2,4,11)     =     -0.018609    -0.000000    -0.008810    -0.027419
	   58 D(1,2,4,17)     =   -179.974682    -0.000001    -0.026770  -180.001452
	   59 D(1,3,9,10)     =   -179.985190    -0.000002    -0.111063  -180.096252
	   60 D(1,3,9,11)     =      0.018608     0.000002     0.082489     0.101096
	   61 D(2,1,3,9)      =     -0.019945     0.000001     0.008865    -0.011079
	   62 D(2,1,3,16)     =   -179.964243    -0.000004    -0.103765  -180.068008
	   63 D(2,4,11,9)     =      0.017261     0.000003     0.104558     0.121819
	   64 D(2,4,11,13)    =    179.910408    -0.000001    -0.037568   179.872839
	   65 D(3,1,2,4)      =      0.019955    -0.000002    -0.046659    -0.026705
	   66 D(3,1,2,15)     =   -179.974167    -0.000000    -0.008789  -179.982956
	   67 D(3,9,10,5)     =     60.002929    -0.000019    -0.181294    59.821634
	   68 D(3,9,10,6)     =   -120.077013    -0.000021    -0.303508  -120.380520
	   69 D(3,9,11,4)     =     -0.017270    -0.000004    -0.140372    -0.157643
	   70 D(3,9,11,13)    =   -179.908714     0.000000     0.001195  -179.907518
	   71 D(4,2,1,14)     =    179.966134    -0.000003    -0.090317   179.875817
	   72 D(4,11,9,10)    =    179.986543     0.000000     0.053104   180.039647
	   73 D(5,7,12,8)     =      0.015251    -0.000000    -0.006868     0.008383
	   74 D(5,10,6,8)     =     -0.024254    -0.000005    -0.160331    -0.184586
	   75 D(5,10,6,19)    =   -179.990369    -0.000002    -0.080134  -180.070503
	   76 D(5,10,9,11)    =   -120.000874    -0.000023    -0.379390  -120.380263
	   77 D(6,8,12,7)     =     -0.043333     0.000000     0.013358    -0.029976
	   78 D(6,10,5,7)     =     -0.000898     0.000006     0.165971     0.165073
	   79 D(6,10,5,18)    =   -179.923240     0.000007     0.192410  -179.730830
	   80 D(6,10,9,11)    =     59.919185    -0.000025    -0.501603    59.417582
	   81 D(7,5,10,9)     =    179.919481     0.000004     0.049042   179.968522
	   82 D(7,12,8,21)    =    179.983719    -0.000001    -0.008485   179.975233
	   83 D(8,6,10,9)     =   -179.944633    -0.000003    -0.043047  -179.987680
	   84 D(8,12,7,20)    =    179.926886    -0.000003    -0.094878   179.832008
	   85 D(9,3,1,14)     =   -179.966136     0.000002     0.052514  -179.913622
	   86 D(9,10,5,18)    =     -0.002861     0.000005     0.075480     0.072619
	   87 D(9,10,6,19)    =      0.089252    -0.000000     0.037150     0.126403
	   88 D(9,11,4,17)    =    179.973370     0.000004     0.122724   180.096093
	   89 D(10,5,7,12)    =      0.005815    -0.000003    -0.084684    -0.078869
	   90 D(10,5,7,20)    =   -179.901061     0.000000     0.007515  -179.893546
	   91 D(10,6,8,12)    =      0.048473     0.000002     0.072650     0.121122
	   92 D(10,6,8,21)    =   -179.980020     0.000004     0.095670  -179.884350
	   93 D(10,9,3,16)    =     -0.041910     0.000002     0.002576    -0.039334
	   94 D(10,9,11,13)   =      0.095099     0.000005     0.194672     0.289771
	   95 D(11,4,2,15)    =    179.975516    -0.000002    -0.046442   179.929073
	   96 D(11,9,3,16)    =    179.961888     0.000007     0.196127   180.158015
	   97 D(12,7,5,18)    =    179.929518    -0.000004    -0.111721   179.817797
	   98 D(12,8,6,19)    =   -179.984879    -0.000001    -0.007323  -179.992202
	   99 D(13,11,4,17)   =     -0.133484    -0.000000    -0.019402    -0.152887
	  100 D(14,1,2,15)    =     -0.027988    -0.000002    -0.052447    -0.080434
	  101 D(14,1,3,16)    =      0.089566    -0.000002    -0.060116     0.029450
	  102 D(15,2,4,17)    =      0.019443    -0.000003    -0.064403    -0.044960
	  103 D(18,5,7,20)    =      0.022642    -0.000001    -0.019522     0.003119
	  104 D(19,6,8,21)    =     -0.013371     0.000001     0.015697     0.002326
	  105 R(6,13)         =      3.009840     0.006596     0.002413     3.012253
	 ---------------------------------------------------------------------------
	Successfully symmetrized geometry.
	 Forces used to impose fixed constraints are not included.
	  Forces zeroed: 67 

  ==> Convergence Check <==

  Measures of convergence in internal coordinates in au.
  Criteria marked as inactive (o), active & met (*), and active & unmet ( ).
  --------------------------------------------------------------------------------------------- ~
   Step     Total Energy     Delta E     MAX Force     RMS Force      MAX Disp      RMS Disp    ~
  --------------------------------------------------------------------------------------------- ~
    Convergence Criteria    1.00e-06 *    3.00e-04 *             o    1.20e-03 *             o  ~
  --------------------------------------------------------------------------------------------- ~
      1    -577.72361963   -5.78e+02      1.64e-02      4.33e-03 o    3.30e-02      9.76e-03 o  ~
  ---------------------------------------------------------------------------------------------

	Writing optimization data to binary file.
	Structure for next step:
	Cartesian Geometry (in Angstrom)
	    C    -1.3854201758   0.8527332713  -2.6705824443
	    C    -2.4585294961   1.4194564790  -1.9951354149
	    C    -0.3526489586   0.2606475682  -1.9548328789
	    C    -2.4998991854   1.3941804530  -0.6085662545
	    C     2.0109439202   0.0649424375   0.0795985659
	    C     0.4607176590  -1.4640189779   1.0480994420
	    C     3.0058733622  -0.5582224025   0.8163990395
	    C     1.5233245435  -2.0203058541   1.7419597732
	    C    -0.3803564035   0.2285980941  -0.5633652291
	    C     0.7061000362  -0.3968204721   0.1937759343
	    C    -1.4641611213   0.7997523371   0.0901753570
	    N     2.7887216188  -1.5895864617   1.6437720974
	    F    -1.5103740845   0.7817771941   1.4287071640
	    H    -1.3545934258   0.8708738754  -3.7505579753
	    H    -3.2649746701   1.8811931758  -2.5458446090
	    H     0.4805165380  -0.1804867956  -2.4834618679
	    H    -3.3293766356   1.8317679483  -0.0721091605
	    H     2.2522436852   0.8949545481  -0.5683125997
	    H    -0.5369063869  -1.8582125249   1.1718680645
	    H     4.0327008915  -0.2229838388   0.7526118010
	    H     1.3678963332  -2.8535270506   2.4140317283
			--------------------------
			 OPTKING Finished Execution 
			--------------------------

    Structure for next step:
    Molecular point group: c1
    Full point group: C1

    Geometry (in Angstrom), charge = 0, multiplicity = 1:

    C           -1.385374282703     0.853131036845    -2.665785308571
    C           -2.458483602975     1.419854244569    -1.990338279135
    C           -0.352603065530     0.261045333790    -1.950035743185
    C           -2.499853292254     1.394578218555    -0.603769118796
    C            2.010989813325     0.065340203103     0.084395701624
    C            0.460763552130    -1.463621212322     1.052896577764
    C            3.005919255294    -0.557824636918     0.821196175171
    C            1.523370436611    -2.019908088545     1.746756908904
    C           -0.380310510415     0.228995859721    -0.558568093409
    C            0.706145929303    -0.396422706486     0.198573070050
    C           -1.464115228181     0.800150102728     0.094972492711
    N            2.788767511950    -1.589188696086     1.648569233107
    F           -1.510328191367     0.782174959680     1.433504299729
    H           -1.354547532713     0.871271640978    -3.745760839579
    H           -3.264928776996     1.881590941427    -2.541047473291
    H            0.480562431056    -0.180089029965    -2.478664732181
    H           -3.329330742484     1.832165713874    -0.067312024801
    H            2.252289578324     0.895352313733    -0.563515464011
    H           -0.536860493811    -1.857814759324     1.176665200265
    H            4.032746784619    -0.222586073236     0.757408936714
    H            1.367942226318    -2.853129285041     2.418828863977

gradient() will perform analytic gradient computation.

*** tstart() called on gpu-2-10.local
*** at Sat Nov 11 18:50:19 2017

    SCF Algorithm Type (re)set to DF.

*** tstart() called on gpu-2-10.local
*** at Sat Nov 11 18:50:19 2017

   => Loading Basis Set <=

    Name: AUG-CC-PVTZ
    Role: ORBITAL
    Keyword: BASIS
    atoms 1-11  entry C          line   221 file /cbio/jclab/home/chayas/anaconda/envs/py35/share/psi4/basis/aug-cc-pvtz.gbs 
    atoms 12    entry N          line   267 file /cbio/jclab/home/chayas/anaconda/envs/py35/share/psi4/basis/aug-cc-pvtz.gbs 
    atoms 13    entry F          line   359 file /cbio/jclab/home/chayas/anaconda/envs/py35/share/psi4/basis/aug-cc-pvtz.gbs 
    atoms 14-21 entry H          line    34 file /cbio/jclab/home/chayas/anaconda/envs/py35/share/psi4/basis/aug-cc-pvtz.gbs 


         ---------------------------------------------------------
                                   SCF
            by Justin Turney, Rob Parrish, and Andy Simmonett
                              RHF Reference
                        8 Threads,   4768 MiB Core
         ---------------------------------------------------------

  ==> Geometry <==

    Molecular point group: c1
    Full point group: C1

    Geometry (in Angstrom), charge = 0, multiplicity = 1:

       Center              X                  Y                   Z               Mass       
    ------------   -----------------  -----------------  -----------------  -----------------
           C         -1.385374282703     0.853131036845    -2.665785308571    12.000000000000
           C         -2.458483602975     1.419854244569    -1.990338279135    12.000000000000
           C         -0.352603065530     0.261045333790    -1.950035743185    12.000000000000
           C         -2.499853292254     1.394578218555    -0.603769118796    12.000000000000
           C          2.010989813325     0.065340203103     0.084395701624    12.000000000000
           C          0.460763552130    -1.463621212322     1.052896577764    12.000000000000
           C          3.005919255294    -0.557824636918     0.821196175171    12.000000000000
           C          1.523370436611    -2.019908088545     1.746756908904    12.000000000000
           C         -0.380310510415     0.228995859721    -0.558568093409    12.000000000000
           C          0.706145929303    -0.396422706486     0.198573070050    12.000000000000
           C         -1.464115228181     0.800150102728     0.094972492711    12.000000000000
           N          2.788767511950    -1.589188696086     1.648569233107    14.003074004780
           F         -1.510328191367     0.782174959680     1.433504299729    18.998403224000
           H         -1.354547532713     0.871271640978    -3.745760839579     1.007825032070
           H         -3.264928776996     1.881590941427    -2.541047473291     1.007825032070
           H          0.480562431056    -0.180089029965    -2.478664732181     1.007825032070
           H         -3.329330742484     1.832165713874    -0.067312024801     1.007825032070
           H          2.252289578324     0.895352313733    -0.563515464011     1.007825032070
           H         -0.536860493811    -1.857814759324     1.176665200265     1.007825032070
           H          4.032746784619    -0.222586073236     0.757408936714     1.007825032070
           H          1.367942226318    -2.853129285041     2.418828863977     1.007825032070

  Running in c1 symmetry.

  Rotational constants: A =      0.06506  B =      0.01762  C =      0.01518 [cm^-1]
  Rotational constants: A =   1950.42971  B =    528.19412  C =    455.14957 [MHz]
  Nuclear repulsion =  715.910610149065860

  Charge       = 0
  Multiplicity = 1
  Electrons    = 90
  Nalpha       = 45
  Nbeta        = 45

  ==> Algorithm <==

  SCF Algorithm Type is DF.
  DIIS enabled.
  MOM disabled.
  Fractional occupation disabled.
  Guess Type is READ.
  Energy threshold   = 1.00e-10
  Density threshold  = 1.00e-10
  Integral threshold = 0.00e+00

  ==> Primary Basis <==

  Basis Set: AUG-CC-PVTZ
    Blend: AUG-CC-PVTZ
    Number of shells: 254
    Number of basis function: 782
    Number of Cartesian functions: 915
    Spherical Harmonics?: true
    Max angular momentum: 3

   => Loading Basis Set <=

    Name: (AUG-CC-PVTZ AUX)
    Role: JKFIT
    Keyword: DF_BASIS_SCF
    atoms 1-11  entry C          line   161 file /cbio/jclab/home/chayas/anaconda/envs/py35/share/psi4/basis/aug-cc-pvtz-jkfit.gbs 
    atoms 12    entry N          line   223 file /cbio/jclab/home/chayas/anaconda/envs/py35/share/psi4/basis/aug-cc-pvtz-jkfit.gbs 
    atoms 13    entry F          line   347 file /cbio/jclab/home/chayas/anaconda/envs/py35/share/psi4/basis/aug-cc-pvtz-jkfit.gbs 
    atoms 14-21 entry H          line    69 file /cbio/jclab/home/chayas/anaconda/envs/py35/share/psi4/basis/aug-cc-pvtz-jkfit.gbs 

  Reading orbitals from file 180, no projection.

  ==> Pre-Iterations <==

   -------------------------------------------------------
    Irrep   Nso     Nmo     Nalpha   Nbeta   Ndocc  Nsocc
   -------------------------------------------------------
     A        782     782       0       0       0       0
   -------------------------------------------------------
    Total     782     782      45      45      45       0
   -------------------------------------------------------

  ==> Integral Setup <==

  ==> DFJK: Density-Fitted J/K Matrices <==

    J tasked:                  Yes
    K tasked:                  Yes
    wK tasked:                  No
    OpenMP threads:              8
    Integrals threads:           8
    Memory (MB):              3576
    Algorithm:                Disk
    Integral Cache:           NONE
    Schwarz Cutoff:          1E-12
    Fitting Condition:       1E-12

   => Auxiliary Basis Set <=

  Basis Set: (AUG-CC-PVTZ AUX)
    Blend: AUG-CC-PVTZ-JKFIT
    Number of shells: 502
    Number of basis function: 1720
    Number of Cartesian functions: 2143
    Spherical Harmonics?: true
    Max angular momentum: 4

  Minimum eigenvalue in the overlap matrix is 6.4320249043E-07.
  Using Symmetric Orthogonalization.

  SCF Guess: Orbitals guess was supplied from a previous computation.

  ==> Iterations <==

                           Total Energy        Delta E     RMS |[F,P]|

   @DF-RHF iter   0:  -575.35542829704173   -5.75355e+02   3.46044e-04 
   @DF-RHF iter   1:  -575.28882154805115    6.66067e-02   8.75823e-05 
   @DF-RHF iter   2:  -575.28914310650430   -3.21558e-04   5.27786e-05 DIIS
   @DF-RHF iter   3:  -575.28932210193148   -1.78995e-04   9.20087e-06 DIIS
   @DF-RHF iter   4:  -575.28932839949869   -6.29757e-06   2.89095e-06 DIIS
   @DF-RHF iter   5:  -575.28933037879983   -1.97930e-06   1.74748e-06 DIIS
   @DF-RHF iter   6:  -575.28933087719986   -4.98400e-07   8.14659e-07 DIIS
   @DF-RHF iter   7:  -575.28933106318198   -1.85982e-07   3.88166e-07 DIIS
   @DF-RHF iter   8:  -575.28933110282901   -3.96470e-08   1.09628e-07 DIIS
   @DF-RHF iter   9:  -575.28933110544494   -2.61593e-09   3.25944e-08 DIIS
   @DF-RHF iter  10:  -575.28933110565936   -2.14413e-10   1.03396e-08 DIIS
   @DF-RHF iter  11:  -575.28933110567141   -1.20508e-11   3.33736e-09 DIIS
   @DF-RHF iter  12:  -575.28933110569847   -2.70575e-11   1.44670e-09 DIIS
   @DF-RHF iter  13:  -575.28933110568846    1.00044e-11   6.08519e-10 DIIS
   @DF-RHF iter  14:  -575.28933110568232    6.13909e-12   2.86648e-10 DIIS
   @DF-RHF iter  15:  -575.28933110569631   -1.39835e-11   1.08301e-10 DIIS
   @DF-RHF iter  16:  -575.28933110569437    1.93268e-12   5.00758e-11 DIIS

  ==> Post-Iterations <==

    Orbital Energies (a.u.)
    -----------------------

    Doubly Occupied:                                                      

       1A    -26.319348     2A    -15.565015     3A    -11.337976  
       4A    -11.274116     5A    -11.273241     6A    -11.268240  
       7A    -11.260782     8A    -11.256449     9A    -11.255665  
      10A    -11.251441    11A    -11.247494    12A    -11.240554  
      13A    -11.239075    14A     -1.639899    15A     -1.258130  
      16A     -1.185432    17A     -1.114890    18A     -1.038349  
      19A     -1.034729    20A     -1.028371    21A     -0.891842  
      22A     -0.869304    23A     -0.851430    24A     -0.825296  
      25A     -0.757122    26A     -0.723449    27A     -0.714353  
      28A     -0.706412    29A     -0.671101    30A     -0.666272  
      31A     -0.652633    32A     -0.626360    33A     -0.612463  
      34A     -0.599059    35A     -0.590698    36A     -0.549413  
      37A     -0.537086    38A     -0.526965    39A     -0.516753  
      40A     -0.510345    41A     -0.420350    42A     -0.395410  
      43A     -0.355001    44A     -0.348909    45A     -0.341189  

    Virtual:                                                              

      46A      0.023690    47A      0.030579    48A      0.033645  
      49A      0.036867    50A      0.043706    51A      0.047621  
      52A      0.052675    53A      0.054290    54A      0.075586  
      55A      0.080192    56A      0.085937    57A      0.088665  
      58A      0.092708    59A      0.093890    60A      0.098069  
      61A      0.101761    62A      0.107342    63A      0.107975  
      64A      0.112354    65A      0.113579    66A      0.115161  
      67A      0.118767    68A      0.122207    69A      0.126967  
      70A      0.128965    71A      0.132527    72A      0.134654  
      73A      0.135589    74A      0.142985    75A      0.143429  
      76A      0.147601    77A      0.148211    78A      0.152564  
      79A      0.155115    80A      0.157328    81A      0.170032  
      82A      0.174127    83A      0.175493    84A      0.185809  
      85A      0.187283    86A      0.197140    87A      0.200789  
      88A      0.212976    89A      0.218179    90A      0.224113  
      91A      0.233117    92A      0.236353    93A      0.239922  
      94A      0.241179    95A      0.242251    96A      0.246175  
      97A      0.251962    98A      0.253627    99A      0.259802  
     100A      0.262570   101A      0.267377   102A      0.269980  
     103A      0.272946   104A      0.280771   105A      0.281550  
     106A      0.283611   107A      0.294818   108A      0.296697  
     109A      0.300180   110A      0.307995   111A      0.310185  
     112A      0.312906   113A      0.316307   114A      0.320600  
     115A      0.324006   116A      0.325938   117A      0.327838  
     118A      0.332136   119A      0.336162   120A      0.344443  
     121A      0.349642   122A      0.353504   123A      0.358071  
     124A      0.362183   125A      0.374762   126A      0.378744  
     127A      0.383000   128A      0.386138   129A      0.393978  
     130A      0.396152   131A      0.405376   132A      0.409469  
     133A      0.413728   134A      0.416988   135A      0.421899  
     136A      0.425178   137A      0.432600   138A      0.436163  
     139A      0.439884   140A      0.440515   141A      0.447108  
     142A      0.449481   143A      0.457448   144A      0.461229  
     145A      0.468683   146A      0.471520   147A      0.474210  
     148A      0.475091   149A      0.479370   150A      0.483015  
     151A      0.484684   152A      0.486469   153A      0.490614  
     154A      0.494837   155A      0.497230   156A      0.505349  
     157A      0.507822   158A      0.509227   159A      0.511841  
     160A      0.514566   161A      0.521395   162A      0.522498  
     163A      0.523485   164A      0.528184   165A      0.532988  
     166A      0.540963   167A      0.542272   168A      0.545095  
     169A      0.548864   170A      0.551550   171A      0.557173  
     172A      0.564666   173A      0.569723   174A      0.576870  
     175A      0.580697   176A      0.588748   177A      0.592316  
     178A      0.598361   179A      0.604054   180A      0.613733  
     181A      0.619779   182A      0.625180   183A      0.631975  
     184A      0.636064   185A      0.639789   186A      0.647615  
     187A      0.657002   188A      0.661815   189A      0.672506  
     190A      0.674267   191A      0.675771   192A      0.682633  
     193A      0.688485   194A      0.698620   195A      0.702024  
     196A      0.705670   197A      0.707821   198A      0.715871  
     199A      0.723125   200A      0.723427   201A      0.735126  
     202A      0.739867   203A      0.744585   204A      0.748421  
     205A      0.749697   206A      0.758977   207A      0.764778  
     208A      0.770858   209A      0.783073   210A      0.787137  
     211A      0.792321   212A      0.795031   213A      0.799661  
     214A      0.819806   215A      0.827069   216A      0.831824  
     217A      0.844004   218A      0.846031   219A      0.850719  
     220A      0.856500   221A      0.859934   222A      0.864681  
     223A      0.871579   224A      0.873894   225A      0.876209  
     226A      0.879731   227A      0.884640   228A      0.888132  
     229A      0.888230   230A      0.897737   231A      0.902618  
     232A      0.906883   233A      0.914916   234A      0.916012  
     235A      0.926179   236A      0.930214   237A      0.937066  
     238A      0.941533   239A      0.943760   240A      0.948064  
     241A      0.949520   242A      0.959721   243A      0.960809  
     244A      0.963979   245A      0.968308   246A      0.975840  
     247A      0.984081   248A      0.988375   249A      0.990939  
     250A      0.999673   251A      1.001761   252A      1.008131  
     253A      1.010099   254A      1.014172   255A      1.024846  
     256A      1.027198   257A      1.032095   258A      1.036394  
     259A      1.040437   260A      1.041694   261A      1.049029  
     262A      1.060650   263A      1.065345   264A      1.069480  
     265A      1.074758   266A      1.076327   267A      1.080049  
     268A      1.085880   269A      1.090590   270A      1.093331  
     271A      1.098359   272A      1.102434   273A      1.110045  
     274A      1.117416   275A      1.119339   276A      1.126845  
     277A      1.134132   278A      1.137355   279A      1.137433  
     280A      1.143351   281A      1.145081   282A      1.152106  
     283A      1.157394   284A      1.168171   285A      1.172434  
     286A      1.176910   287A      1.180581   288A      1.186119  
     289A      1.193472   290A      1.200133   291A      1.200733  
     292A      1.210101   293A      1.212521   294A      1.216661  
     295A      1.223550   296A      1.224600   297A      1.231855  
     298A      1.239361   299A      1.246818   300A      1.250489  
     301A      1.258622   302A      1.264568   303A      1.270582  
     304A      1.275794   305A      1.279341   306A      1.287266  
     307A      1.289851   308A      1.296452   309A      1.309470  
     310A      1.315057   311A      1.317362   312A      1.323413  
     313A      1.343147   314A      1.350532   315A      1.352782  
     316A      1.359157   317A      1.371328   318A      1.372696  
     319A      1.375975   320A      1.385492   321A      1.393917  
     322A      1.398672   323A      1.401288   324A      1.409577  
     325A      1.418011   326A      1.426808   327A      1.434601  
     328A      1.441018   329A      1.446609   330A      1.462717  
     331A      1.473065   332A      1.477980   333A      1.483726  
     334A      1.494756   335A      1.498190   336A      1.502489  
     337A      1.504435   338A      1.529004   339A      1.538101  
     340A      1.548509   341A      1.555899   342A      1.561273  
     343A      1.569913   344A      1.572905   345A      1.577563  
     346A      1.586819   347A      1.593353   348A      1.599200  
     349A      1.615596   350A      1.627622   351A      1.630763  
     352A      1.642514   353A      1.648351   354A      1.660840  
     355A      1.670009   356A      1.672250   357A      1.676593  
     358A      1.685417   359A      1.692598   360A      1.700686  
     361A      1.707066   362A      1.715892   363A      1.726279  
     364A      1.734072   365A      1.735822   366A      1.738258  
     367A      1.747687   368A      1.756709   369A      1.763399  
     370A      1.768989   371A      1.787374   372A      1.788821  
     373A      1.805449   374A      1.808969   375A      1.816154  
     376A      1.825029   377A      1.829535   378A      1.844098  
     379A      1.850643   380A      1.860959   381A      1.870435  
     382A      1.877323   383A      1.885842   384A      1.894555  
     385A      1.897912   386A      1.907995   387A      1.909499  
     388A      1.916601   389A      1.927293   390A      1.935493  
     391A      1.940124   392A      1.951670   393A      1.962269  
     394A      1.968562   395A      1.973742   396A      1.993420  
     397A      1.994389   398A      2.000426   399A      2.004836  
     400A      2.012111   401A      2.020196   402A      2.022692  
     403A      2.034693   404A      2.048717   405A      2.053046  
     406A      2.057981   407A      2.062385   408A      2.073640  
     409A      2.081239   410A      2.089305   411A      2.093041  
     412A      2.096650   413A      2.100796   414A      2.118903  
     415A      2.124619   416A      2.131100   417A      2.144428  
[...]
	 R(5,7)           =         2.620097	       1.386495
	 R(5,10)          =         2.626114	       1.389680
	 R(5,18)          =         2.040406	       1.079736
	 R(6,8)           =         2.618608	       1.385708
	 R(6,10)          =         2.626345	       1.389802
	 R(6,19)          =         2.039106	       1.079049
	 R(7,12)          =         2.521728	       1.334441
	 R(7,20)          =         2.042694	       1.080947
	 R(8,12)          =         2.523571	       1.335416
	 R(8,21)          =         2.042486	       1.080837
	 R(9,10)          =         2.767639	       1.464572
	 R(9,11)          =         2.623239	       1.388158
	 R(11,13)         =         2.542757	       1.345569
	 B(1,2,4)         =         2.095814	     120.081300
	 B(1,2,15)        =         2.100894	     120.372336
	 B(1,3,9)         =         2.115987	     121.237120
	 B(1,3,16)        =         2.101097	     120.384017
	 B(2,1,3)         =         2.091448	     119.831160
	 B(2,1,14)        =         2.097460	     120.175584
	 B(2,4,11)        =         2.074934	     118.884955
	 B(2,4,17)        =         2.126609	     121.845700
	 B(3,1,14)        =         2.094246	     119.991443
	 B(3,9,10)        =         2.113530	     121.096362
	 B(3,9,11)        =         2.046963	     117.282332
	 B(4,2,15)        =         2.086473	     119.546122
	 B(4,11,9)        =         2.141095	     122.675724
	 B(4,11,13)       =         2.068201	     118.499216
	 B(5,7,12)        =         2.156553	     123.561357
	 B(5,7,20)        =         2.097251	     120.163625
	 B(5,10,6)        =         2.049544	     117.430195
	 B(5,10,9)        =         2.109423	     120.861007
	 B(6,8,12)        =         2.158649	     123.681498
	 B(6,8,21)        =         2.096327	     120.110687
	 B(6,10,9)        =         2.124058	     121.699544
	 B(7,5,10)        =         2.081501	     119.261231
	 B(7,5,18)        =         2.101913	     120.430721
	 B(7,12,8)        =         2.040250	     116.897697
	 B(8,6,10)        =         2.079673	     119.156479
	 B(8,6,19)        =         2.101654	     120.415899
	 B(9,3,16)        =         2.066078	     118.377529
	 B(9,11,13)       =         2.073806	     118.820328
	 B(10,5,18)       =         2.099767	     120.307813
	 B(10,6,19)       =         2.101839	     120.426489
	 B(10,9,11)       =         2.122012	     121.582320
	 B(11,4,17)       =         2.081641	     119.269250
	 B(12,7,20)       =         2.029368	     116.274229
	 B(12,8,21)       =         2.028209	     116.207809
	 D(1,2,4,11)      =        -0.000048	      -0.002731
	 D(1,2,4,17)      =         3.139570	     179.884111
	 D(1,3,9,10)      =         3.118371	     178.669491
	 D(1,3,9,11)      =         0.015807	       0.905649
	 D(2,1,3,9)       =        -0.006314	      -0.361789
	 D(2,1,3,16)      =         3.127825	     179.211155
	 D(2,4,11,9)      =         0.010405	       0.596160
	 D(2,4,11,13)     =         3.138011	     179.794763
	 D(3,1,2,4)       =        -0.001865	      -0.106840
	 D(3,1,2,15)      =        -3.140320	    -179.927077
	 D(3,9,10,5)      =         1.042390	      59.724563
	 D(3,9,10,6)      =        -2.119016	    -121.410654
	 D(3,9,11,4)      =        -0.018047	      -1.034041
	 D(3,9,11,13)     =         3.137575	     179.769815
	 D(4,2,1,14)      =         3.131179	     179.403328
	 D(4,11,9,10)     =        -3.120410	    -178.786298
	 D(5,7,12,8)      =        -0.003252	      -0.186336
	 D(5,10,6,8)      =        -0.020799	      -1.191697
	 D(5,10,6,19)     =         3.127523	     179.193878
	 D(5,10,9,11)     =        -2.139921	    -122.608428
	 D(6,8,12,7)      =         0.003300	       0.189057
	 D(6,10,5,7)      =         0.020861	       1.195256
	 D(6,10,5,18)     =        -3.117665	    -178.629066
	 D(6,10,9,11)     =         0.981859	      56.256354
	 D(7,5,10,9)      =        -3.139724	    -179.892942
	 D(7,12,8,21)     =        -3.137797	    -179.782502
	 D(8,6,10,9)      =         3.139956	     179.906222
	 D(8,12,7,20)     =         3.132692	     179.490037
	 D(9,3,1,14)      =        -3.139374	    -179.872868
	 D(9,10,5,18)     =         0.004935	       0.282736
	 D(9,10,6,19)     =         0.005093	       0.291797
	 D(9,11,4,17)     =        -3.129264	    -179.293647
	 D(10,5,7,12)     =        -0.009157	      -0.524676
	 D(10,5,7,20)     =         3.138293	     179.810963
	 D(10,6,8,12)     =         0.009059	       0.519042
	 D(10,6,8,21)     =        -3.133048	    -179.510456
	 D(10,9,3,16)     =        -0.015914	      -0.911792
	 D(10,9,11,13)    =         0.035213	       2.017558
	 D(11,4,2,15)     =         3.138433	     179.818994
	 D(11,9,3,16)     =        -3.118478	    -178.675634
	 D(12,7,5,18)     =         3.129365	     179.299425
	 D(12,8,6,19)     =        -3.139262	    -179.866491
	 D(13,11,4,17)    =        -0.001659	      -0.095044
	 D(14,1,2,15)     =        -0.007276	      -0.416909
	 D(14,1,3,16)     =        -0.005235	      -0.299924
	 D(15,2,4,17)     =        -0.005134	      -0.294164
	 D(18,5,7,20)     =        -0.006369	      -0.364936
	 D(19,6,8,21)     =         0.001815	       0.104011
	 R(6,13)          =         5.676258	       3.003747

	Current energy   :      -577.7268029681

	Energy change for the previous step:
		Projected    :        -0.0000051207
		Actual       :         0.0000043970

	Performing BFGS update.
	Previous computed or guess Hessian on step 1.
	Steps to be used in Hessian update: 5 4
	Adding user-defined constraint: Fragment 1; Coordinate 67:
		Value =     1.042390; Fixed value    =     1.047200
		Force =     0.003006; Force constant =     0.625000
	Removing off-diagonal coupling between coordinate 67 and others.
	Taking RFO optimization step.
	Going to follow RFO solution 1.
	Using RFO vector 1.
	Norm of target step-size    0.00378
	Projected energy change by RFO approximation:        -0.0000015011

	Back-transformation to cartesian coordinates...
	Could not converge backtransformation.
	Using first guess instead.

	--- Internal Coordinate Step in ANG or DEG, aJ/ANG or AJ/DEG ---
	 ---------------------------------------------------------------------------
	   Coordinate                Previous        Force       Change         New 
	   ----------                --------       ------       ------       ------
	    1 R(1,2)          =      1.388063     0.000144     0.000024     1.388087
	    2 R(1,3)          =      1.386262    -0.000072    -0.000014     1.386248
	    3 R(1,14)         =      1.078397     0.000176     0.000034     1.078431
	    4 R(2,4)          =      1.387287     0.000036     0.000005     1.387292
	    5 R(2,15)         =      1.078762     0.000141     0.000027     1.078789
	    6 R(3,9)          =      1.393761     0.000545     0.000089     1.393849
	    7 R(3,16)         =      1.079857     0.000182     0.000035     1.079893
	    8 R(4,11)         =      1.379579     0.000343     0.000049     1.379627
	    9 R(4,17)         =      1.077815     0.000110     0.000021     1.077836
	   10 R(5,7)          =      1.386495     0.000042     0.000009     1.386504
	   11 R(5,10)         =      1.389680     0.000105     0.000018     1.389698
	   12 R(5,18)         =      1.079736     0.000160     0.000030     1.079766
	   13 R(6,8)          =      1.385708     0.000139     0.000022     1.385730
	   14 R(6,10)         =      1.389802    -0.000064    -0.000013     1.389789
	   15 R(6,19)         =      1.079049     0.000108     0.000020     1.079069
	   16 R(7,12)         =      1.334441     0.000211     0.000022     1.334463
	   17 R(7,20)         =      1.080947     0.000025     0.000005     1.080953
	   18 R(8,12)         =      1.335416     0.000095     0.000007     1.335423
	   19 R(8,21)         =      1.080837     0.000015     0.000002     1.080839
	   20 R(9,10)         =      1.464572    -0.000841    -0.000174     1.464397
	   21 R(9,11)         =      1.388158    -0.000390    -0.000067     1.388092
	   22 R(11,13)        =      1.345569     0.001247     0.000170     1.345739
	   23 B(1,2,4)        =    120.081300    -0.000002    -0.006148   120.075152
	   24 B(1,2,15)       =    120.372336    -0.000000    -0.002500   120.369836
	   25 B(1,3,9)        =    121.237120    -0.000000    -0.000626   121.236494
	   26 B(1,3,16)       =    120.384017    -0.000001    -0.002732   120.381285
	   27 B(2,1,3)        =    119.831160     0.000001     0.005765   119.836925
	   28 B(2,1,14)       =    120.175584    -0.000001    -0.003145   120.172439
	   29 B(2,4,11)       =    118.884955     0.000000     0.000148   118.885104
	   30 B(2,4,17)       =    121.845700     0.000002     0.010689   121.856389
	   31 B(3,1,14)       =    119.991443    -0.000001    -0.002401   119.989042
	   32 B(3,9,10)       =    121.096362    -0.000001    -0.001575   121.094787
	   33 B(3,9,11)       =    117.282332    -0.000001    -0.005825   117.276506
	   34 B(4,2,15)       =    119.546122     0.000002     0.008628   119.554750
	   35 B(4,11,9)       =    122.675724     0.000001     0.006263   122.681987
	   36 B(4,11,13)      =    118.499216    -0.000002    -0.005995   118.493220
	   37 B(5,7,12)       =    123.561357     0.000002     0.005709   123.567065
	   38 B(5,7,20)       =    120.163625     0.000000     0.000807   120.164432
	   39 B(5,10,6)       =    117.430195     0.000001     0.002481   117.432676
	   40 B(5,10,9)       =    120.861007    -0.000000    -0.000318   120.860689
	   41 B(6,8,12)       =    123.681498     0.000002     0.008136   123.689634
	   42 B(6,8,21)       =    120.110687    -0.000000    -0.001225   120.109462
	   43 B(6,10,9)       =    121.699544    -0.000001    -0.002494   121.697050
	   44 B(7,5,10)       =    119.261231    -0.000001    -0.003002   119.258229
	   45 B(7,5,18)       =    120.430721     0.000000     0.002251   120.432972
	   46 B(7,12,8)       =    116.897697    -0.000003    -0.008892   116.888805
	   47 B(8,6,10)       =    119.156479    -0.000001    -0.004431   119.152048
	   48 B(8,6,19)       =    120.415899     0.000000     0.000534   120.416433
	   49 B(9,3,16)       =    118.377529     0.000001     0.003448   118.380977
	   50 B(9,11,13)      =    118.820328     0.000001    -0.000964   118.819365
	   51 B(10,5,18)      =    120.307813     0.000001     0.000761   120.308574
	   52 B(10,6,19)      =    120.426489     0.000001     0.003962   120.430451
	   53 B(10,9,11)      =    121.582320     0.000002     0.006851   121.589172
	   54 B(11,4,17)      =    119.269250    -0.000002    -0.010841   119.258409
	   55 B(12,7,20)      =    116.274229    -0.000002    -0.007170   116.267059
	   56 B(12,8,21)      =    116.207809    -0.000002    -0.006910   116.200899
	   57 D(1,2,4,11)     =     -0.002731    -0.000000     0.008079     0.005348
	   58 D(1,2,4,17)     =    179.884111    -0.000000     0.006282   179.890392
	   59 D(1,3,9,10)     =    178.669491     0.000000    -0.002992   178.666499
	   60 D(1,3,9,11)     =      0.905649    -0.000000     0.012531     0.918180
	   61 D(2,1,3,9)      =     -0.361789     0.000000     0.017594    -0.344196
	   62 D(2,1,3,16)     =    179.211155     0.000000     0.032253   179.243407
	   63 D(2,4,11,9)     =      0.596160     0.000000     0.023695     0.619855
	   64 D(2,4,11,13)    =    179.794763    -0.000001    -0.033236   179.761527
	   65 D(3,1,2,4)      =     -0.106840    -0.000000    -0.028134    -0.134974
	   66 D(3,1,2,15)     =   -179.927077    -0.000000    -0.020874  -179.947951
	   67 D(3,9,10,5)     =     59.724563    -0.000002    -0.003393    59.721170
	   68 D(3,9,10,6)     =   -121.410654    -0.000001    -0.023518  -121.434172
	   69 D(3,9,11,4)     =     -1.034041     0.000000    -0.033636    -1.067677
	   70 D(3,9,11,13)    =    179.769815     0.000001     0.023511   179.793327
	   71 D(4,2,1,14)     =    179.403328     0.000000     0.002409   179.405737
	   72 D(4,11,9,10)    =   -178.786298    -0.000001    -0.017828  -178.804126
	   73 D(5,7,12,8)     =     -0.186336     0.000001     0.054293    -0.132043
	   74 D(5,10,6,8)     =     -1.191697     0.000001     0.020292    -1.171405
	   75 D(5,10,6,19)    =    179.193878     0.000000     0.009143   179.203021
	   76 D(5,10,9,11)    =   -122.608428    -0.000001    -0.019885  -122.628313
	   77 D(6,8,12,7)     =      0.189057    -0.000000    -0.004410     0.184646
	   78 D(6,10,5,7)     =      1.195256    -0.000000     0.025337     1.220593
	   79 D(6,10,5,18)    =   -178.629066    -0.000000     0.021510  -178.607556
	   80 D(6,10,9,11)    =     56.256354    -0.000000    -0.040010    56.216344
	   81 D(7,5,10,9)     =   -179.892942     0.000001     0.005991  -179.886951
	   82 D(7,12,8,21)    =   -179.782502    -0.000001    -0.057907  -179.840409
	   83 D(8,6,10,9)     =    179.906222    -0.000000     0.039785   179.946007
	   84 D(8,12,7,20)    =    179.490037    -0.000000    -0.059663   179.430374
	   85 D(9,3,1,14)     =   -179.872868     0.000000    -0.012889  -179.885757
	   86 D(9,10,5,18)    =      0.282736     0.000001     0.002163     0.284899
	   87 D(9,10,6,19)    =      0.291797    -0.000000     0.028636     0.320433
	   88 D(9,11,4,17)    =   -179.293647     0.000000     0.025421  -179.268226
	   89 D(10,5,7,12)    =     -0.524676    -0.000000    -0.065824    -0.590500
	   90 D(10,5,7,20)    =    179.810963     0.000001     0.052394   179.863357
	   91 D(10,6,8,12)    =      0.519042    -0.000000    -0.032539     0.486504
	   92 D(10,6,8,21)    =   -179.510456     0.000000     0.022947  -179.487509
	   93 D(10,9,3,16)    =     -0.911792     0.000000    -0.017340    -0.929132
	   94 D(10,9,11,13)   =      2.017558     0.000000     0.039319     2.056877
	   95 D(11,4,2,15)    =    179.818994    -0.000000     0.000859   179.819853
	   96 D(11,9,3,16)    =   -178.675634    -0.000000    -0.001817  -178.677451
	   97 D(12,7,5,18)    =    179.299425    -0.000000    -0.061994   179.237430
	   98 D(12,8,6,19)    =   -179.866491    -0.000000    -0.021378  -179.887869
	   99 D(13,11,4,17)   =     -0.095044    -0.000001    -0.031511    -0.126555
	  100 D(14,1,2,15)    =     -0.416909     0.000000     0.009668    -0.407240
	  101 D(14,1,3,16)    =     -0.299924     0.000000     0.001770    -0.298154
	  102 D(15,2,4,17)    =     -0.294164    -0.000000    -0.000938    -0.295103
	  103 D(18,5,7,20)    =     -0.364936     0.000001     0.056223    -0.308713
	  104 D(19,6,8,21)    =      0.104011     0.000000     0.034107     0.138119
	  105 R(6,13)         =      3.003747    -0.000153    -0.000284     3.003463
	 ---------------------------------------------------------------------------
	Successfully symmetrized geometry.
	 Forces used to impose fixed constraints are not included.
	  Forces zeroed: 67 

  ==> Convergence Check <==

  Measures of convergence in internal coordinates in au.
  Criteria marked as inactive (o), active & met (*), and active & unmet ( ).
  ---------------------------------------------------------------------------------------------
   Step     Total Energy     Delta E     MAX Force     RMS Force      MAX Disp      RMS Disp   
  ---------------------------------------------------------------------------------------------
    Convergence Criteria    1.00e-06 *    3.00e-04 *             o    1.20e-03 *             o
  ---------------------------------------------------------------------------------------------
      6    -577.72680297    4.40e-06      1.51e-04 *    2.84e-05 o    1.15e-03 *    3.69e-04 o  ~
  ---------------------------------------------------------------------------------------------


  **** Optimization is complete! (in 6 steps) ****

  ==> Optimization Summary <==

  Measures of convergence in internal coordinates in au.
  --------------------------------------------------------------------------------------------------------------- ~
   Step         Total Energy             Delta E       MAX Force       RMS Force        MAX Disp        RMS Disp  ~
  --------------------------------------------------------------------------------------------------------------- ~
      1    -577.723619632805   -577.723619632805      0.01637338      0.00433073      0.03303430      0.00976378  ~
      2    -577.726339059178     -0.002719426372      0.00400541      0.00124794      0.03838456      0.00950832  ~
      3    -577.726780761411     -0.000441702233      0.00186689      0.00029275      0.01300820      0.00314487  ~
      4    -577.726804503970     -0.000023742560      0.00051169      0.00009572      0.00585781      0.00165212  ~
      5    -577.726807365050     -0.000002861079      0.00013772      0.00003593      0.00237929      0.00079670  ~
      6    -577.726802968099      0.000004396951      0.00015132      0.00003010      0.00114885      0.00036872  ~
  --------------------------------------------------------------------------------------------------------------- ~

	Writing optimization data to binary file.
	Final energy is   -577.7268029680992
	Final (previous) structure:
	Cartesian Geometry (in Angstrom)
	    C    -1.3814355460   0.8685492804  -2.6652751357
	    C    -2.4654169763   1.4173936280  -1.9941015218
	    C    -0.3479461678   0.2873774476  -1.9470393365
	    C    -2.5153998723   1.3824045260  -0.6081569414
	    C     2.0219855888   0.0528117207   0.0862921955
	    C     0.4664395532  -1.4471951078   1.0724276299
	    C     3.0183676542  -0.5790999209   0.8144955671
	    C     1.5277517748  -2.0154504595   1.7586403993
	    C    -0.3688839691   0.2476833085  -0.5540014894
	    C     0.7106073567  -0.3925942917   0.2007919725
	    C    -1.4744966152   0.7959312299   0.0816308232
	    N     2.7919444468  -1.6012997076   1.6418844181
	    F    -1.5289645223   0.7699993567   1.4258467700
	    H    -1.3455652199   0.8863402652  -3.7429287833
	    H    -3.2749950000   1.8707797493  -2.5443310284
	    H     0.4935296431  -0.1535465482  -2.4604556281
	    H    -3.3421972271   1.8014374779  -0.0581535543
	    H     2.2607263319   0.8836465962  -0.5606597802
	    H    -0.5359105254  -1.8228941437   1.2084068370
	    H     4.0437637644  -0.2466036513   0.7341467874
	    H     1.3565472654  -2.8414912967   2.4343284544
	Saving final (previous) structure.
			--------------------------
			 OPTKING Finished Execution 
			--------------------------

    Final optimized geometry and variables:
    Molecular point group: c1
    Full point group: C1

    Geometry (in Angstrom), charge = 0, multiplicity = 1:

    C           -1.381435545965     0.868549280353    -2.665275135666
    C           -2.465416976320     1.417393627998    -1.994101521790
    C           -0.347946167833     0.287377447563    -1.947039336453
    C           -2.515399872291     1.382404526004    -0.608156941401
    C            2.021985588824     0.052811720745     0.086292195502
    C            0.466439553166    -1.447195107846     1.072427629931
    C            3.018367654215    -0.579099920923     0.814495567080
    C            1.527751774847    -2.015450459493     1.758640399327
    C           -0.368883969120     0.247683308496    -0.554001489430
    C            0.710607356750    -0.392594291658     0.200791972487
    C           -1.474496615215     0.795931229870     0.081630823224
    N            2.791944446836    -1.601299707625     1.641884418132
    F           -1.528964522316     0.769999356656     1.425846770031
    H           -1.345565219917     0.886340265177    -3.742928783255
    H           -3.274995000002     1.870779749340    -2.544331028402
    H            0.493529643145    -0.153546548245    -2.460455628070
    H           -3.342197227150     1.801437477897    -0.058153554325
    H            2.260726331891     0.883646596189    -0.560659780164
    H           -0.535910525444    -1.822894143676     1.208406837001
    H            4.043763764353    -0.246603651313     0.734146787447
    H            1.356547265437    -2.841491296668     2.434328454369

	Cleaning optimization helper files.

*** Psi4 exiting successfully. Buy a developer a beer!
