
    -----------------------------------------------------------------------
          Psi4: An Open-Source Ab Initio Electronic Structure Package
                               Psi4 1.1 release

                         Git: Rev {HEAD} add49b9 


    R. M. Parrish, L. A. Burns, D. G. A. Smith, A. C. Simmonett,
    A. E. DePrince III, E. G. Hohenstein, U. Bozkaya, A. Yu. Sokolov,
    R. Di Remigio, R. M. Richard, J. F. Gonthier, A. M. James,
    H. R. McAlexander, A. Kumar, M. Saitow, X. Wang, B. P. Pritchard,
    P. Verma, H. F. Schaefer III, K. Patkowski, R. A. King, E. F. Valeev,
    F. A. Evangelista, J. M. Turney, T. D. Crawford, and C. D. Sherrill,
    J. Chem. Theory Comput. in press (2017).
    (doi: 10.1021/acs.jctc.7b00174)

    -----------------------------------------------------------------------


    Psi4 started on: Sunday, 12 November 2017 02:28PM

    Process ID:  11825
    PSIDATADIR: /cbio/jclab/home/chayas/anaconda/envs/py35/share/psi4
    Memory:     500.0 MiB
    Threads:    8
    
  ==> Input File <==

--------------------------------------------------------------------------

memory 5 Gb

molecule phepyrOH_neutral {
  symmetry C1
  0 1 
  C      1.885   -1.036   -0.112
  C      2.878   -1.652   2.002
  C      0.807   -0.463   0.561
  C      1.800   -1.079   2.676
  C      3.862   -2.773   -1.356
  C      5.298   -2.250   0.501
  C      4.965   -3.329   -1.983
  C      6.337   -2.829   -0.209
  C      2.921   -1.631   0.608
  C      4.040   -2.225   -0.090
  C      0.764   -0.484   1.955
  N      6.202   -3.372   -1.440
  O      -0.288   0.076   2.612
  H      1.904   -1.012   -1.199
  H      3.678   -2.112   2.578
  H      0.003   -0.001   -0.006
  H      1.772   -1.098   3.762
  H      2.895   -2.772   -1.850
  H      5.475   -1.833   1.487
  H      4.879   -3.768   -2.972
  H      7.337   -2.875   0.208
  H      -0.502   0.942   2.229
  units Angstrom
}

dih_string = "3 11 13 22 315"
set optking fixed_dihedral = $dih_string

optimize('MP2/aug-cc-PVTZ')
--------------------------------------------------------------------------

  Memory set to   4.657 GiB by Python driver.
gradient() will perform analytic gradient computation.

*** tstart() called on gpu-2-11.local
*** at Sun Nov 12 14:28:10 2017

    SCF Algorithm Type (re)set to DF.

*** tstart() called on gpu-2-11.local
*** at Sun Nov 12 14:28:11 2017

   => Loading Basis Set <=

    Name: AUG-CC-PVTZ
    Role: ORBITAL
    Keyword: BASIS
    atoms 1-11  entry C          line   221 file /cbio/jclab/home/chayas/anaconda/envs/py35/share/psi4/basis/aug-cc-pvtz.gbs 
    atoms 12    entry N          line   267 file /cbio/jclab/home/chayas/anaconda/envs/py35/share/psi4/basis/aug-cc-pvtz.gbs 
    atoms 13    entry O          line   313 file /cbio/jclab/home/chayas/anaconda/envs/py35/share/psi4/basis/aug-cc-pvtz.gbs 
    atoms 14-22 entry H          line    34 file /cbio/jclab/home/chayas/anaconda/envs/py35/share/psi4/basis/aug-cc-pvtz.gbs 


         ---------------------------------------------------------
                                   SCF
            by Justin Turney, Rob Parrish, and Andy Simmonett
                              RHF Reference
                        8 Threads,   4768 MiB Core
         ---------------------------------------------------------

  ==> Geometry <==

    Molecular point group: c1
    Full point group: C1

    Geometry (in Angstrom), charge = 0, multiplicity = 1:

       Center              X                  Y                   Z               Mass       
    ------------   -----------------  -----------------  -----------------  -----------------
           C         -1.251641323776     0.703990657044    -0.582691480902    12.000000000000
           C         -0.258641323776     0.087990657044     1.531308519098    12.000000000000
           C         -2.329641323776     1.276990657044     0.090308519098    12.000000000000
           C         -1.336641323776     0.660990657044     2.205308519098    12.000000000000
           C          0.725358676224    -1.033009342956    -1.826691480902    12.000000000000
           C          2.161358676224    -0.510009342956     0.030308519098    12.000000000000
           C          1.828358676224    -1.589009342956    -2.453691480902    12.000000000000
           C          3.200358676224    -1.089009342956    -0.679691480902    12.000000000000
           C         -0.215641323776     0.108990657044     0.137308519098    12.000000000000
           C          0.903358676224    -0.485009342956    -0.560691480902    12.000000000000
           C         -2.372641323776     1.255990657044     1.484308519098    12.000000000000
           N          3.065358676224    -1.632009342956    -1.910691480902    14.003074004780
           O         -3.424641323776     1.815990657044     2.141308519098    15.994914619560
           H         -1.232641323776     0.727990657044    -1.669691480902     1.007825032070
           H          0.541358676224    -0.372009342956     2.107308519098     1.007825032070
           H         -3.133641323776     1.738990657044    -0.476691480902     1.007825032070
           H         -1.364641323776     0.641990657044     3.291308519098     1.007825032070
           H         -0.241641323776    -1.032009342956    -2.320691480902     1.007825032070
           H          2.338358676224    -0.093009342956     1.016308519098     1.007825032070
           H          1.742358676224    -2.028009342956    -3.442691480902     1.007825032070
           H          4.200358676224    -1.135009342956    -0.262691480902     1.007825032070
           H         -3.638641323776     2.681990657044     1.758308519098     1.007825032070

  Running in c1 symmetry.

  Rotational constants: A =      0.09693  B =      0.01354  C =      0.01209 [cm^-1]
  Rotational constants: A =   2905.95489  B =    405.96056  C =    362.43998 [MHz]
  Nuclear repulsion =  698.529189430390716

  Charge       = 0
  Multiplicity = 1
  Electrons    = 90
  Nalpha       = 45
  Nbeta        = 45

  ==> Algorithm <==

  SCF Algorithm Type is DF.
  DIIS enabled.
  MOM disabled.
  Fractional occupation disabled.
  Guess Type is SAD.
  Energy threshold   = 1.00e-10
  Density threshold  = 1.00e-10
  Integral threshold = 0.00e+00

  ==> Primary Basis <==

  Basis Set: AUG-CC-PVTZ
    Blend: AUG-CC-PVTZ
    Number of shells: 263
    Number of basis function: 805
    Number of Cartesian functions: 940
    Spherical Harmonics?: true
    Max angular momentum: 3

   => Loading Basis Set <=

    Name: (AUG-CC-PVTZ AUX)
    Role: JKFIT
    Keyword: DF_BASIS_SCF
    atoms 1-11  entry C          line   161 file /cbio/jclab/home/chayas/anaconda/envs/py35/share/psi4/basis/aug-cc-pvtz-jkfit.gbs 
    atoms 12    entry N          line   223 file /cbio/jclab/home/chayas/anaconda/envs/py35/share/psi4/basis/aug-cc-pvtz-jkfit.gbs 
    atoms 13    entry O          line   285 file /cbio/jclab/home/chayas/anaconda/envs/py35/share/psi4/basis/aug-cc-pvtz-jkfit.gbs 
    atoms 14-22 entry H          line    69 file /cbio/jclab/home/chayas/anaconda/envs/py35/share/psi4/basis/aug-cc-pvtz-jkfit.gbs 

  ==> Pre-Iterations <==

   -------------------------------------------------------
    Irrep   Nso     Nmo     Nalpha   Nbeta   Ndocc  Nsocc
   -------------------------------------------------------
     A        805     805       0       0       0       0
   -------------------------------------------------------
    Total     805     805      45      45      45       0
   -------------------------------------------------------

  ==> Integral Setup <==

  ==> DFJK: Density-Fitted J/K Matrices <==

    J tasked:                  Yes
    K tasked:                  Yes
    wK tasked:                  No
    OpenMP threads:              8
    Integrals threads:           8
    Memory (MB):              3576
    Algorithm:                Disk
    Integral Cache:           NONE
    Schwarz Cutoff:          1E-12
    Fitting Condition:       1E-12

   => Auxiliary Basis Set <=

  Basis Set: (AUG-CC-PVTZ AUX)
    Blend: AUG-CC-PVTZ-JKFIT
    Number of shells: 516
    Number of basis function: 1766
    Number of Cartesian functions: 2198
    Spherical Harmonics?: true
    Max angular momentum: 4

  Minimum eigenvalue in the overlap matrix is 6.2970175174E-07.
  Using Symmetric Orthogonalization.

  SCF Guess: Superposition of Atomic Densities via on-the-fly atomic UHF.

  ==> Iterations <==

                           Total Energy        Delta E     RMS |[F,P]|

   @DF-RHF iter   0:  -560.00468944834438   -5.60005e+02   2.17132e-02 
   @DF-RHF iter   1:  -550.98466556606127    9.02002e+00   1.49836e-03 
   @DF-RHF iter   2:  -551.22788098376259   -2.43215e-01   7.94835e-04 DIIS
   @DF-RHF iter   3:  -551.26713086754773   -3.92499e-02   3.86386e-04 DIIS
   @DF-RHF iter   4:  -551.28116892242133   -1.40381e-02   1.23817e-04 DIIS
   @DF-RHF iter   5:  -551.28306682692732   -1.89790e-03   4.66179e-05 DIIS
   @DF-RHF iter   6:  -551.28336734031984   -3.00513e-04   1.77680e-05 DIIS
   @DF-RHF iter   7:  -551.28341382454198   -4.64842e-05   5.59672e-06 DIIS
   @DF-RHF iter   8:  -551.28342065088032   -6.82634e-06   3.43342e-06 DIIS
   @DF-RHF iter   9:  -551.28342295109519   -2.30021e-06   1.29365e-06 DIIS
   @DF-RHF iter  10:  -551.28342369621419   -7.45119e-07   4.25887e-07 DIIS
   @DF-RHF iter  11:  -551.28342375013767   -5.39235e-08   1.83866e-07 DIIS
   @DF-RHF iter  12:  -551.28342375771535   -7.57768e-09   7.10216e-08 DIIS
   @DF-RHF iter  13:  -551.28342375868374   -9.68384e-10   3.62640e-08 DIIS
   @DF-RHF iter  14:  -551.28342375894385   -2.60115e-10   1.87080e-08 DIIS
   @DF-RHF iter  15:  -551.28342375904401   -1.00158e-10   6.72427e-09 DIIS
   @DF-RHF iter  16:  -551.28342375904060    3.41061e-12   2.60830e-09 DIIS
   @DF-RHF iter  17:  -551.28342375903378    6.82121e-12   8.75825e-10 DIIS
   @DF-RHF iter  18:  -551.28342375905049   -1.67120e-11   4.51862e-10 DIIS
   @DF-RHF iter  19:  -551.28342375905640   -5.91172e-12   1.44967e-10 DIIS
   @DF-RHF iter  20:  -551.28342375904833    8.07177e-12   7.36463e-11 DIIS

  ==> Post-Iterations <==

    Orbital Energies (a.u.)
    -----------------------

    Doubly Occupied:                                                      

       1A    -20.594922     2A    -15.561963     3A    -11.311529  
       4A    -11.274256     5A    -11.274229     6A    -11.263499  
       7A    -11.253597     8A    -11.252798     9A    -11.246399  
      10A    -11.245174    11A    -11.243339    12A    -11.236523  
      13A    -11.236364    14A     -1.411710    15A     -1.248752  
      16A     -1.174072    17A     -1.103965    18A     -1.039490  
      19A     -1.028292    20A     -1.009035    21A     -0.880661  
      22A     -0.873083    23A     -0.836923    24A     -0.810565  
      25A     -0.748254    26A     -0.724138    27A     -0.683519  
      28A     -0.665346    29A     -0.650013    30A     -0.632437  
      31A     -0.628559    32A     -0.610478    33A     -0.597233  
      34A     -0.591678    35A     -0.560244    36A     -0.541842  
      37A     -0.528875    38A     -0.520944    39A     -0.499155  
      40A     -0.492074    41A     -0.417757    42A     -0.398209  
      43A     -0.354770    44A     -0.349140    45A     -0.309854  

    Virtual:                                                              

      46A      0.022321    47A      0.029031    48A      0.031945  
      49A      0.039025    50A      0.042446    51A      0.044529  
      52A      0.054763    53A      0.056207    54A      0.061325  
      55A      0.075613    56A      0.078716    57A      0.082969  
      58A      0.087243    59A      0.093653    60A      0.095290  
      61A      0.102392    62A      0.105855    63A      0.108227  
      64A      0.111691    65A      0.113053    66A      0.115287  
      67A      0.119654    68A      0.120812    69A      0.126039  
      70A      0.129008    71A      0.132795    72A      0.134224  
      73A      0.136913    74A      0.142231    75A      0.148043  
      76A      0.148433    77A      0.152381    78A      0.153221  
      79A      0.157026    80A      0.161667    81A      0.168311  
      82A      0.172411    83A      0.175551    84A      0.183108  
      85A      0.184254    86A      0.186666    87A      0.201573  
      88A      0.204435    89A      0.211714    90A      0.216361  
      91A      0.221129    92A      0.225286    93A      0.228075  
      94A      0.234900    95A      0.240695    96A      0.242428  
      97A      0.245436    98A      0.250012    99A      0.253209  
     100A      0.257903   101A      0.259945   102A      0.264744  
     103A      0.266643   104A      0.269598   105A      0.274224  
     106A      0.275384   107A      0.286111   108A      0.288652  
     109A      0.292817   110A      0.294948   111A      0.299546  
     112A      0.301608   113A      0.304865   114A      0.313451  
     115A      0.317697   116A      0.319793   117A      0.323080  
     118A      0.327494   119A      0.330503   120A      0.335035  
     121A      0.339722   122A      0.342272   123A      0.348205  
     124A      0.356540   125A      0.360793   126A      0.364999  
     127A      0.369149   128A      0.373692   129A      0.383059  
     130A      0.385875   131A      0.396183   132A      0.397234  
     133A      0.399149   134A      0.410632   135A      0.419303  
     136A      0.421296   137A      0.426457   138A      0.426769  
     139A      0.430464   140A      0.435317   141A      0.435831  
     142A      0.439827   143A      0.444426   144A      0.448712  
     145A      0.451284   146A      0.452728   147A      0.459392  
     148A      0.461438   149A      0.466796   150A      0.469656  
     151A      0.475275   152A      0.476106   153A      0.484934  
     154A      0.486979   155A      0.488892   156A      0.491464  
     157A      0.498684   158A      0.503052   159A      0.503874  
     160A      0.505958   161A      0.508203   162A      0.512788  
     163A      0.514113   164A      0.518781   165A      0.521009  
     166A      0.525979   167A      0.527295   168A      0.531474  
     169A      0.535753   170A      0.538424   171A      0.543113  
     172A      0.547870   173A      0.552231   174A      0.555600  
     175A      0.560144   176A      0.562637   177A      0.570532  
     178A      0.578816   179A      0.581615   180A      0.586622  
     181A      0.592210   182A      0.598667   183A      0.605594  
     184A      0.613691   185A      0.614192   186A      0.624636  
     187A      0.627702   188A      0.632011   189A      0.636365  
     190A      0.638373   191A      0.650802   192A      0.659452  
     193A      0.660838   194A      0.677562   195A      0.680341  
     196A      0.685297   197A      0.691117   198A      0.699359  
     199A      0.704313   200A      0.708767   201A      0.710391  
     202A      0.718444   203A      0.722239   204A      0.726814  
     205A      0.732848   206A      0.736727   207A      0.743275  
     208A      0.750855   209A      0.755633   210A      0.763965  
     211A      0.765858   212A      0.768151   213A      0.774186  
     214A      0.778747   215A      0.792516   216A      0.800776  
     217A      0.803930   218A      0.811156   219A      0.818984  
     220A      0.821119   221A      0.829820   222A      0.839614  
     223A      0.840586   224A      0.843463   225A      0.852958  
     226A      0.855726   227A      0.860633   228A      0.868335  
     229A      0.871893   230A      0.879332   231A      0.880967  
     232A      0.883377   233A      0.885962   234A      0.894950  
     235A      0.899788   236A      0.902166   237A      0.908254  
     238A      0.908593   239A      0.920151   240A      0.922995  
     241A      0.926729   242A      0.937154   243A      0.939528  
     244A      0.941305   245A      0.948055   246A      0.954038  
     247A      0.960873   248A      0.963949   249A      0.964785  
     250A      0.973541   251A      0.975068   252A      0.982881  
     253A      0.984682   254A      0.987600   255A      0.991616  
     256A      0.999032   257A      1.000556   258A      1.007045  
     259A      1.011315   260A      1.011590   261A      1.014698  
     262A      1.021744   263A      1.023487   264A      1.029822  
     265A      1.034702   266A      1.035894   267A      1.037816  
     268A      1.044082   269A      1.048629   270A      1.052400  
     271A      1.057399   272A      1.065559   273A      1.071467  
     274A      1.081617   275A      1.085609   276A      1.088194  
     277A      1.092186   278A      1.097487   279A      1.097810  
     280A      1.101084   281A      1.105763   282A      1.106339  
     283A      1.115276   284A      1.116718   285A      1.120398  
     286A      1.122264   287A      1.134077   288A      1.141883  
     289A      1.148834   290A      1.154890   291A      1.158248  
     292A      1.162039   293A      1.167805   294A      1.168727  
     295A      1.174510   296A      1.180776   297A      1.182315  
     298A      1.187636   299A      1.191595   300A      1.196166  
     301A      1.199914   302A      1.209178   303A      1.214056  
     304A      1.216923   305A      1.220773   306A      1.224128  
     307A      1.225284   308A      1.230775   309A      1.237187  
     310A      1.253614   311A      1.260477   312A      1.272053  
     313A      1.273246   314A      1.277127   315A      1.281912  
     316A      1.291291   317A      1.294171   318A      1.300556  
     319A      1.306886   320A      1.313686   321A      1.320837  
     322A      1.324337   323A      1.328657   324A      1.331091  
     325A      1.340371   326A      1.346591   327A      1.353741  
     328A      1.367114   329A      1.370323   330A      1.381211  
     331A      1.391212   332A      1.396895   333A      1.405362  
     334A      1.410458   335A      1.418031   336A      1.430386  
     337A      1.443862   338A      1.450685   339A      1.458582  
     340A      1.461384   341A      1.462907   342A      1.478338  
     343A      1.487181   344A      1.495549   345A      1.501481  
     346A      1.508394   347A      1.515050   348A      1.520544  
     349A      1.528779   350A      1.536784   351A      1.541292  
     352A      1.543611   353A      1.554973   354A      1.576880  
     355A      1.582848   356A      1.587611   357A      1.600730  
     358A      1.610520   359A      1.611451   360A      1.618737  
     361A      1.628225   362A      1.632845   363A      1.643895  
     364A      1.654979   365A      1.661976   366A      1.669461  
     367A      1.674888   368A      1.682512   369A      1.693427  
     370A      1.702160   371A      1.708449   372A      1.712035  
     373A      1.716730   374A      1.719494   375A      1.733154  
     376A      1.737545   377A      1.741107   378A      1.744958  
     379A      1.761242   380A      1.769932   381A      1.784238  
     382A      1.785405   383A      1.790193   384A      1.803870  
     385A      1.811784   386A      1.819697   387A      1.827173  
     388A      1.828824   389A      1.837763   390A      1.844724  
     391A      1.854303   392A      1.859763   393A      1.866540  
     394A      1.873528   395A      1.886108   396A      1.901788  
     397A      1.907427   398A      1.911167   399A      1.911479  
     400A      1.930921   401A      1.938177   402A      1.941421  
     403A      1.948326   404A      1.964901   405A      1.965618  
     406A      1.971919   407A      1.980451   408A      1.991767  
     409A      1.997948   410A      2.006849   411A      2.010833  
     412A      2.014398   413A      2.022032   414A      2.031785  
     415A      2.044331   416A      2.045596   417A      2.055373  
     418A      2.056710   419A      2.068137   420A      2.075343  
     421A      2.077724   422A      2.092623   423A      2.101288  
     424A      2.104145   425A      2.109697   426A      2.116859  
     427A      2.122480   428A      2.132264   429A      2.138495  
     430A      2.144489   431A      2.150613   432A      2.153174  
     433A      2.163109   434A      2.186005   435A      2.191792  
     436A      2.195908   437A      2.198699   438A      2.206364  
     439A      2.226819   440A      2.230753   441A      2.238152  
     442A      2.246701   443A      2.248301   444A      2.267032  
     445A      2.271753   446A      2.297552   447A      2.303584  
     448A      2.308035   449A      2.314035   450A      2.325085  
     451A      2.349711   452A      2.350642   453A      2.364466  
     454A      2.368747   455A      2.370218   456A      2.379303  
     457A      2.397426   458A      2.399539   459A      2.402897  
     460A      2.412054   461A      2.413899   462A      2.437093  
     463A      2.439444   464A      2.459079   465A      2.469005  
     466A      2.483039   467A      2.492461   468A      2.517063  
     469A      2.523636   470A      2.540149   471A      2.549476  
     472A      2.561122   473A      2.564999   474A      2.572576  
     475A      2.582013   476A      2.592996   477A      2.596378  
     478A      2.621055   479A      2.629349   480A      2.645465  
     481A      2.655746   482A      2.678941   483A      2.692284  
     484A      2.704245   485A      2.733176   486A      2.737261  
     487A      2.749254   488A      2.776677   489A      2.788561  
     490A      2.811762   491A      2.816770   492A      2.819640  
     493A      2.852244   494A      2.855093   495A      2.866281  
     496A      2.882848   497A      2.903712   498A      2.910804  
     499A      2.925363   500A      2.963798   501A      2.991322  
     502A      3.004567   503A      3.037493   504A      3.046509  
     505A      3.049819   506A      3.066685   507A      3.093414  
     508A      3.102580   509A      3.133876   510A      3.165281  
     511A      3.193061   512A      3.209288   513A      3.217771  
     514A      3.224028   515A      3.241776   516A      3.245665  
     517A      3.261260   518A      3.302651   519A      3.315972  
     520A      3.319172   521A      3.327888   522A      3.340338  
     523A      3.346343   524A      3.359696   525A      3.368469  
     526A      3.372586   527A      3.381025   528A      3.401143  
     529A      3.416635   530A      3.423113   531A      3.427828  
     532A      3.434489   533A      3.447324   534A      3.453367  
     535A      3.460345   536A      3.479975   537A      3.486183  
     538A      3.491169   539A      3.502455   540A      3.515820  
     541A      3.521103   542A      3.530990   543A      3.540024  
     544A      3.543927   545A      3.554721   546A      3.559859  
     547A      3.566248   548A      3.578232   549A      3.581621  
     550A      3.588577   551A      3.594485   552A      3.604071  
     553A      3.614151   554A      3.631309   555A      3.636645  
     556A      3.642155   557A      3.651377   558A      3.654383  
     559A      3.678058   560A      3.687459   561A      3.693542  
     562A      3.703412   563A      3.723313   564A      3.731471  
     565A      3.741655   566A      3.756443   567A      3.768999  
     568A      3.779598   569A      3.779972   570A      3.786536  
     571A      3.792274   572A      3.809773   573A      3.817788  
     574A      3.832391   575A      3.835079   576A      3.847440  
     577A      3.853924   578A      3.860418   579A      3.866470  
     580A      3.877882   581A      3.883328   582A      3.892526  
     583A      3.901597   584A      3.915692   585A      3.922191  
     586A      3.935646   587A      3.941842   588A      3.943787  
     589A      3.950433   590A      3.962316   591A      3.965503  
     592A      3.976497   593A      3.983766   594A      3.996753  
     595A      4.002205   596A      4.015353   597A      4.020119  
     598A      4.026098   599A      4.034301   600A      4.037622  
     601A      4.039041   602A      4.042529   603A      4.077202  
     604A      4.091377   605A      4.105184   606A      4.111243  
     607A      4.117353   608A      4.128741   609A      4.133829  
     610A      4.142039   611A      4.152732   612A      4.160873  
     613A      4.162741   614A      4.175819   615A      4.183025  
     616A      4.205291   617A      4.207472   618A      4.212178  
     619A      4.230820   620A      4.237395   621A      4.254167  
     622A      4.256807   623A      4.260779   624A      4.273234  
     625A      4.278989   626A      4.287858   627A      4.298064  
     628A      4.308875   629A      4.314309   630A      4.333093  
     631A      4.335093   632A      4.341000   633A      4.357257  
     634A      4.366827   635A      4.376075   636A      4.386583  
     637A      4.394150   638A      4.397584   639A      4.402725  
     640A      4.407208   641A      4.426680   642A      4.436094  
     643A      4.442463   644A      4.451406   645A      4.458972  
     646A      4.467680   647A      4.475603   648A      4.481389  
     649A      4.503165   650A      4.505263   651A      4.513119  
     652A      4.515789   653A      4.516246   654A      4.545031  
     655A      4.559734   656A      4.568792   657A      4.588121  
     658A      4.592342   659A      4.622482   660A      4.622776  
     661A      4.642739   662A      4.654187   663A      4.669216  
     664A      4.690515   665A      4.699958   666A      4.701899  
     667A      4.716558   668A      4.722910   669A      4.741936  
     670A      4.761775   671A      4.763758   672A      4.795656  
     673A      4.804366   674A      4.832772   675A      4.838352  
     676A      4.844577   677A      4.862867   678A      4.867478  
     679A      4.877323   680A      4.893395   681A      4.913835  
     682A      4.932166   683A      4.942339   684A      4.954536  
     685A      4.959990   686A      4.970727   687A      4.984067  
     688A      4.994819   689A      5.001318   690A      5.021558  
     691A      5.028967   692A      5.041318   693A      5.050806  
     694A      5.057368   695A      5.079488   696A      5.097713  
     697A      5.106870   698A      5.117433   699A      5.128220  
     700A      5.132767   701A      5.144063   702A      5.153099  
     703A      5.160186   704A      5.163251   705A      5.168510  
     706A      5.180002   707A      5.210944   708A      5.220203  
     709A      5.226894   710A      5.237113   711A      5.268364  
     712A      5.283226   713A      5.299148   714A      5.310973  
     715A      5.314239   716A      5.320798   717A      5.359313  
     718A      5.360858   719A      5.380253   720A      5.403674  
     721A      5.420596   722A      5.431079   723A      5.439510  
     724A      5.454466   725A      5.470332   726A      5.477815  
     727A      5.493462   728A      5.520920   729A      5.554855  
     730A      5.564933   731A      5.571107   732A      5.591262  
     733A      5.622297   734A      5.631170   735A      5.656655  
     736A      5.701739   737A      5.707914   738A      5.733705  
     739A      5.757118   740A      5.760084   741A      5.800650  
     742A      5.815872   743A      5.825255   744A      5.849518  
     745A      5.874450   746A      5.880304   747A      5.915682  
     748A      5.936799   749A      5.985902   750A      6.048459  
     751A      6.086198   752A      6.115388   753A      6.156279  
     754A      6.187664   755A      6.221697   756A      6.249606  
     757A      6.274231   758A      6.287288   759A      6.366056  
     760A      6.403738   761A      6.429715   762A      6.467078  
     763A      6.482812   764A      6.513360   765A      6.524197  
     766A      6.597670   767A      6.622906   768A      6.705396  
     769A      6.711172   770A      6.723550   771A      6.741999  
     772A      6.884793   773A      6.887249   774A      6.907207  
     775A      6.923150   776A      6.938175   777A      6.944539  
     778A      6.975922   779A      7.090707   780A      7.104491  
     781A      7.138628   782A      7.272059   783A      7.305440  
     784A      7.409312   785A      7.434409   786A      7.536440  
     787A      7.646432   788A      7.663874   789A      7.802589  
     790A      7.920958   791A      8.287084   792A      8.596590  
     793A     15.622850   794A     16.369656   795A     16.733465  
     796A     16.781925   797A     16.834348   798A     18.434089  
     799A     18.821301   800A     19.171170   801A     19.658314  
     802A     20.061743   803A     20.096957   804A     20.602239  
     805A     21.772945  

    Final Occupation by Irrep:
              A 
    DOCC [    45 ]

  Energy converged.

  @DF-RHF Final Energy:  -551.28342375904833

   => Energetics <=

    Nuclear Repulsion Energy =            698.5291894303907156
    One-Electron Energy =               -2133.7939142796244596
    Two-Electron Energy =                 883.9813010901854113
    DFT Exchange-Correlation Energy =       0.0000000000000000
    Empirical Dispersion Energy =           0.0000000000000000
    PCM Polarization Energy =               0.0000000000000000
    EFP Energy =                            0.0000000000000000
    Total Energy =                       -551.2834237590483326



Properties will be evaluated at   0.000000,   0.000000,   0.000000 Bohr

Properties computed using the SCF density matrix

  Nuclear Dipole Moment: (a.u.)
     X:    -0.7648      Y:     1.0737      Z:     0.0166

  Electronic Dipole Moment: (a.u.)
     X:    -0.0219      Y:    -0.1838      Z:     0.1830

  Dipole Moment: (a.u.)
     X:    -0.7868      Y:     0.8899      Z:     0.1996     Total:     1.2045

  Dipole Moment: (Debye)
     X:    -1.9997      Y:     2.2619      Z:     0.5073     Total:     3.0615


*** tstop() called on gpu-2-11.local at Sun Nov 12 14:36:08 2017
Module time:
	user time   =    1105.45 seconds =      18.42 minutes
	system time =      49.20 seconds =       0.82 minutes
	total time  =        477 seconds =       7.95 minutes
Total time:
	user time   =    1105.46 seconds =      18.42 minutes
	system time =      49.20 seconds =       0.82 minutes
	total time  =        478 seconds =       7.97 minutes

  //>>>>>>>>>>>>>>>>>>>>>>>>>>>>>>>>>>>//
  //               DFMP2               //
  //<<<<<<<<<<<<<<<<<<<<<<<<<<<<<<<<<<<//

   => Loading Basis Set <=

    Name: (AUG-CC-PVTZ AUX)
    Role: RIFIT
    Keyword: DF_BASIS_MP2
    atoms 1-11  entry C          line   147 file /cbio/jclab/home/chayas/anaconda/envs/py35/share/psi4/basis/aug-cc-pvtz-ri.gbs 
    atoms 12    entry N          line   205 file /cbio/jclab/home/chayas/anaconda/envs/py35/share/psi4/basis/aug-cc-pvtz-ri.gbs 
    atoms 13    entry O          line   263 file /cbio/jclab/home/chayas/anaconda/envs/py35/share/psi4/basis/aug-cc-pvtz-ri.gbs 
    atoms 14-22 entry H          line    29 file /cbio/jclab/home/chayas/anaconda/envs/py35/share/psi4/basis/aug-cc-pvtz-ri.gbs 

	 --------------------------------------------------------
	                          DF-MP2                         
	      2nd-Order Density-Fitted Moller-Plesset Theory     
	              RMP2 Wavefunction,   8 Threads             
	                                                         
	        Rob Parrish, Justin Turney, Andy Simmonett,      
	           Ed Hohenstein, and C. David Sherrill          
	 --------------------------------------------------------

   => Auxiliary Basis Set <=

  Basis Set: (AUG-CC-PVTZ AUX)
    Blend: AUG-CC-PVTZ-RI
    Number of shells: 490
    Number of basis function: 1792
    Number of Cartesian functions: 2263
    Spherical Harmonics?: true
    Max angular momentum: 4

	 --------------------------------------------------------
	                 NBF =   805, NAUX =  1792
	 --------------------------------------------------------
	   CLASS    FOCC     OCC    AOCC    AVIR     VIR    FVIR
	   PAIRS       0      45      45     760     760       0
	 --------------------------------------------------------


         ------------------------------------------------------------
                                     CPHF                           
                                  Rob Parrish                       
         ------------------------------------------------------------

  ==> Geometry <==

    Molecular point group: c1
    Full point group: C1

    Geometry (in Angstrom), charge = 0, multiplicity = 1:

       Center              X                  Y                   Z               Mass       
    ------------   -----------------  -----------------  -----------------  -----------------
           C         -1.251641323776     0.703990657044    -0.582691480902    12.000000000000
           C         -0.258641323776     0.087990657044     1.531308519098    12.000000000000
           C         -2.329641323776     1.276990657044     0.090308519098    12.000000000000
           C         -1.336641323776     0.660990657044     2.205308519098    12.000000000000
           C          0.725358676224    -1.033009342956    -1.826691480902    12.000000000000
           C          2.161358676224    -0.510009342956     0.030308519098    12.000000000000
           C          1.828358676224    -1.589009342956    -2.453691480902    12.000000000000
           C          3.200358676224    -1.089009342956    -0.679691480902    12.000000000000
           C         -0.215641323776     0.108990657044     0.137308519098    12.000000000000
           C          0.903358676224    -0.485009342956    -0.560691480902    12.000000000000
           C         -2.372641323776     1.255990657044     1.484308519098    12.000000000000
           N          3.065358676224    -1.632009342956    -1.910691480902    14.003074004780
           O         -3.424641323776     1.815990657044     2.141308519098    15.994914619560
           H         -1.232641323776     0.727990657044    -1.669691480902     1.007825032070
           H          0.541358676224    -0.372009342956     2.107308519098     1.007825032070
           H         -3.133641323776     1.738990657044    -0.476691480902     1.007825032070
           H         -1.364641323776     0.641990657044     3.291308519098     1.007825032070
           H         -0.241641323776    -1.032009342956    -2.320691480902     1.007825032070
           H          2.338358676224    -0.093009342956     1.016308519098     1.007825032070
           H          1.742358676224    -2.028009342956    -3.442691480902     1.007825032070
           H          4.200358676224    -1.135009342956    -0.262691480902     1.007825032070
           H         -3.638641323776     2.681990657044     1.758308519098     1.007825032070

  Nuclear repulsion =  698.529189430390716
  Reference energy  = -551.283423759048333

  ==> Basis Set <==

  Basis Set: AUG-CC-PVTZ
    Blend: AUG-CC-PVTZ
    Number of shells: 263
    Number of basis function: 805
    Number of Cartesian functions: 940
    Spherical Harmonics?: true
    Max angular momentum: 3

  ==> CGRSolver (by Rob Parrish) <==

   Number of roots    =         1
   Preconditioning    =    JACOBI
   Convergence cutoff =     1E-06
   Maximum iterations =       100

  ==> CPHFRHamiltonian (by Rob Parrish) <== 

  ==> DFJK: Density-Fitted J/K Matrices <==

    J tasked:                  Yes
    K tasked:                  Yes
    wK tasked:                  No
    OpenMP threads:              8
    Integrals threads:           8
    Memory (MB):              3576
    Algorithm:                Disk
    Integral Cache:           NONE
    Schwarz Cutoff:          1E-12
    Fitting Condition:       1E-12

   => Auxiliary Basis Set <=

  Basis Set: (AUG-CC-PVTZ AUX)
    Blend: AUG-CC-PVTZ-JKFIT
    Number of shells: 516
    Number of basis function: 1766
    Number of Cartesian functions: 2198
    Spherical Harmonics?: true
    Max angular momentum: 4

  ==> CPHF Iterations <==

  => Iterations <=

             Iter  Converged  Remaining    Residual
  CGR           1          0          1   8.821E-02
  CGR           2          0          1   3.593E-02
  CGR           3          0          1   2.516E-02
  CGR           4          0          1   1.025E-02
  CGR           5          0          1   4.014E-03
  CGR           6          0          1   1.680E-03
  CGR           7          0          1   4.911E-04
  CGR           8          0          1   1.722E-04
  CGR           9          0          1   8.761E-05
  CGR          10          0          1   3.917E-05
  CGR          11          0          1   1.360E-05
  CGR          12          0          1   4.998E-06
  CGR          13          0          1   1.443E-06
  CGR          14          1          0   4.673E-07

    CGRSolver converged.

  ==> DFCorrGrad: Density-Fitted Correlated Gradients <==

    OpenMP threads:              8
    Integrals threads:           8
    Memory (MB):              3576
    Schwarz Cutoff:          0E+00
    Fitting Condition:       1E-12

   => Auxiliary Basis Set <=

  Basis Set: (AUG-CC-PVTZ AUX)
    Blend: AUG-CC-PVTZ-JKFIT
    Number of shells: 516
    Number of basis function: 1766
    Number of Cartesian functions: 2198
    Spherical Harmonics?: true
    Max angular momentum: 4

	-----------------------------------------------------------
	 ==================> DF-MP2 Energies <==================== 
	-----------------------------------------------------------
	 Reference Energy          =    -551.2834237590483326 [Eh]
	 Singles Energy            =      -0.0000000000000001 [Eh]
	 Same-Spin Energy          =      -0.6049792314907251 [Eh]
	 Opposite-Spin Energy      =      -1.8306316789715020 [Eh]
	 Correlation Energy        =      -2.4356109104622270 [Eh]
	 Total Energy              =    -553.7190346695105063 [Eh]
	-----------------------------------------------------------
	 ================> DF-SCS-MP2 Energies <================== 
	-----------------------------------------------------------
	 SCS Same-Spin Scale       =       0.3333333333333333 [-]
	 SCS Opposite-Spin Scale   =       1.2000000000000000 [-]
	 SCS Same-Spin Energy      =      -0.2016597438302417 [Eh]
	 SCS Opposite-Spin Energy  =      -2.1967580147658023 [Eh]
	 SCS Correlation Energy    =      -2.3984177585960440 [Eh]
	 SCS Total Energy          =    -553.6818415176443295 [Eh]
	-----------------------------------------------------------


  -Total Gradient:
     Atom            X                  Y                   Z
    ------   -----------------  -----------------  -----------------
       1        0.008973781229    -0.003259296193    -0.006339420292
       2        0.010463994202    -0.005875381415    -0.003637245064
       3       -0.006567454479     0.003836780171     0.003759183979
       4       -0.000705371150     0.002096193780    -0.000463502550
       5       -0.009889444841     0.001493156925     0.002102123346
       6       -0.004966804366     0.006203280437     0.007075176659
       7       -0.012708891242     0.002176864722    -0.000229342836
       8       -0.003039258001     0.006910554027     0.011014355265
       9        0.002920473982    -0.001539227815    -0.001949276440
      10        0.004240361830    -0.001914213483    -0.001714434065
      11       -0.007833692264    -0.002466437182     0.010405395154
      12        0.012475344116    -0.006971905709    -0.008095686988
      13        0.005378854428    -0.009049604622    -0.009360488481
      14       -0.001496980839    -0.000969117513    -0.006329646058
      15        0.005441282543    -0.001320262281     0.004155571589
      16       -0.002423470029     0.001717162629    -0.004078715456
      17        0.002380746486    -0.001597621969     0.005276055647
      18       -0.004500802846     0.001218339698    -0.003937813282
      19        0.001098981029     0.000313771242     0.005477076980
      20        0.000486615976    -0.001032161322    -0.002870899182
      21        0.002305053707    -0.000739428359     0.000432282477
      22       -0.002033319473     0.010768554241    -0.000690750390


*** tstop() called on gpu-2-11.local at Sun Nov 12 15:08:07 2017
Module time:
	user time   =    5021.72 seconds =      83.70 minutes
	system time =     105.45 seconds =       1.76 minutes
	total time  =       2396 seconds =      39.93 minutes
Total time:
	user time   =    5021.73 seconds =      83.70 minutes
	system time =     105.45 seconds =       1.76 minutes
	total time  =       2397 seconds =      39.95 minutes

			-----------------------------------------
			 OPTKING 2.0: for geometry optimizations 
			  - R.A. King,  Bethel University        
			-----------------------------------------

	Internal coordinates to be generated automatically.
	Detected frag 1 with atoms:  1 2 3 4 5 6 7 8 9 10 11 12 13 14 15 16 17 18 19 20
	 21 22
	---Fragment 1 Bond Connectivity---
	 1 : 3 9 14
	 2 : 4 9 15
	 3 : 1 11 16
	 4 : 2 11 17
	 5 : 7 10 18
	 6 : 8 10 19
	 7 : 5 12 20
	 8 : 6 12 21
	 9 : 1 2 10
	 10 : 5 6 9
	 11 : 3 4 13
	 12 : 7 8
	 13 : 11 22
	 14 : 1
	 15 : 2
	 16 : 3
	 17 : 4
	 18 : 5
	 19 : 6
	 20 : 7
	 21 : 8
	 22 : 13

	Assuming in current code that numbering for constraints corresponds to unified fragment.
	Fixed dihedral atom list: 
	     3    11    13    22
	---Fragment 1 Geometry and Gradient---
	 C          -2.3652593185        1.3303495419       -1.1011273189
	 C          -0.4887612686        0.1662782441        2.8937537260
	 C          -4.4023840898        2.4131626161        0.1706583686
	 C          -2.5258860398        1.2490913182        4.1674291396
	 C           1.3707292462       -1.9521047509       -3.4519466282
	 C           4.0843759730       -0.9637779834        0.0572748006
	 C           3.4550971707       -3.0027924808       -4.6368049135
	 C           6.0478014251       -2.0579294143       -1.2844307538
	 C          -0.4075030449        0.2059624929        0.2594754968
	 C           1.7071004978       -0.9165348301       -1.0595533439
	 C          -4.4836423135        2.3734783673        2.8049365978
	 N           5.7926883971       -3.0840507045       -3.6106836233
	 O          -6.4716342053        3.4317250017        4.0464866671
	 H          -2.3293545220        1.3757029691       -3.1552596253
	 H           1.0230196377       -0.7029957771        3.9822359786
	 H          -5.9217239006        3.2862160895       -0.9008163488
	 H          -2.5787983716        1.2131865217        6.2196717199
	 H          -0.4566359243       -1.9502150248       -4.3854713378
	 H           4.4188574985       -0.1757621860        1.9205447676
	 H           3.2925807233       -3.8323822531       -6.5057440589
	 H           7.9375275580       -2.1448568165       -0.4964149563
	 H          -6.8760355977        5.0682278328        3.3227215582
	             0.0089737812       -0.0032592962       -0.0063394203
	             0.0104639942       -0.0058753814       -0.0036372451
	            -0.0065674545        0.0038367802        0.0037591840
	            -0.0007053711        0.0020961938       -0.0004635026
	            -0.0098894448        0.0014931569        0.0021021233
	            -0.0049668044        0.0062032804        0.0070751767
	            -0.0127088912        0.0021768647       -0.0002293428
	            -0.0030392580        0.0069105540        0.0110143553
	             0.0029204740       -0.0015392278       -0.0019492764
	             0.0042403618       -0.0019142135       -0.0017144341
	            -0.0078336923       -0.0024664372        0.0104053952
	             0.0124753441       -0.0069719057       -0.0080956870
	             0.0053788544       -0.0090496046       -0.0093604885
	            -0.0014969808       -0.0009691175       -0.0063296461
	             0.0054412825       -0.0013202623        0.0041555716
	            -0.0024234700        0.0017171626       -0.0040787155
	             0.0023807465       -0.0015976220        0.0052760556
	            -0.0045008028        0.0012183397       -0.0039378133
	             0.0010989810        0.0003137712        0.0054770770
	             0.0004866160       -0.0010321613       -0.0028708992
	             0.0023050537       -0.0007394284        0.0004322825
	            -0.0020333195        0.0107685542       -0.0006907504

	Previous optimization step data not found.  Starting new optimization.

	---Fragment 1 Intrafragment Coordinates---
	 - Coordinate -           - BOHR/RAD -       - ANG/DEG -
	 R(1,3)           =         2.634350	       1.394038
	 R(1,9)           =         2.635962	       1.394891
	 R(1,14)          =         2.054947	       1.087431
	 R(2,4)           =         2.635263	       1.394521
	 R(2,9)           =         2.635830	       1.394821
	 R(2,15)          =         2.055702	       1.087831
	 R(3,11)          =         2.635830	       1.394821
	 R(3,16)          =         2.053941	       1.086899
	 R(4,11)          =         2.636938	       1.395407
	 R(4,17)          =         2.053239	       1.086527
	 R(5,7)           =         2.617713	       1.385234
	 R(5,10)          =         2.628516	       1.390951
	 R(5,18)          =         2.052008	       1.085876
	 R(6,8)           =         2.617705	       1.385230
	 R(6,10)          =         2.626971	       1.390133
	 R(6,19)          =         2.050517	       1.085087
	 R(7,12)          =         2.554185	       1.351616
	 R(7,20)          =         2.051235	       1.085467
	 R(8,12)          =         2.555281	       1.352196
	 R(8,21)          =         2.049290	       1.084438
	 R(9,10)          =         2.733384	       1.446444
	 R(11,13)         =         2.571662	       1.360865
	 R(13,22)         =         1.834535	       0.970794
	 B(1,3,11)        =         2.094553	     120.009056
	 B(1,3,16)        =         2.088505	     119.662516
	 B(1,9,2)         =         2.093692	     119.959722
	 B(1,9,10)        =         2.095161	     120.043881
	 B(2,4,11)        =         2.093699	     119.960108
	 B(2,4,17)        =         2.089577	     119.723926
	 B(2,9,10)        =         2.094332	     119.996376
	 B(3,1,9)         =         2.094940	     120.031219
	 B(3,1,14)        =         2.079469	     119.144799
	 B(3,11,4)        =         2.094306	     119.994870
	 B(3,11,13)       =         2.094549	     120.008801
	 B(4,2,9)         =         2.095181	     120.045019
	 B(4,2,15)        =         2.078675	     119.099297
	 B(4,11,13)       =         2.094331	     119.996326
	 B(5,7,12)        =         2.164774	     124.032419
	 B(5,7,20)        =         2.107900	     120.773750
	 B(5,10,6)        =         2.089402	     119.713913
	 B(5,10,9)        =         2.096711	     120.132663
	 B(6,8,12)        =         2.164670	     124.026428
	 B(6,8,21)        =         2.108649	     120.816676
	 B(6,10,9)        =         2.097073	     120.153413
	 B(7,5,10)        =         2.058056	     117.917911
	 B(7,5,18)        =         2.098486	     120.234396
	 B(7,12,8)        =         2.031222	     116.380442
	 B(8,6,10)        =         2.058246	     117.928826
	 B(8,6,19)        =         2.099051	     120.266760
	 B(9,1,14)        =         2.108776	     120.823969
	 B(9,2,15)        =         2.109330	     120.855683
	 B(10,5,18)       =         2.126643	     121.847689
	 B(10,6,19)       =         2.125888	     121.804412
	 B(11,3,16)       =         2.100127	     120.328425
	 B(11,4,17)       =         2.099910	     120.315955
	 B(11,13,22)      =         1.925190	     110.305252
	 B(12,7,20)       =         2.010511	     115.193804
	 B(12,8,21)       =         2.009864	     115.156734
	 D(1,3,11,4)      =        -0.000325	      -0.018609
	 D(1,3,11,13)     =         3.140978	     179.964785
	 D(1,9,2,4)       =         0.000325	       0.018608
	 D(1,9,2,15)      =        -3.141497	    -179.994534
	 D(1,9,10,5)      =        -0.524224	     -30.035797
	 D(1,9,10,6)      =         2.616694	     149.925506
	 D(2,4,11,3)      =         0.000301	       0.017261
	 D(2,4,11,13)     =        -3.141002	    -179.966135
	 D(2,9,1,3)       =        -0.000348	      -0.019945
	 D(2,9,1,14)      =        -3.141221	    -179.978731
	 D(2,9,10,5)      =         2.618285	     150.016707
	 D(2,9,10,6)      =        -0.523983	     -30.021991
	 D(3,1,9,10)      =        -3.141025	    -179.967461
	 D(3,11,4,17)     =         3.141223	     179.978848
	 D(3,11,13,22)    =        -0.785024	     -44.978548
	 D(4,2,9,10)      =         3.141002	     179.966149
	 D(4,11,3,16)     =         3.141593	     180.000000
	 D(4,11,13,22)    =         2.356279	     135.004846
	 D(5,7,12,8)      =        -0.001332	      -0.076323
	 D(5,10,6,8)      =         0.000381	       0.021838
	 D(5,10,6,19)     =        -3.140989	    -179.965395
	 D(6,8,12,7)      =         0.001671	       0.095732
	 D(6,10,5,7)      =        -0.000077	      -0.004437
	 D(6,10,5,18)     =        -3.141299	    -179.983151
	 D(7,5,10,9)      =         3.140843	     179.957036
	 D(7,12,8,21)     =         3.140716	     179.949799
	 D(8,6,10,9)      =        -3.140539	    -179.939628
	 D(8,12,7,20)     =         3.139212	     179.863574
	 D(9,1,3,11)      =         0.000348	       0.019955
	 D(9,1,3,16)      =        -3.141571	    -179.998735
	 D(9,2,4,11)      =        -0.000301	      -0.017270
	 D(9,2,4,17)      =        -3.141228	    -179.979086
	 D(9,10,5,18)     =        -0.000378	      -0.021678
	 D(9,10,6,19)     =         0.001277	       0.073140
	 D(10,5,7,12)     =         0.000580	       0.033223
	 D(10,5,7,20)     =        -3.139908	    -179.903478
	 D(10,6,8,12)     =        -0.001235	      -0.070741
	 D(10,6,8,21)     =        -3.140143	    -179.916933
	 D(10,9,1,14)     =         0.001287	       0.073752
	 D(10,9,2,15)     =        -0.000820	      -0.046992
	 D(11,3,1,14)     =         3.141234	     179.979432
	 D(11,4,2,15)     =         3.141517	     179.995641
	 D(12,7,5,18)     =        -3.141378	    -179.987706
	 D(12,8,6,19)     =         3.140139	     179.916697
	 D(13,11,3,16)    =        -0.000286	      -0.016400
	 D(13,11,4,17)    =        -0.000079	      -0.004548
	 D(14,1,3,16)     =        -0.000685	      -0.039257
	 D(15,2,4,17)     =         0.000590	       0.033826
	 D(18,5,7,20)     =         0.001319	       0.075593
	 D(19,6,8,21)     =         0.001231	       0.070505

	Current energy   :      -553.7190346695

	Generating empirical Hessian (Schlegel '84) for each fragment.
	Adding user-defined constraint: Fragment 1; Coordinate 73:
		Value =    -0.785024; Fixed value    =    -0.785398
		Force =    -0.000187; Force constant =     0.500000
	Removing off-diagonal coupling between coordinate 73 and others.
	Taking RFO optimization step.
	Going to follow RFO solution 1.
	Using RFO vector 1.

	Determining step-restricting scale parameter for RS-RFO.
	Maximum step size allowed    0.10000

	 Iter      |step|        alpha        rfo_root  
	------------------------------------------------
	    0     0.29376       1.00000           1
	    1     0.20045       3.61869           1
	    2     0.15024       9.33735           1
	    3     0.12071      20.14525           1
	    4     0.10518      32.20181           1
	    5     0.10044      37.45159           1
	    6     0.10000      37.98127           1
	------------------------------------------------
	Norm of target step-size    0.10000
	Projected energy change by RFO approximation:        -0.0046747522

	Back-transformation to cartesian coordinates...
	Could not converge backtransformation.
	Using first guess instead.

	--- Internal Coordinate Step in ANG or DEG, aJ/ANG or AJ/DEG ---
	 ---------------------------------------------------------------------------
	   Coordinate                Previous        Force       Change         New 
	   ----------                --------       ------       ------       ------
	    1 R(1,3)          =      1.394038    -0.056099    -0.005552     1.388486
	    2 R(1,9)          =      1.394891    -0.007806    -0.000537     1.394354
	    3 R(1,14)         =      1.087431    -0.051737    -0.006264     1.081167
	    4 R(2,4)          =      1.394521    -0.056326    -0.005668     1.388853
	    5 R(2,9)          =      1.394821    -0.001760     0.000097     1.394918
	    6 R(2,15)         =      1.087831    -0.055694    -0.006722     1.081109
	    7 R(3,11)         =      1.394821    -0.042636    -0.004375     1.390446
	    8 R(3,16)         =      1.086899    -0.038314    -0.004639     1.082260
	    9 R(4,11)         =      1.395407    -0.084691    -0.008630     1.386777
	   10 R(4,17)         =      1.086527    -0.043170    -0.005183     1.081344
	   11 R(5,7)          =      1.385234     0.001798     0.000159     1.385393
	   12 R(5,10)         =      1.390951     0.003415     0.000957     1.391908
	   13 R(5,18)         =      1.085876    -0.047788    -0.005731     1.080145
	   14 R(6,8)          =      1.385230     0.001436     0.000130     1.385360
	   15 R(6,10)         =      1.390133     0.009324     0.001484     1.391617
	   16 R(6,19)         =      1.085087    -0.043476    -0.005200     1.079887
	   17 R(7,12)         =      1.351616    -0.123001    -0.011224     1.340393
	   18 R(7,20)         =      1.085467    -0.024670    -0.002957     1.082510
	   19 R(8,12)         =      1.352196    -0.126273    -0.011522     1.340674
	   20 R(8,21)         =      1.084438    -0.019142    -0.002288     1.082150
	   21 R(9,10)         =      1.446444     0.155108     0.017642     1.464086
	   22 R(11,13)        =      1.360865     0.055459     0.005271     1.366136
	   23 R(13,22)        =      0.970794    -0.085082    -0.007692     0.963102
	   24 B(1,3,11)       =    120.009056     0.000112     0.177325   120.186381
	   25 B(1,3,16)       =    119.662516     0.000096     0.251713   119.914229
	   26 B(1,9,2)        =    119.959722    -0.000786    -1.353864   118.605858
	   27 B(1,9,10)       =    120.043881     0.000373     0.641151   120.685033
	   28 B(2,4,11)       =    119.960108     0.000049     0.035259   119.995368
	   29 B(2,4,17)       =    119.723926     0.000204     0.494362   120.218288
	   30 B(2,9,10)       =    119.996376     0.000413     0.712733   120.709109
	   31 B(3,1,9)        =    120.031219     0.000310     0.603638   120.634857
	   32 B(3,1,14)       =    119.144799    -0.000087    -0.151162   118.993638
	   33 B(3,11,4)       =    119.994870    -0.000132    -0.300627   119.694243
	   34 B(3,11,13)      =    120.008801     0.000674     1.217553   121.226354
	   35 B(4,2,9)        =    120.045019     0.000446     0.837921   120.882940
	   36 B(4,2,15)       =    119.099297    -0.000174    -0.312079   118.787218
	   37 B(4,11,13)      =    119.996326    -0.000542    -0.919358   119.076969
	   38 B(5,7,12)       =    124.032419     0.000043     0.000626   124.033044
	   39 B(5,7,20)       =    120.773750    -0.000073    -0.116355   120.657395
	   40 B(5,10,6)       =    119.713913    -0.001204    -2.009044   117.704868
	   41 B(5,10,9)       =    120.132663     0.000602     1.005577   121.138240
	   42 B(6,8,12)       =    124.026428     0.000041    -0.000144   124.026284
	   43 B(6,8,21)       =    120.816676    -0.000077    -0.127636   120.689039
	   44 B(6,10,9)       =    120.153413     0.000602     1.003468   121.156881
	   45 B(7,5,10)       =    117.917911     0.000530     1.053028   118.970939
	   46 B(7,5,18)       =    120.234396    -0.000208    -0.403476   119.830921
	   47 B(7,12,8)       =    116.380442     0.000063    -0.094710   116.285732
	   48 B(8,6,10)       =    117.928826     0.000528     1.050258   118.979084
	   49 B(8,6,19)       =    120.266760    -0.000215    -0.417789   119.848971
	   50 B(9,1,14)       =    120.823969    -0.000223    -0.452577   120.371392
	   51 B(9,2,15)       =    120.855683    -0.000272    -0.526174   120.329509
	   52 B(10,5,18)      =    121.847689    -0.000322    -0.650022   121.197667
	   53 B(10,6,19)      =    121.804412    -0.000313    -0.632940   121.171473
	   54 B(11,3,16)      =    120.328425    -0.000208    -0.429060   119.899365
	   55 B(11,4,17)      =    120.315955    -0.000254    -0.529661   119.786294
	   56 B(11,13,22)     =    110.305252    -0.000310    -0.687711   109.617541
	   57 B(12,7,20)      =    115.193804     0.000030     0.115720   115.309524
	   58 B(12,8,21)      =    115.156734     0.000036     0.127943   115.284677
	   59 D(1,3,11,4)     =     -0.018609    -0.000011    -0.212184    -0.230793
	   60 D(1,3,11,13)    =    179.964785     0.000021     0.377248   180.342034
	   61 D(1,9,2,4)      =      0.018608    -0.000005    -0.085465    -0.066858
	   62 D(1,9,2,15)     =   -179.994534    -0.000017    -0.285044  -180.279578
	   63 D(1,9,10,5)     =    -30.035797    -0.000027    -0.470650   -30.506447
	   64 D(1,9,10,6)     =    149.925506    -0.000027    -0.471217   149.454290
	   65 D(2,4,11,3)     =      0.017261     0.000007     0.138993     0.156255
	   66 D(2,4,11,13)    =   -179.966135    -0.000026    -0.438087  -180.404222
	   67 D(2,9,1,3)      =     -0.019945     0.000000     0.011960    -0.007984
	   68 D(2,9,1,14)     =   -179.978731    -0.000010    -0.152689  -180.131421
	   69 D(2,9,10,5)     =    150.016707    -0.000029    -0.513733   149.502973
	   70 D(2,9,10,6)     =    -30.021991    -0.000029    -0.514299   -30.536290
	   71 D(3,1,9,10)     =   -179.967461    -0.000002    -0.031298  -179.998759
	   72 D(3,11,4,17)    =    179.978848     0.000014     0.258741   180.237589
	   73 D(3,11,13,22)   =    -44.978548     0.000011     0.073378   -44.905169
	   74 D(4,2,9,10)     =    179.966149    -0.000002    -0.042235   179.923915
	   75 D(4,11,3,16)    =    180.000000    -0.000009    -0.173042   179.826958
	   76 D(4,11,13,22)   =    135.004846     0.000044     0.659346   135.664192
	   77 D(5,7,12,8)     =     -0.076323     0.000001     0.021347    -0.054975
	   78 D(5,10,6,8)     =      0.021838     0.000000     0.001672     0.023509
	   79 D(5,10,6,19)    =   -179.965395    -0.000016    -0.261368  -180.226763
	   80 D(6,8,12,7)     =      0.095732    -0.000001    -0.009796     0.085937
	   81 D(6,10,5,7)     =     -0.004437     0.000000     0.008971     0.004534
	   82 D(6,10,5,18)    =   -179.983151    -0.000016    -0.263053  -180.246204
	   83 D(7,5,10,9)     =    179.957036     0.000001     0.009547   179.966583
	   84 D(7,12,8,21)    =    179.949799     0.000008     0.132427   180.082225
	   85 D(8,6,10,9)     =   -179.939628     0.000000     0.001095  -179.938532
	   86 D(8,12,7,20)    =    179.863574     0.000009     0.151086   180.014660
	   87 D(9,1,3,11)     =      0.019955     0.000008     0.137056     0.157011
	   88 D(9,1,3,16)     =   -179.998735     0.000006     0.097985  -179.900749
	   89 D(9,2,4,11)     =     -0.017270     0.000001     0.009950    -0.007320
	   90 D(9,2,4,17)     =   -179.979086    -0.000006    -0.109924  -180.089009
	   91 D(9,10,5,18)    =     -0.021678    -0.000016    -0.262477    -0.284155
	   92 D(9,10,6,19)    =      0.073140    -0.000016    -0.261944    -0.188805
	   93 D(10,5,7,12)    =      0.033223    -0.000001    -0.021464     0.011758
	   94 D(10,5,7,20)    =   -179.903478    -0.000009    -0.157942  -180.061421
	   95 D(10,6,8,12)    =     -0.070741    -0.000000    -0.001751    -0.072491
	   96 D(10,6,8,21)    =   -179.916933    -0.000009    -0.151656  -180.068589
	   97 D(10,9,1,14)    =      0.073752    -0.000012    -0.195948    -0.122195
	   98 D(10,9,2,15)    =     -0.046992    -0.000014    -0.241813    -0.288806
	   99 D(11,3,1,14)    =    179.979432     0.000018     0.299334   180.278766
	  100 D(11,4,2,15)    =    179.995641     0.000013     0.206536   180.202178
	  101 D(12,7,5,18)    =   -179.987706     0.000015     0.246701  -179.741004
	  102 D(12,8,6,19)    =    179.916697     0.000016     0.257703   180.174400
	  103 D(13,11,3,16)   =     -0.016400     0.000023     0.416185     0.399785
	  104 D(13,11,4,17)   =     -0.004548    -0.000018    -0.318339    -0.322887
	  105 D(14,1,3,16)    =     -0.039257     0.000015     0.260263     0.221006
	  106 D(15,2,4,17)    =      0.033826     0.000006     0.086663     0.120488
	  107 D(18,5,7,20)    =      0.075593     0.000007     0.110223     0.185816
	  108 D(19,6,8,21)    =      0.070505     0.000006     0.107797     0.178302
	 ---------------------------------------------------------------------------
	Successfully symmetrized geometry.
	 Forces used to impose fixed constraints are not included.
	  Forces zeroed: 73 

  ==> Convergence Check <==

  Measures of convergence in internal coordinates in au.
  Criteria marked as inactive (o), active & met (*), and active & unmet ( ).
  --------------------------------------------------------------------------------------------- ~
   Step     Total Energy     Delta E     MAX Force     RMS Force      MAX Disp      RMS Disp    ~
  --------------------------------------------------------------------------------------------- ~
    Convergence Criteria    1.00e-06 *    3.00e-04 *             o    1.20e-03 *             o  ~
  --------------------------------------------------------------------------------------------- ~
      1    -553.71903467   -5.54e+02      1.88e-02      4.70e-03 o    3.51e-02      9.61e-03 o  ~
  ---------------------------------------------------------------------------------------------

	Writing optimization data to binary file.
	Structure for next step:
	Cartesian Geometry (in Angstrom)
	    C    -1.2638576778   0.7180240831  -0.5691911602
	    C    -0.2873475915   0.0995734164   1.5323405430
	    C    -2.3378784872   1.2895179343   0.0999631363
	    C    -1.3596708294   0.6718034048   2.2043445163
	    C     0.7539254812  -1.0474397439  -1.8304112202
	    C     2.1768125199  -0.5195859818   0.0058505860
	    C     1.8567284189  -1.6053230188  -2.4564351533
	    C     3.2169777294  -1.1002052377  -0.7013686177
	    C    -0.2247126886   0.1155479302   0.1389208835
	    C     0.9083222612  -0.4873698184  -0.5655436456
	    C    -2.3866539344   1.2695716208   1.4894106671
	    N     3.0842252480  -1.6443741392  -1.9194260196
	    O    -3.4364176954   1.8193157120   2.1691932509
	    H    -1.2433890942   0.7484559311  -1.6497362779
	    H     0.5008887459  -0.3640790928   2.1089736741
	    H    -3.1389290978   1.7526578659  -0.4613790341
	    H    -1.3979802596   0.6520453336   3.2848293307
	    H    -0.2063951963  -1.0567003222  -2.3247904874
	    H     2.3605750539  -0.0981351235   0.9829724557
	    H     1.7674373364  -2.0491592717  -3.4397274467
	    H     4.2145901985  -1.1393175834  -0.2838902594
	    H    -3.6513595643   2.6789705563   1.7918876987
			--------------------------
			 OPTKING Finished Execution 
			--------------------------

    Structure for next step:
    Molecular point group: c1
    Full point group: C1

    Geometry (in Angstrom), charge = 0, multiplicity = 1:

    C           -1.264175619804     0.717694266541    -0.569202698430
    C           -0.287665533498     0.099243599921     1.532329004702
    C           -2.338196429226     1.289188117758     0.099951598022
    C           -1.359988771429     0.671473588254     2.204332978007
    C            0.753607539259    -1.047769560434    -1.830422758506
    C            2.176494577879    -0.519915798278     0.005839047715
    C            1.856410476953    -1.605652835324    -2.456446691615
    C            3.216659787466    -1.100535054268    -0.701380156021
    C           -0.225030630562     0.115218113627     0.138909345237
    C            0.908004319206    -0.487699634948    -0.565555183907
    C           -2.386971876370     1.269241804233     1.489399128847
    N            3.083907306049    -1.644703955677    -1.919437557898
    O           -3.436735637416     1.818985895453     2.169181712603
    H           -1.243707036179     0.748126114594    -1.649747816204
    H            0.500570803926    -0.364408909335     2.108962135823
    H           -3.139247039745     1.752328049334    -0.461390572351
    H           -1.398298201544     0.651715517055     3.284817792425
    H           -0.206713138239    -1.057030138691    -2.324802025641
    H            2.360257111903    -0.098464940026     0.982960917426
    H            1.767119394414    -2.049489088226    -3.439738984949
    H            4.214272256541    -1.139647399957    -0.283901797640
    H           -3.651677506266     2.678640739816     1.791876160435

gradient() will perform analytic gradient computation.

*** tstart() called on gpu-2-11.local
*** at Sun Nov 12 15:08:09 2017

    SCF Algorithm Type (re)set to DF.

*** tstart() called on gpu-2-11.local
*** at Sun Nov 12 15:08:09 2017

   => Loading Basis Set <=

    Name: AUG-CC-PVTZ
    Role: ORBITAL
    Keyword: BASIS
    atoms 1-11  entry C          line   221 file /cbio/jclab/home/chayas/anaconda/envs/py35/share/psi4/basis/aug-cc-pvtz.gbs 
    atoms 12    entry N          line   267 file /cbio/jclab/home/chayas/anaconda/envs/py35/share/psi4/basis/aug-cc-pvtz.gbs 
    atoms 13    entry O          line   313 file /cbio/jclab/home/chayas/anaconda/envs/py35/share/psi4/basis/aug-cc-pvtz.gbs 
    atoms 14-22 entry H          line    34 file /cbio/jclab/home/chayas/anaconda/envs/py35/share/psi4/basis/aug-cc-pvtz.gbs 


         ---------------------------------------------------------
                                   SCF
            by Justin Turney, Rob Parrish, and Andy Simmonett
                              RHF Reference
                        8 Threads,   4768 MiB Core
         ---------------------------------------------------------

  ==> Geometry <==

    Molecular point group: c1
    Full point group: C1

    Geometry (in Angstrom), charge = 0, multiplicity = 1:

       Center              X                  Y                   Z               Mass       
    ------------   -----------------  -----------------  -----------------  -----------------
           C         -1.264175619804     0.717694266541    -0.569202698430    12.000000000000
           C         -0.287665533498     0.099243599921     1.532329004702    12.000000000000
           C         -2.338196429226     1.289188117758     0.099951598022    12.000000000000
           C         -1.359988771429     0.671473588254     2.204332978007    12.000000000000
           C          0.753607539259    -1.047769560434    -1.830422758506    12.000000000000
           C          2.176494577879    -0.519915798278     0.005839047715    12.000000000000
           C          1.856410476953    -1.605652835324    -2.456446691615    12.000000000000
           C          3.216659787466    -1.100535054268    -0.701380156021    12.000000000000
           C         -0.225030630562     0.115218113627     0.138909345237    12.000000000000
           C          0.908004319206    -0.487699634948    -0.565555183907    12.000000000000
           C         -2.386971876370     1.269241804233     1.489399128847    12.000000000000
           N          3.083907306049    -1.644703955677    -1.919437557898    14.003074004780
           O         -3.436735637416     1.818985895453     2.169181712603    15.994914619560
           H         -1.243707036179     0.748126114594    -1.649747816204     1.007825032070
           H          0.500570803926    -0.364408909335     2.108962135823     1.007825032070
           H         -3.139247039745     1.752328049334    -0.461390572351     1.007825032070
           H         -1.398298201544     0.651715517055     3.284817792425     1.007825032070
           H         -0.206713138239    -1.057030138691    -2.324802025641     1.007825032070
           H          2.360257111903    -0.098464940026     0.982960917426     1.007825032070
           H          1.767119394414    -2.049489088226    -3.439738984949     1.007825032070
           H          4.214272256541    -1.139647399957    -0.283901797640     1.007825032070
           H         -3.651677506266     2.678640739816     1.791876160435     1.007825032070

  Running in c1 symmetry.

  Rotational constants: A =      0.09841  B =      0.01333  C =      0.01195 [cm^-1]
  Rotational constants: A =   2950.26145  B =    399.69153  C =    358.18956 [MHz]
  Nuclear repulsion =  697.521400721214377

  Charge       = 0
  Multiplicity = 1
  Electrons    = 90
  Nalpha       = 45
  Nbeta        = 45

  ==> Algorithm <==

  SCF Algorithm Type is DF.
  DIIS enabled.
  MOM disabled.
  Fractional occupation disabled.
  Guess Type is READ.
  Energy threshold   = 1.00e-10
  Density threshold  = 1.00e-10
  Integral threshold = 0.00e+00

  ==> Primary Basis <==

  Basis Set: AUG-CC-PVTZ
    Blend: AUG-CC-PVTZ
    Number of shells: 263
    Number of basis function: 805
    Number of Cartesian functions: 940
    Spherical Harmonics?: true
    Max angular momentum: 3

   => Loading Basis Set <=

    Name: (AUG-CC-PVTZ AUX)
    Role: JKFIT
    Keyword: DF_BASIS_SCF
    atoms 1-11  entry C          line   161 file /cbio/jclab/home/chayas/anaconda/envs/py35/share/psi4/basis/aug-cc-pvtz-jkfit.gbs 
    atoms 12    entry N          line   223 file /cbio/jclab/home/chayas/anaconda/envs/py35/share/psi4/basis/aug-cc-pvtz-jkfit.gbs 
    atoms 13    entry O          line   285 file /cbio/jclab/home/chayas/anaconda/envs/py35/share/psi4/basis/aug-cc-pvtz-jkfit.gbs 
    atoms 14-22 entry H          line    69 file /cbio/jclab/home/chayas/anaconda/envs/py35/share/psi4/basis/aug-cc-pvtz-jkfit.gbs 

  Reading orbitals from file 180, no projection.

  ==> Pre-Iterations <==

   -------------------------------------------------------
    Irrep   Nso     Nmo     Nalpha   Nbeta   Ndocc  Nsocc
   -------------------------------------------------------
     A        805     805       0       0       0       0
   -------------------------------------------------------
    Total     805     805      45      45      45       0
   -------------------------------------------------------

  ==> Integral Setup <==

  ==> DFJK: Density-Fitted J/K Matrices <==

    J tasked:                  Yes
    K tasked:                  Yes
    wK tasked:                  No
    OpenMP threads:              8
    Integrals threads:           8
    Memory (MB):              3576
    Algorithm:                Disk
    Integral Cache:           NONE
    Schwarz Cutoff:          1E-12
    Fitting Condition:       1E-12

   => Auxiliary Basis Set <=

  Basis Set: (AUG-CC-PVTZ AUX)
    Blend: AUG-CC-PVTZ-JKFIT
    Number of shells: 516
    Number of basis function: 1766
    Number of Cartesian functions: 2198
    Spherical Harmonics?: true
    Max angular momentum: 4

  Minimum eigenvalue in the overlap matrix is 6.1605442087E-07.
  Using Symmetric Orthogonalization.

  SCF Guess: Orbitals guess was supplied from a previous computation.

  ==> Iterations <==

                           Total Energy        Delta E     RMS |[F,P]|

   @DF-RHF iter   0:  -551.43007927336828   -5.51430e+02   4.50327e-04 
   @DF-RHF iter   1:  -551.28756840812093    1.42511e-01   1.81447e-04 
   @DF-RHF iter   2:  -551.28846908669698   -9.00679e-04   1.00013e-04 DIIS
   @DF-RHF iter   3:  -551.28933350732132   -8.64421e-04   1.19874e-05 DIIS
   @DF-RHF iter   4:  -551.28934741243711   -1.39051e-05   5.06773e-06 DIIS
   @DF-RHF iter   5:  -551.28934976598521   -2.35355e-06   1.68082e-06 DIIS
   @DF-RHF iter   6:  -551.28935009001304   -3.24028e-07   8.01349e-07 DIIS
   @DF-RHF iter   7:  -551.28935020521646   -1.15203e-07   3.67514e-07 DIIS
   @DF-RHF iter   8:  -551.28935023888471   -3.36682e-08   1.65758e-07 DIIS
   @DF-RHF iter   9:  -551.28935024482314   -5.93843e-09   5.46793e-08 DIIS
   @DF-RHF iter  10:  -551.28935024557461   -7.51470e-10   2.37001e-08 DIIS
   @DF-RHF iter  11:  -551.28935024566886   -9.42464e-11   5.95295e-09 DIIS
   @DF-RHF iter  12:  -551.28935024567534   -6.48015e-12   2.77258e-09 DIIS
   @DF-RHF iter  13:  -551.28935024566044    1.48930e-11   1.67931e-09 DIIS
   @DF-RHF iter  14:  -551.28935024567011   -9.66338e-12   7.38956e-10 DIIS
   @DF-RHF iter  15:  -551.28935024566556    4.54747e-12   2.95421e-10 DIIS
   @DF-RHF iter  16:  -551.28935024564930    1.62572e-11   1.20079e-10 DIIS
   @DF-RHF iter  17:  -551.28935024566795   -1.86446e-11   4.31066e-11 DIIS

  ==> Post-Iterations <==

    Orbital Energies (a.u.)
    -----------------------

    Doubly Occupied:                                                      

       1A    -20.594759     2A    -15.560881     3A    -11.309870  
       4A    -11.272512     5A    -11.272482     6A    -11.266170  
       7A    -11.252742     8A    -11.251480     9A    -11.249079  
      10A    -11.243951    11A    -11.240401    12A    -11.236336  
      13A    -11.236229    14A     -1.411757    15A     -1.255142  
      16A     -1.174848    17A     -1.105150    18A     -1.039408  
      19A     -1.029651    20A     -1.012154    21A     -0.880574  
      22A     -0.872948    23A     -0.840311    24A     -0.812413  
      25A     -0.749071    26A     -0.724982    27A     -0.684094  
      28A     -0.664327    29A     -0.652766    30A     -0.635361  
      31A     -0.630012    32A     -0.608305    33A     -0.599180  
      34A     -0.592202    35A     -0.560890    36A     -0.543266  
      37A     -0.531612    38A     -0.522321    39A     -0.500400  
      40A     -0.492648    41A     -0.418173    42A     -0.399854  
      43A     -0.355347    44A     -0.348566    45A     -0.312952  

    Virtual:                                                              

      46A      0.022455    47A      0.029226    48A      0.031969  
      49A      0.039086    50A      0.042437    51A      0.044679  
      52A      0.054835    53A      0.056285    54A      0.061285  
      55A      0.076386    56A      0.078871    57A      0.083164  
      58A      0.087612    59A      0.093718    60A      0.095572  
      61A      0.102289    62A      0.105989    63A      0.108303  
      64A      0.111552    65A      0.113025    66A      0.115368  
      67A      0.119530    68A      0.120869    69A      0.126129  
      70A      0.129127    71A      0.132782    72A      0.133926  
      73A      0.136816    74A      0.142202    75A      0.147874  
      76A      0.148230    77A      0.152029    78A      0.152943  
      79A      0.157225    80A      0.161393    81A      0.168064  
      82A      0.172345    83A      0.175474    84A      0.182351  
      85A      0.184065    86A      0.186628    87A      0.201509  
      88A      0.204643    89A      0.211415    90A      0.216404  
      91A      0.221010    92A      0.225678    93A      0.227527  
      94A      0.235213    95A      0.241068    96A      0.242102  
      97A      0.245087    98A      0.249924    99A      0.253289  
     100A      0.258160   101A      0.259540   102A      0.264541  
     103A      0.266511   104A      0.270198   105A      0.274293  
     106A      0.275574   107A      0.285756   108A      0.288990  
     109A      0.293742   110A      0.295329   111A      0.300653  
     112A      0.302365   113A      0.304509   114A      0.313652  
     115A      0.318178   116A      0.319939   117A      0.322678  
     118A      0.326482   119A      0.330052   120A      0.334415  
     121A      0.339786   122A      0.342136   123A      0.347846  
     124A      0.356558   125A      0.360410   126A      0.364427  
     127A      0.369463   128A      0.374740   129A      0.382856  
     130A      0.386090   131A      0.396154   132A      0.397459  
     133A      0.398366   134A      0.409850   135A      0.419120  
     136A      0.421281   137A      0.424294   138A      0.426846  
     139A      0.429917   140A      0.435540   141A      0.436842  
     142A      0.439462   143A      0.444768   144A      0.448269  
     145A      0.450899   146A      0.453804   147A      0.460498  
     148A      0.462370   149A      0.466706   150A      0.468884  
     151A      0.475102   152A      0.476030   153A      0.484937  
     154A      0.487218   155A      0.489490   156A      0.491885  
     157A      0.499174   158A      0.502835   159A      0.504245  
     160A      0.506509   161A      0.508812   162A      0.512890  
     163A      0.514916   164A      0.518887   165A      0.520123  
     166A      0.526608   167A      0.527734   168A      0.530556  
     169A      0.535148   170A      0.537535   171A      0.542405  
     172A      0.548048   173A      0.551412   174A      0.554370  
     175A      0.557623   176A      0.561228   177A      0.570559  
     178A      0.578109   179A      0.579909   180A      0.586825  
     181A      0.591232   182A      0.595632   183A      0.604682  
     184A      0.612481   185A      0.614757   186A      0.625003  
     187A      0.628340   188A      0.631321   189A      0.633916  
     190A      0.637210   191A      0.649981   192A      0.661003  
     193A      0.662141   194A      0.677953   195A      0.681569  
     196A      0.686622   197A      0.691480   198A      0.699440  
     199A      0.705670   200A      0.708596   201A      0.710269  
     202A      0.719156   203A      0.721131   204A      0.725465  
     205A      0.733252   206A      0.737339   207A      0.741793  
     208A      0.747833   209A      0.755491   210A      0.763490  
     211A      0.764492   212A      0.767462   213A      0.774061  
     214A      0.778517   215A      0.792435   216A      0.800985  
     217A      0.803970   218A      0.810319   219A      0.819584  
     220A      0.820703   221A      0.828725   222A      0.838386  
     223A      0.841228   224A      0.844536   225A      0.854050  
     226A      0.856142   227A      0.861825   228A      0.868235  
     229A      0.872671   230A      0.879546   231A      0.880547  
     232A      0.884926   233A      0.885605   234A      0.894396  
     235A      0.899883   236A      0.901921   237A      0.907158  
     238A      0.908393   239A      0.920738   240A      0.923605  
     241A      0.927233   242A      0.936460   243A      0.939213  
     244A      0.942365   245A      0.946396   246A      0.953449  
     247A      0.961038   248A      0.962496   249A      0.965193  
     250A      0.973340   251A      0.973751   252A      0.980717  
     253A      0.981384   254A      0.986009   255A      0.991454  
     256A      0.998312   257A      1.000149   258A      1.008039  
     259A      1.010566   260A      1.012730   261A      1.013920  
     262A      1.022448   263A      1.023483   264A      1.029427  
     265A      1.034299   266A      1.035178   267A      1.036902  
     268A      1.043681   269A      1.048957   270A      1.051565  
     271A      1.055803   272A      1.064641   273A      1.070578  
     274A      1.080997   275A      1.084464   276A      1.086518  
     277A      1.090105   278A      1.095693   279A      1.097504  
     280A      1.100675   281A      1.104399   282A      1.105148  
     283A      1.113215   284A      1.117218   285A      1.119167  
     286A      1.120222   287A      1.132434   288A      1.140275  
     289A      1.147597   290A      1.152360   291A      1.158122  
     292A      1.162727   293A      1.167514   294A      1.168773  
     295A      1.176185   296A      1.180030   297A      1.180702  
     298A      1.187034   299A      1.191544   300A      1.194708  
     301A      1.198965   302A      1.209124   303A      1.214947  
     304A      1.217579   305A      1.219196   306A      1.224203  
     307A      1.225411   308A      1.227619   309A      1.238219  
     310A      1.253841   311A      1.263026   312A      1.271745  
     313A      1.272651   314A      1.276833   315A      1.281413  
     316A      1.290862   317A      1.294383   318A      1.298992  
     319A      1.305120   320A      1.312933   321A      1.320283  
     322A      1.323298   323A      1.330032   324A      1.330811  
     325A      1.339736   326A      1.346071   327A      1.353051  
     328A      1.368590   329A      1.368798   330A      1.380793  
     331A      1.389775   332A      1.396296   333A      1.406282  
     334A      1.410018   335A      1.416569   336A      1.427747  
     337A      1.440592   338A      1.449168   339A      1.455911  
     340A      1.459980   341A      1.463880   342A      1.475173  
[...]
	 R(11,13)         =         2.590200	       1.370675
	 R(13,22)         =         1.816660	       0.961335
	 B(1,3,11)        =         2.093578	     119.953191
	 B(1,3,16)        =         2.100272	     120.336694
	 B(1,9,2)         =         2.063721	     118.242508
	 B(1,9,10)        =         2.109499	     120.865385
	 B(2,4,11)        =         2.093072	     119.924169
	 B(2,4,17)        =         2.115042	     121.182985
	 B(2,9,10)        =         2.109960	     120.891829
	 B(3,1,9)         =         2.111662	     120.989321
	 B(3,1,14)        =         2.083010	     119.347658
	 B(3,11,4)        =         2.090549	     119.779631
	 B(3,11,13)       =         2.131926	     122.150364
	 B(4,2,9)         =         2.113373	     121.087352
	 B(4,2,15)        =         2.082858	     119.338989
	 B(4,11,13)       =         2.057866	     117.907009
	 B(5,7,12)        =         2.159318	     123.719794
	 B(5,7,20)        =         2.095187	     120.045383
	 B(5,10,6)        =         2.035749	     116.639841
	 B(5,10,9)        =         2.124383	     121.718157
	 B(6,8,12)        =         2.159318	     123.719830
	 B(6,8,21)        =         2.095187	     120.045358
	 B(6,10,9)        =         2.123053	     121.642000
	 B(7,5,10)        =         2.088549	     119.665024
	 B(7,5,18)        =         2.091071	     119.809517
	 B(7,12,8)        =         2.034904	     116.591399
	 B(8,6,10)        =         2.088532	     119.664073
	 B(8,6,19)        =         2.091475	     119.832692
	 B(9,1,14)        =         2.088420	     119.657658
	 B(9,2,15)        =         2.086700	     119.559086
	 B(10,5,18)       =         2.103226	     120.505975
	 B(10,6,19)       =         2.102859	     120.484943
	 B(11,3,16)       =         2.089313	     119.708827
	 B(11,4,17)       =         2.075047	     118.891448
	 B(11,13,22)      =         1.904037	     109.093263
	 B(12,7,20)       =         2.028658	     116.233521
	 B(12,8,21)       =         2.028660	     116.233633
	 D(1,3,11,4)      =        -0.032928	      -1.886663
	 D(1,3,11,13)     =        -3.091811	    -177.147729
	 D(1,9,2,4)       =        -0.009722	      -0.557009
	 D(1,9,2,15)      =         3.107473	     178.045091
	 D(1,9,10,5)      =        -0.624292	     -35.769305
	 D(1,9,10,6)      =         2.517659	     144.251263
	 D(2,4,11,3)      =         0.020753	       1.189037
	 D(2,4,11,13)     =         3.083111	     176.649233
	 D(2,9,1,3)       =        -0.002627	      -0.150527
	 D(2,9,1,14)      =         3.124165	     179.001454
	 D(2,9,10,5)      =         2.513894	     144.035508
	 D(2,9,10,6)      =        -0.627340	     -35.943923
	 D(3,1,9,10)      =         3.135647	     179.659342
	 D(3,11,4,17)     =        -3.113423	    -178.385999
	 D(3,11,13,22)    =        -0.781350	     -44.768030
	 D(4,2,9,10)      =         3.135190	     179.633175
	 D(4,11,3,16)     =         3.115847	     178.524856
	 D(4,11,13,22)    =         2.441474	     139.886168
	 D(5,7,12,8)      =        -0.000120	      -0.006847
	 D(5,10,6,8)      =        -0.000014	      -0.000817
	 D(5,10,6,19)     =         3.114382	     178.440921
	 D(6,8,12,7)      =        -0.000832	      -0.047659
	 D(6,10,5,7)      =        -0.000859	      -0.049211
	 D(6,10,5,18)     =         3.112658	     178.342162
	 D(7,5,10,9)      =         3.141076	     179.970380
	 D(7,12,8,21)     =        -3.135515	    -179.651776
	 D(8,6,10,9)      =         3.141237	     179.979608
	 D(8,12,7,20)     =        -3.134449	    -179.590704
	 D(9,1,3,11)      =         0.023955	       1.372542
	 D(9,1,3,16)      =        -3.124865	    -179.041592
	 D(9,2,4,11)      =         0.000675	       0.038669
	 D(9,2,4,17)      =         3.134677	     179.603762
	 D(9,10,5,18)     =        -0.028593	      -1.638247
	 D(9,10,6,19)     =        -0.027553	      -1.578653
	 D(10,5,7,12)     =         0.000977	       0.055991
	 D(10,5,7,20)     =         3.135044	     179.624767
	 D(10,6,8,12)     =         0.000908	       0.052021
	 D(10,6,8,21)     =         3.135341	     179.641791
	 D(10,9,1,14)     =        -0.020746	      -1.188678
	 D(10,9,2,15)     =        -0.030800	      -1.764725
	 D(11,3,1,14)     =        -3.102882	    -177.782031
	 D(11,4,2,15)     =        -3.116573	    -178.566460
	 D(12,7,5,18)     =        -3.112737	    -178.346707
	 D(12,8,6,19)     =        -3.113667	    -178.399993
	 D(13,11,3,16)    =         0.056964	       3.263790
	 D(13,11,4,17)    =        -0.051065	      -2.925804
	 D(14,1,3,16)     =         0.031483	       1.803835
	 D(15,2,4,17)     =         0.017429	       0.998632
	 D(18,5,7,20)     =         0.021329	       1.222069
	 D(19,6,8,21)     =         0.020766	       1.189777

	Current energy   :      -553.7230152691

	Energy change for the previous step:
		Projected    :         0.0000012782
		Actual       :         0.0000001023

	Performing BFGS update.
	Previous computed or guess Hessian on step 1.
	Steps to be used in Hessian update: 6 5
	Adding user-defined constraint: Fragment 1; Coordinate 73:
		Value =    -0.781350; Fixed value    =    -0.785400
		Force =    -0.002633; Force constant =     0.650000
	Removing off-diagonal coupling between coordinate 73 and others.
	Taking RFO optimization step.
	Going to follow RFO solution 1.
	Rejecting RFO root 1 because normalization gives large value.
	Using RFO vector 2.
	Norm of target step-size    0.00614
	Projected energy change by RFO approximation:        -0.0000000946

	Back-transformation to cartesian coordinates...
	Successfully converged to displaced geometry.

	--- Internal Coordinate Step in ANG or DEG, aJ/ANG or AJ/DEG ---
	 ---------------------------------------------------------------------------
	   Coordinate                Previous        Force       Change         New 
	   ----------                --------       ------       ------       ------
	    1 R(1,3)          =      1.385329    -0.000045    -0.000003     1.385326
	    2 R(1,9)          =      1.393757    -0.000083    -0.000005     1.393752
	    3 R(1,14)         =      1.079865     0.000053     0.000020     1.079885
	    4 R(2,4)          =      1.384586     0.000048    -0.000004     1.384582
	    5 R(2,9)          =      1.394409    -0.000135    -0.000014     1.394395
	    6 R(2,15)         =      1.079846     0.000036     0.000003     1.079850
	    7 R(3,11)         =      1.388496     0.000074     0.000005     1.388501
	    8 R(3,16)         =      1.080301     0.000035     0.000013     1.080314
	    9 R(4,11)         =      1.386736    -0.000024     0.000018     1.386754
	   10 R(4,17)         =      1.078819    -0.000010    -0.000016     1.078804
	   11 R(5,7)          =      1.385515     0.000068     0.000010     1.385525
	   12 R(5,10)         =      1.392017    -0.000128    -0.000009     1.392008
	   13 R(5,18)         =      1.079561     0.000098     0.000027     1.079588
	   14 R(6,8)          =      1.385548     0.000056     0.000014     1.385562
	   15 R(6,10)         =      1.392020    -0.000027     0.000017     1.392038
	   16 R(6,19)         =      1.079565     0.000090     0.000018     1.079583
	   17 R(7,12)         =      1.335121    -0.000135    -0.000007     1.335113
	   18 R(7,20)         =      1.081134    -0.000034    -0.000013     1.081121
	   19 R(8,12)         =      1.335090    -0.000135    -0.000013     1.335077
	   20 R(8,21)         =      1.081152    -0.000021    -0.000008     1.081144
	   21 R(9,10)         =      1.461646     0.000232    -0.000173     1.461474
	   22 R(11,13)        =      1.370675     0.000344     0.000025     1.370700
	   23 R(13,22)        =      0.961335     0.000127     0.000040     0.961375
	   24 B(1,3,11)       =    119.953191     0.000000     0.000026   119.953217
	   25 B(1,3,16)       =    120.336694     0.000001     0.000716   120.337409
	   26 B(1,9,2)        =    118.242508     0.000001    -0.006957   118.235551
	   27 B(1,9,10)       =    120.865385    -0.000001     0.000761   120.866146
	   28 B(2,4,11)       =    119.924169    -0.000001    -0.000204   119.923965
	   29 B(2,4,17)       =    121.182985     0.000000     0.000599   121.183585
	   30 B(2,9,10)       =    120.891829    -0.000000     0.006164   120.897993
	   31 B(3,1,9)        =    120.989321    -0.000001     0.005054   120.994375
	   32 B(3,1,14)       =    119.347658     0.000000    -0.009496   119.338162
	   33 B(3,11,4)       =    119.779631     0.000000    -0.003432   119.776199
	   34 B(3,11,13)      =    122.150364    -0.000000     0.004415   122.154780
	   35 B(4,2,9)        =    121.087352    -0.000000     0.005138   121.092490
	   36 B(4,2,15)       =    119.338989    -0.000000    -0.011487   119.327502
	   37 B(4,11,13)      =    117.907009    -0.000000    -0.003427   117.903582
	   38 B(5,7,12)       =    123.719794    -0.000000     0.007630   123.727424
	   39 B(5,7,20)       =    120.045383     0.000000    -0.011645   120.033738
	   40 B(5,10,6)       =    116.639841     0.000001    -0.012334   116.627507
	   41 B(5,10,9)       =    121.718157    -0.000001     0.004907   121.723064
	   42 B(6,8,12)       =    123.719830    -0.000000     0.006174   123.726004
	   43 B(6,8,21)       =    120.045358     0.000000    -0.010556   120.034801
	   44 B(6,10,9)       =    121.642000    -0.000000     0.007429   121.649429
	   45 B(7,5,10)       =    119.665024    -0.000001     0.005276   119.670300
	   46 B(7,5,18)       =    119.809517     0.000001    -0.011758   119.797759
	   47 B(7,12,8)       =    116.591399     0.000001    -0.012935   116.578464
	   48 B(8,6,10)       =    119.664073    -0.000001     0.005922   119.669995
	   49 B(8,6,19)       =    119.832692     0.000001    -0.013500   119.819193
	   50 B(9,1,14)       =    119.657658     0.000000     0.004161   119.661818
	   51 B(9,2,15)       =    119.559086     0.000000     0.006424   119.565510
	   52 B(10,5,18)      =    120.505975    -0.000001     0.007576   120.513551
	   53 B(10,6,19)      =    120.484943    -0.000000     0.008370   120.493313
	   54 B(11,3,16)      =    119.708827    -0.000001    -0.000661   119.708166
	   55 B(11,4,17)      =    118.891448     0.000000    -0.000224   118.891223
	   56 B(11,13,22)     =    109.093263    -0.000001    -0.001639   109.091624
	   57 B(12,7,20)      =    116.233521    -0.000000     0.003251   116.236772
	   58 B(12,8,21)      =    116.233633    -0.000000     0.003443   116.237077
	   59 D(1,3,11,4)     =     -1.886663    -0.000001    -0.010761    -1.897424
	   60 D(1,3,11,13)    =   -177.147729     0.000001     0.024728  -177.123002
	   61 D(1,9,2,4)      =     -0.557009    -0.000000    -0.032124    -0.589133
	   62 D(1,9,2,15)     =    178.045091    -0.000000    -0.028687   178.016404
	   63 D(1,9,10,5)     =    -35.769305     0.000000     0.109758   -35.659547
	   64 D(1,9,10,6)     =    144.251263    -0.000000     0.082479   144.333742
	   65 D(2,4,11,3)     =      1.189037     0.000001     0.005357     1.194394
	   66 D(2,4,11,13)    =    176.649233    -0.000001    -0.028267   176.620966
	   67 D(2,9,1,3)      =     -0.150527     0.000000     0.026554    -0.123973
	   68 D(2,9,1,14)     =    179.001454     0.000000     0.004511   179.005964
	   69 D(2,9,10,5)     =    144.035508    -0.000000     0.098673   144.134181
	   70 D(2,9,10,6)     =    -35.943923    -0.000000     0.071393   -35.872530
	   71 D(3,1,9,10)     =    179.659342     0.000000     0.015782   179.675124
	   72 D(3,11,4,17)    =   -178.385999     0.000001    -0.021500  -178.407499
	   73 D(3,11,13,22)   =    -44.768030    -0.000005    -0.037523   -44.805553
	   74 D(4,2,9,10)     =    179.633175    -0.000000    -0.021338   179.611837
	   75 D(4,11,3,16)    =    178.524856    -0.000001    -0.023842   178.501015
	   76 D(4,11,13,22)   =    139.886168    -0.000003    -0.002660   139.883508
	   77 D(5,7,12,8)     =     -0.006847    -0.000000    -0.059225    -0.066072
	   78 D(5,10,6,8)     =     -0.000817    -0.000000    -0.065612    -0.066429
	   79 D(5,10,6,19)    =    178.440921    -0.000000    -0.031662   178.409260
	   80 D(6,8,12,7)     =     -0.047659    -0.000000    -0.055900    -0.103559
	   81 D(6,10,5,7)     =     -0.049211    -0.000000    -0.040048    -0.089259
	   82 D(6,10,5,18)    =    178.342162     0.000000     0.005573   178.347736
	   83 D(7,5,10,9)     =    179.970380    -0.000000    -0.066029   179.904350
	   84 D(7,12,8,21)    =   -179.651776     0.000000     0.078923  -179.572853
	   85 D(8,6,10,9)     =    179.979608    -0.000000    -0.039652   179.939956
	   86 D(8,12,7,20)    =   -179.590704     0.000000     0.048826  -179.541878
	   87 D(9,1,3,11)     =      1.372542     0.000000    -0.005458     1.367084
	   88 D(9,1,3,16)     =   -179.041592     0.000000     0.007700  -179.033892
	   89 D(9,2,4,11)     =      0.038669    -0.000000     0.016520     0.055189
	   90 D(9,2,4,17)     =    179.603762    -0.000000     0.044001   179.647763
	   91 D(9,10,5,18)    =     -1.638247    -0.000000    -0.020408    -1.658655
	   92 D(9,10,6,19)    =     -1.578653     0.000000    -0.005701    -1.584355
	   93 D(10,5,7,12)    =      0.055991     0.000000     0.108238     0.164229
	   94 D(10,5,7,20)    =    179.624767    -0.000000    -0.003650   179.621117
	   95 D(10,6,8,12)    =      0.052021     0.000000     0.119923     0.171944
	   96 D(10,6,8,21)    =    179.641791    -0.000000    -0.019711   179.622080
	   97 D(10,9,1,14)    =     -1.188678     0.000000    -0.006262    -1.194940
	   98 D(10,9,2,15)    =     -1.764725    -0.000000    -0.017901    -1.782625
	   99 D(11,3,1,14)    =   -177.782031     0.000000     0.016401  -177.765629
	  100 D(11,4,2,15)    =   -178.566460    -0.000000     0.012845  -178.553615
	  101 D(12,7,5,18)    =   -178.346707     0.000000     0.062634  -178.284073
	  102 D(12,8,6,19)    =   -178.399993     0.000000     0.085862  -178.314131
	  103 D(13,11,3,16)   =      3.263790     0.000001     0.011647     3.275437
	  104 D(13,11,4,17)   =     -2.925804    -0.000001    -0.055124    -2.980927
	  105 D(14,1,3,16)    =      1.803835     0.000000     0.029560     1.833395
	  106 D(15,2,4,17)    =      0.998632    -0.000000     0.040327     1.038959
	  107 D(18,5,7,20)    =      1.222069    -0.000000    -0.049254     1.172815
	  108 D(19,6,8,21)    =      1.189777    -0.000000    -0.053772     1.136005
	 ---------------------------------------------------------------------------
	Successfully symmetrized geometry.
	 Forces used to impose fixed constraints are not included.
	  Forces zeroed: 73 

  ==> Convergence Check <==

  Measures of convergence in internal coordinates in au.
  Criteria marked as inactive (o), active & met (*), and active & unmet ( ).
  ---------------------------------------------------------------------------------------------
   Step     Total Energy     Delta E     MAX Force     RMS Force      MAX Disp      RMS Disp   
  ---------------------------------------------------------------------------------------------
    Convergence Criteria    1.00e-06 *    3.00e-04 *             o    1.20e-03 *             o
  ---------------------------------------------------------------------------------------------
      7    -553.72301527    1.02e-07 *    1.93e-04 *    2.44e-05 o    2.09e-03      5.90e-04 o  ~
  ---------------------------------------------------------------------------------------------


  **** Optimization is complete! (in 7 steps) ****

  ==> Optimization Summary <==

  Measures of convergence in internal coordinates in au.
  --------------------------------------------------------------------------------------------------------------- ~
   Step         Total Energy             Delta E       MAX Force       RMS Force        MAX Disp        RMS Disp  ~
  --------------------------------------------------------------------------------------------------------------- ~
      1    -553.719034669511   -553.719034669511      0.01882667      0.00469725      0.03506444      0.00961386  ~
      2    -553.722083912692     -0.003049243182      0.00515386      0.00149652      0.03862712      0.00959514  ~
      3    -553.722798750844     -0.000714838152      0.00099080      0.00036953      0.03475359      0.00960985  ~
      4    -553.722972253259     -0.000173502415      0.00042266      0.00015559      0.03422109      0.00677481  ~
      5    -553.723010322942     -0.000038069683      0.00035359      0.00011449      0.01223961      0.00251840  ~
      6    -553.723015371475     -0.000005048533      0.00026819      0.00004767      0.00443966      0.00094992  ~
      7    -553.723015269135      0.000000102340      0.00027968      0.00003632      0.00209305      0.00059038  ~
  --------------------------------------------------------------------------------------------------------------- ~

	Writing optimization data to binary file.
	Final energy is   -553.7230152691354
	Final (previous) structure:
	Cartesian Geometry (in Angstrom)
	    C    -1.2364962186   0.7784085145  -0.5588366865
	    C    -0.3152999596   0.0574779519   1.5287232138
	    C    -2.3079952371   1.3493205477   0.1083102129
	    C    -1.3757872561   0.6383126970   2.2033161128
	    C     0.7426414762  -1.0959861966  -1.8093138510
	    C     2.1869216751  -0.4833737243  -0.0339658032
	    C     1.8392701692  -1.6584026215  -2.4423570976
	    C     3.2239677382  -1.0719207861  -0.7395796464
	    C    -0.2239583806   0.1222013035   0.1388156981
	    C     0.9015777992  -0.4856157744  -0.5683876194
	    C    -2.3691479287   1.2969537080   1.4944703820
	    N     3.0722564344  -1.6565861861  -1.9302158139
	    O    -3.4351664348   1.7958789241   2.1969140086
	    H    -1.1804972638   0.8561843542  -1.6344403017
	    H     0.4407589351  -0.4730849305   2.0881389720
	    H    -3.0948568561   1.8420304847  -0.4440810887
	    H    -1.4512887988   0.5837248955   3.2781048114
	    H    -0.2321466274  -1.1569157375  -2.2692347986
	    H     2.3853873482  -0.0049656665   0.9132393975
	    H     1.7217087914  -2.1393466821  -3.4034624218
	    H     4.2257386383  -1.0686063667  -0.3329674058
	    H    -3.6722614490   2.6562704286   1.8395937213
	Saving final (previous) structure.
			--------------------------
			 OPTKING Finished Execution 
			--------------------------

    Final optimized geometry and variables:
    Molecular point group: c1
    Full point group: C1

    Geometry (in Angstrom), charge = 0, multiplicity = 1:

    C           -1.236496218642     0.778408514464    -0.558836686492
    C           -0.315299959575     0.057477951898     1.528723213809
    C           -2.307995237068     1.349320547656     0.108310212866
    C           -1.375787256092     0.638312697035     2.203316112810
    C            0.742641476243    -1.095986196634    -1.809313850990
    C            2.186921675082    -0.483373724259    -0.033965803241
    C            1.839270169166    -1.658402621516    -2.442357097573
    C            3.223967738248    -1.071920786135    -0.739579646357
    C           -0.223958380578     0.122201303486     0.138815698058
    C            0.901577799221    -0.485615774365    -0.568387619445
    C           -2.369147928659     1.296953707984     1.494470381984
    N            3.072256434397    -1.656586186065    -1.930215813919
    O           -3.435166434755     1.795878924109     2.196914008628
    H           -1.180497263770     0.856184354197    -1.634440301681
    H            0.440758935070    -0.473084930494     2.088138971951
    H           -3.094856856098     1.842030484743    -0.444081088710
    H           -1.451288798765     0.583724895473     3.278104811380
    H           -0.232146627380    -1.156915737533    -2.269234798567
    H            2.385387348211    -0.004965666503     0.913239397471
    H            1.721708791424    -2.139346682143    -3.403462421836
    H            4.225738638297    -1.068606366654    -0.332967405778
    H           -3.672261449038     2.656270428638     1.839593721326

	Cleaning optimization helper files.

*** Psi4 exiting successfully. Buy a developer a beer!
