
    -----------------------------------------------------------------------
          Psi4: An Open-Source Ab Initio Electronic Structure Package
                               Psi4 1.1 release

                         Git: Rev {HEAD} add49b9 


    R. M. Parrish, L. A. Burns, D. G. A. Smith, A. C. Simmonett,
    A. E. DePrince III, E. G. Hohenstein, U. Bozkaya, A. Yu. Sokolov,
    R. Di Remigio, R. M. Richard, J. F. Gonthier, A. M. James,
    H. R. McAlexander, A. Kumar, M. Saitow, X. Wang, B. P. Pritchard,
    P. Verma, H. F. Schaefer III, K. Patkowski, R. A. King, E. F. Valeev,
    F. A. Evangelista, J. M. Turney, T. D. Crawford, and C. D. Sherrill,
    J. Chem. Theory Comput. in press (2017).
    (doi: 10.1021/acs.jctc.7b00174)

    -----------------------------------------------------------------------


    Psi4 started on: Sunday, 12 November 2017 04:43PM

    Process ID:  18715
    PSIDATADIR: /cbio/jclab/home/chayas/anaconda/envs/py35/share/psi4
    Memory:     500.0 MiB
    Threads:    8
    
  ==> Input File <==

--------------------------------------------------------------------------

memory 5 Gb

molecule phepyrOH_zwitterion {
  symmetry C1
  0 1 
  C      1.885   -1.036   -0.112
  C      2.878   -1.652   2.002
  C      0.807   -0.463   0.561
  C      1.800   -1.079   2.676
  C      3.827   -3.272   -0.983
  C      5.330   -1.753   0.130
  C      4.919   -3.824   -1.638
  C      6.384   -2.344   -0.553
  C      2.921   -1.631   0.608
  C      4.040   -2.226   -0.090
  C      0.764   -0.484   1.955
  N      6.151   -3.349   -1.407
  O      -0.227   0.042   2.574
  H      1.904   -1.011   -1.199
  H      3.678   -2.112   2.577
  H      0.011   -0.006   -0.025
  H      1.791   -1.108   3.764
  H      2.831   -3.660   -1.174
  H      5.525   -0.939   0.821
  H      4.848   -4.637   -2.347
  H      7.416   -2.042   -0.445
  H      6.939   -3.770   -1.899
  units Angstrom
}

dih_string = "1 9 10 5 300"
set optking fixed_dihedral = $dih_string

optimize('MP2/aug-cc-PVTZ')
--------------------------------------------------------------------------

  Memory set to   4.657 GiB by Python driver.
gradient() will perform analytic gradient computation.

*** tstart() called on gpu-2-11.local
*** at Sun Nov 12 16:43:10 2017

    SCF Algorithm Type (re)set to DF.

*** tstart() called on gpu-2-11.local
*** at Sun Nov 12 16:43:10 2017

   => Loading Basis Set <=

    Name: AUG-CC-PVTZ
    Role: ORBITAL
    Keyword: BASIS
    atoms 1-11  entry C          line   221 file /cbio/jclab/home/chayas/anaconda/envs/py35/share/psi4/basis/aug-cc-pvtz.gbs 
    atoms 12    entry N          line   267 file /cbio/jclab/home/chayas/anaconda/envs/py35/share/psi4/basis/aug-cc-pvtz.gbs 
    atoms 13    entry O          line   313 file /cbio/jclab/home/chayas/anaconda/envs/py35/share/psi4/basis/aug-cc-pvtz.gbs 
    atoms 14-22 entry H          line    34 file /cbio/jclab/home/chayas/anaconda/envs/py35/share/psi4/basis/aug-cc-pvtz.gbs 


         ---------------------------------------------------------
                                   SCF
            by Justin Turney, Rob Parrish, and Andy Simmonett
                              RHF Reference
                        8 Threads,   4768 MiB Core
         ---------------------------------------------------------

  ==> Geometry <==

    Molecular point group: c1
    Full point group: C1

    Geometry (in Angstrom), charge = 0, multiplicity = 1:

       Center              X                  Y                   Z               Mass       
    ------------   -----------------  -----------------  -----------------  -----------------
           C         -1.297226807559     0.734218167367    -0.557518576984    12.000000000000
           C         -0.304226807559     0.118218167367     1.556481423016    12.000000000000
           C         -2.375226807559     1.307218167367     0.115481423016    12.000000000000
           C         -1.382226807559     0.691218167367     2.230481423016    12.000000000000
           C          0.644773192441    -1.501781832633    -1.428518576984    12.000000000000
           C          2.147773192441     0.017218167367    -0.315518576984    12.000000000000
           C          1.736773192441    -2.053781832633    -2.083518576984    12.000000000000
           C          3.201773192441    -0.573781832633    -0.998518576984    12.000000000000
           C         -0.261226807559     0.139218167367     0.162481423016    12.000000000000
           C          0.857773192441    -0.455781832633    -0.535518576984    12.000000000000
           C         -2.418226807559     1.286218167367     1.509481423016    12.000000000000
           N          2.968773192441    -1.578781832633    -1.852518576984    14.003074004780
           O         -3.409226807559     1.812218167367     2.128481423016    15.994914619560
           H         -1.278226807559     0.759218167367    -1.644518576984     1.007825032070
           H          0.495773192441    -0.341781832633     2.131481423016     1.007825032070
           H         -3.171226807559     1.764218167367    -0.470518576984     1.007825032070
           H         -1.391226807559     0.662218167367     3.318481423016     1.007825032070
           H         -0.351226807559    -1.889781832633    -1.619518576984     1.007825032070
           H          2.342773192441     0.831218167367     0.375481423016     1.007825032070
           H          1.665773192441    -2.866781832633    -2.792518576984     1.007825032070
           H          4.233773192441    -0.271781832633    -0.890518576984     1.007825032070
           H          3.756773192441    -1.999781832633    -2.344518576984     1.007825032070

  Running in c1 symmetry.

  Rotational constants: A =      0.09649  B =      0.01339  C =      0.01252 [cm^-1]
  Rotational constants: A =   2892.65658  B =    401.28305  C =    375.23885 [MHz]
  Nuclear repulsion =  700.540903418071593

  Charge       = 0
  Multiplicity = 1
  Electrons    = 90
  Nalpha       = 45
  Nbeta        = 45

  ==> Algorithm <==

  SCF Algorithm Type is DF.
  DIIS enabled.
  MOM disabled.
  Fractional occupation disabled.
  Guess Type is SAD.
  Energy threshold   = 1.00e-10
  Density threshold  = 1.00e-10
  Integral threshold = 0.00e+00

  ==> Primary Basis <==

  Basis Set: AUG-CC-PVTZ
    Blend: AUG-CC-PVTZ
    Number of shells: 263
    Number of basis function: 805
    Number of Cartesian functions: 940
    Spherical Harmonics?: true
    Max angular momentum: 3

   => Loading Basis Set <=

    Name: (AUG-CC-PVTZ AUX)
    Role: JKFIT
    Keyword: DF_BASIS_SCF
    atoms 1-11  entry C          line   161 file /cbio/jclab/home/chayas/anaconda/envs/py35/share/psi4/basis/aug-cc-pvtz-jkfit.gbs 
    atoms 12    entry N          line   223 file /cbio/jclab/home/chayas/anaconda/envs/py35/share/psi4/basis/aug-cc-pvtz-jkfit.gbs 
    atoms 13    entry O          line   285 file /cbio/jclab/home/chayas/anaconda/envs/py35/share/psi4/basis/aug-cc-pvtz-jkfit.gbs 
    atoms 14-22 entry H          line    69 file /cbio/jclab/home/chayas/anaconda/envs/py35/share/psi4/basis/aug-cc-pvtz-jkfit.gbs 

  ==> Pre-Iterations <==

   -------------------------------------------------------
    Irrep   Nso     Nmo     Nalpha   Nbeta   Ndocc  Nsocc
   -------------------------------------------------------
     A        805     805       0       0       0       0
   -------------------------------------------------------
    Total     805     805      45      45      45       0
   -------------------------------------------------------

  ==> Integral Setup <==

  ==> DFJK: Density-Fitted J/K Matrices <==

    J tasked:                  Yes
    K tasked:                  Yes
    wK tasked:                  No
    OpenMP threads:              8
    Integrals threads:           8
    Memory (MB):              3576
    Algorithm:                Disk
    Integral Cache:           NONE
    Schwarz Cutoff:          1E-12
    Fitting Condition:       1E-12

   => Auxiliary Basis Set <=

  Basis Set: (AUG-CC-PVTZ AUX)
    Blend: AUG-CC-PVTZ-JKFIT
    Number of shells: 516
    Number of basis function: 1766
    Number of Cartesian functions: 2198
    Spherical Harmonics?: true
    Max angular momentum: 4

  Minimum eigenvalue in the overlap matrix is 7.0184488788E-07.
  Using Symmetric Orthogonalization.

  SCF Guess: Superposition of Atomic Densities via on-the-fly atomic UHF.

  ==> Iterations <==

                           Total Energy        Delta E     RMS |[F,P]|

   @DF-RHF iter   0:  -558.15645615223355   -5.58156e+02   2.00110e-02 
   @DF-RHF iter   1:  -550.78909872036422    7.36736e+00   1.85537e-03 
   @DF-RHF iter   2:  -550.95209984214637   -1.63001e-01   1.79339e-03 DIIS
   @DF-RHF iter   3:  -551.16447063573901   -2.12371e-01   6.96646e-04 DIIS
   @DF-RHF iter   4:  -551.19435978846570   -2.98892e-02   1.45590e-04 DIIS
   @DF-RHF iter   5:  -551.19738620179714   -3.02641e-03   9.21925e-05 DIIS
   @DF-RHF iter   6:  -551.19827744089162   -8.91239e-04   3.39619e-05 DIIS
   @DF-RHF iter   7:  -551.19845584979362   -1.78409e-04   1.22734e-05 DIIS
   @DF-RHF iter   8:  -551.19848011478234   -2.42650e-05   6.00455e-06 DIIS
   @DF-RHF iter   9:  -551.19848550786855   -5.39309e-06   2.53769e-06 DIIS
   @DF-RHF iter  10:  -551.19848654967325   -1.04180e-06   1.09062e-06 DIIS
   @DF-RHF iter  11:  -551.19848674024320   -1.90570e-07   4.12154e-07 DIIS
   @DF-RHF iter  12:  -551.19848676103686   -2.07937e-08   1.34551e-07 DIIS
   @DF-RHF iter  13:  -551.19848676376409   -2.72723e-09   4.33255e-08 DIIS
   @DF-RHF iter  14:  -551.19848676408731   -3.23212e-10   1.95814e-08 DIIS
   @DF-RHF iter  15:  -551.19848676414131   -5.40012e-11   5.43106e-09 DIIS
   @DF-RHF iter  16:  -551.19848676416166   -2.03499e-11   3.15373e-09 DIIS
   @DF-RHF iter  17:  -551.19848676416507   -3.41061e-12   9.99075e-10 DIIS
   @DF-RHF iter  18:  -551.19848676417655   -1.14824e-11   4.47294e-10 DIIS
   @DF-RHF iter  19:  -551.19848676417450    2.04636e-12   2.67009e-10 DIIS
   @DF-RHF iter  20:  -551.19848676416950    5.00222e-12   1.17336e-10 DIIS
   @DF-RHF iter  21:  -551.19848676418417   -1.46656e-11   6.11555e-11 DIIS

  ==> Post-Iterations <==

    Orbital Energies (a.u.)
    -----------------------

    Doubly Occupied:                                                      

       1A    -20.406092     2A    -15.721524     3A    -11.371595  
       4A    -11.371566     5A    -11.317712     6A    -11.298492  
       7A    -11.298345     8A    -11.225232     9A    -11.217512  
      10A    -11.217473    11A    -11.202748    12A    -11.173137  
      13A    -11.173107    14A     -1.401426    15A     -1.235086  
      16A     -1.186743    17A     -1.124973    18A     -1.101752  
      19A     -0.989996    20A     -0.982178    21A     -0.951159  
      22A     -0.903948    23A     -0.852388    24A     -0.800593  
      25A     -0.776526    26A     -0.750306    27A     -0.724578  
      28A     -0.695204    29A     -0.684661    30A     -0.668836  
      31A     -0.616988    32A     -0.609323    33A     -0.596368  
      34A     -0.593620    35A     -0.552880    36A     -0.524387  
      37A     -0.496864    38A     -0.476786    39A     -0.460888  
      40A     -0.453545    41A     -0.428952    42A     -0.390476  
      43A     -0.321094    44A     -0.311412    45A     -0.219363  

    Virtual:                                                              

      46A     -0.014524    47A      0.007103    48A      0.010640  
      49A      0.019986    50A      0.031372    51A      0.037382  
      52A      0.038984    53A      0.045148    54A      0.050486  
      55A      0.051990    56A      0.062279    57A      0.065963  
      58A      0.069896    59A      0.070710    60A      0.077238  
      61A      0.086795    62A      0.089823    63A      0.099844  
      64A      0.101144    65A      0.105526    66A      0.113895  
      67A      0.119293    68A      0.122525    69A      0.126091  
      70A      0.126143    71A      0.128221    72A      0.132116  
      73A      0.132268    74A      0.138412    75A      0.147991  
      76A      0.152797    77A      0.153780    78A      0.159435  
      79A      0.164116    80A      0.166267    81A      0.166370  
      82A      0.178885    83A      0.180948    84A      0.183344  
      85A      0.187098    86A      0.193047    87A      0.194308  
      88A      0.196142    89A      0.205671    90A      0.206109  
      91A      0.206708    92A      0.214246    93A      0.217041  
      94A      0.223108    95A      0.226830    96A      0.236410  
      97A      0.236929    98A      0.244550    99A      0.248732  
     100A      0.251576   101A      0.255353   102A      0.259665  
     103A      0.263710   104A      0.268429   105A      0.271146  
     106A      0.273974   107A      0.274484   108A      0.283721  
     109A      0.291585   110A      0.293572   111A      0.294706  
     112A      0.303072   113A      0.310835   114A      0.311872  
     115A      0.313542   116A      0.316253   117A      0.323178  
     118A      0.328545   119A      0.331675   120A      0.332232  
     121A      0.343225   122A      0.344458   123A      0.346554  
     124A      0.350801   125A      0.352578   126A      0.362111  
     127A      0.366227   128A      0.368598   129A      0.372250  
     130A      0.373869   131A      0.375811   132A      0.378151  
     133A      0.386168   134A      0.389614   135A      0.398949  
     136A      0.399619   137A      0.413100   138A      0.416710  
     139A      0.420255   140A      0.421047   141A      0.425499  
     142A      0.432050   143A      0.433167   144A      0.439224  
     145A      0.439624   146A      0.447579   147A      0.456667  
     148A      0.457505   149A      0.461642   150A      0.465016  
     151A      0.469264   152A      0.472240   153A      0.475240  
     154A      0.477133   155A      0.480719   156A      0.481119  
     157A      0.487246   158A      0.490795   159A      0.492059  
     160A      0.497844   161A      0.499987   162A      0.503083  
     163A      0.506211   164A      0.508902   165A      0.517334  
     166A      0.517647   167A      0.526397   168A      0.527191  
     169A      0.533899   170A      0.537758   171A      0.546265  
     172A      0.548933   173A      0.558773   174A      0.561083  
     175A      0.563458   176A      0.570449   177A      0.576098  
     178A      0.576200   179A      0.583575   180A      0.590700  
     181A      0.595097   182A      0.603456   183A      0.603932  
     184A      0.604540   185A      0.610132   186A      0.614853  
     187A      0.624232   188A      0.637845   189A      0.640452  
     190A      0.644700   191A      0.653680   192A      0.661397  
     193A      0.666360   194A      0.668391   195A      0.668745  
     196A      0.679564   197A      0.683522   198A      0.691763  
     199A      0.695765   200A      0.699904   201A      0.700306  
     202A      0.711863   203A      0.718969   204A      0.720679  
     205A      0.722427   206A      0.728930   207A      0.729850  
     208A      0.744121   209A      0.750310   210A      0.753072  
     211A      0.753258   212A      0.759626   213A      0.763175  
     214A      0.770299   215A      0.773940   216A      0.781337  
     217A      0.790713   218A      0.795442   219A      0.802140  
     220A      0.812218   221A      0.820132   222A      0.824611  
     223A      0.831827   224A      0.837306   225A      0.841943  
     226A      0.854413   227A      0.863045   228A      0.866796  
     229A      0.873793   230A      0.874787   231A      0.878725  
     232A      0.885134   233A      0.894244   234A      0.900115  
     235A      0.901534   236A      0.907405   237A      0.910208  
     238A      0.913079   239A      0.918107   240A      0.918177  
     241A      0.924270   242A      0.925277   243A      0.927591  
     244A      0.933546   245A      0.935080   246A      0.937606  
     247A      0.943722   248A      0.947261   249A      0.959049  
     250A      0.962704   251A      0.965177   252A      0.976962  
     253A      0.978824   254A      0.982930   255A      0.985672  
     256A      0.995048   257A      1.002501   258A      1.006952  
     259A      1.008274   260A      1.017685   261A      1.019744  
     262A      1.024907   263A      1.028078   264A      1.033117  
     265A      1.036932   266A      1.037820   267A      1.046216  
     268A      1.047783   269A      1.050618   270A      1.055113  
     271A      1.059852   272A      1.071838   273A      1.078440  
     274A      1.085390   275A      1.085557   276A      1.088990  
     277A      1.091817   278A      1.097657   279A      1.099298  
     280A      1.106416   281A      1.110534   282A      1.113628  
     283A      1.116016   284A      1.118112   285A      1.128097  
     286A      1.128891   287A      1.132799   288A      1.142011  
     289A      1.143677   290A      1.151426   291A      1.151689  
     292A      1.162758   293A      1.167972   294A      1.177724  
     295A      1.181578   296A      1.191168   297A      1.194601  
     298A      1.198336   299A      1.200406   300A      1.203011  
     301A      1.211679   302A      1.216634   303A      1.225865  
     304A      1.230289   305A      1.231471   306A      1.232243  
     307A      1.245677   308A      1.245931   309A      1.252481  
     310A      1.259409   311A      1.260579   312A      1.267364  
     313A      1.269827   314A      1.276245   315A      1.282124  
     316A      1.288907   317A      1.304291   318A      1.308280  
     319A      1.315550   320A      1.317732   321A      1.318816  
     322A      1.324771   323A      1.330724   324A      1.339843  
     325A      1.344292   326A      1.355152   327A      1.359964  
     328A      1.369394   329A      1.372922   330A      1.379608  
     331A      1.388716   332A      1.392059   333A      1.403217  
     334A      1.410807   335A      1.415935   336A      1.417492  
     337A      1.433697   338A      1.436633   339A      1.441815  
     340A      1.453097   341A      1.455134   342A      1.458799  
     343A      1.467482   344A      1.476002   345A      1.480789  
     346A      1.485562   347A      1.504123   348A      1.506203  
     349A      1.509703   350A      1.525370   351A      1.529390  
     352A      1.537772   353A      1.541087   354A      1.547075  
     355A      1.551487   356A      1.574005   357A      1.576047  
     358A      1.581102   359A      1.593738   360A      1.600443  
     361A      1.615030   362A      1.618332   363A      1.622073  
     364A      1.626662   365A      1.639743   366A      1.643014  
     367A      1.643412   368A      1.661299   369A      1.662840  
     370A      1.667146   371A      1.677022   372A      1.695265  
     373A      1.698601   374A      1.712437   375A      1.720833  
     376A      1.721691   377A      1.730946   378A      1.736827  
     379A      1.754059   380A      1.755935   381A      1.764807  
     382A      1.770185   383A      1.775809   384A      1.800401  
     385A      1.800709   386A      1.808222   387A      1.818984  
     388A      1.826548   389A      1.829661   390A      1.842421  
     391A      1.845382   392A      1.851346   393A      1.862766  
     394A      1.864356   395A      1.878090   396A      1.894488  
     397A      1.895008   398A      1.910076   399A      1.911292  
     400A      1.930960   401A      1.933897   402A      1.938588  
     403A      1.943919   404A      1.949878   405A      1.956753  
     406A      1.960007   407A      1.966293   408A      1.972210  
     409A      1.986035   410A      1.987248   411A      2.005977  
     412A      2.008018   413A      2.018294   414A      2.023692  
     415A      2.026495   416A      2.031161   417A      2.039222  
     418A      2.046810   419A      2.047933   420A      2.066822  
     421A      2.067582   422A      2.078071   423A      2.078994  
     424A      2.110036   425A      2.112887   426A      2.123339  
     427A      2.134673   428A      2.139909   429A      2.149181  
     430A      2.149906   431A      2.158384   432A      2.164029  
     433A      2.173434   434A      2.192931   435A      2.199422  
     436A      2.202706   437A      2.202966   438A      2.209973  
     439A      2.223142   440A      2.231600   441A      2.232610  
     442A      2.243572   443A      2.264602   444A      2.283949  
     445A      2.288799   446A      2.290686   447A      2.311627  
     448A      2.311829   449A      2.320232   450A      2.337532  
     451A      2.341333   452A      2.359720   453A      2.360843  
     454A      2.379214   455A      2.386434   456A      2.397391  
     457A      2.405559   458A      2.423568   459A      2.429219  
     460A      2.435445   461A      2.450621   462A      2.455183  
     463A      2.456957   464A      2.477196   465A      2.494003  
     466A      2.494219   467A      2.510516   468A      2.514858  
     469A      2.517873   470A      2.533697   471A      2.534900  
     472A      2.542858   473A      2.556873   474A      2.570993  
     475A      2.578730   476A      2.600139   477A      2.617145  
     478A      2.633667   479A      2.644931   480A      2.645222  
     481A      2.650323   482A      2.659006   483A      2.680610  
     484A      2.681975   485A      2.707117   486A      2.710788  
     487A      2.722837   488A      2.765619   489A      2.772327  
     490A      2.776442   491A      2.793907   492A      2.804120  
     493A      2.836446   494A      2.840356   495A      2.854546  
     496A      2.882273   497A      2.903069   498A      2.908741  
     499A      2.925025   500A      2.955394   501A      2.998385  
     502A      3.028197   503A      3.031486   504A      3.052261  
     505A      3.067560   506A      3.083093   507A      3.092632  
     508A      3.105359   509A      3.124716   510A      3.172857  
     511A      3.174934   512A      3.180601   513A      3.205021  
     514A      3.228269   515A      3.236527   516A      3.241759  
     517A      3.261206   518A      3.271391   519A      3.280168  
     520A      3.288060   521A      3.314596   522A      3.317600  
     523A      3.332790   524A      3.355471   525A      3.373436  
     526A      3.374358   527A      3.385499   528A      3.401071  
     529A      3.403791   530A      3.411928   531A      3.421561  
     532A      3.442404   533A      3.445551   534A      3.451151  
     535A      3.452733   536A      3.467821   537A      3.477111  
     538A      3.500561   539A      3.515223   540A      3.515837  
     541A      3.518325   542A      3.532846   543A      3.542528  
     544A      3.544142   545A      3.549993   546A      3.564761  
     547A      3.576552   548A      3.579005   549A      3.585510  
     550A      3.596250   551A      3.599801   552A      3.619401  
     553A      3.629188   554A      3.634267   555A      3.639774  
     556A      3.649120   557A      3.656868   558A      3.679504  
     559A      3.683480   560A      3.691535   561A      3.699539  
     562A      3.705043   563A      3.706194   564A      3.717134  
     565A      3.733263   566A      3.742310   567A      3.760761  
     568A      3.764580   569A      3.781338   570A      3.784593  
     571A      3.801752   572A      3.804537   573A      3.812881  
     574A      3.821680   575A      3.825339   576A      3.828483  
     577A      3.833216   578A      3.851114   579A      3.859057  
     580A      3.866242   581A      3.874143   582A      3.893911  
     583A      3.899296   584A      3.916685   585A      3.919201  
     586A      3.931948   587A      3.940061   588A      3.949695  
     589A      3.950864   590A      3.960957   591A      3.974731  
     592A      3.980237   593A      3.993750   594A      4.007130  
     595A      4.012959   596A      4.014605   597A      4.020263  
     598A      4.023607   599A      4.028274   600A      4.044198  
     601A      4.062561   602A      4.066184   603A      4.078974  
     604A      4.084096   605A      4.090099   606A      4.091758  
     607A      4.101055   608A      4.111215   609A      4.129760  
     610A      4.145885   611A      4.152170   612A      4.158047  
     613A      4.165961   614A      4.166647   615A      4.181471  
     616A      4.192134   617A      4.197174   618A      4.203941  
     619A      4.215282   620A      4.232861   621A      4.234313  
     622A      4.234514   623A      4.250326   624A      4.270392  
     625A      4.285109   626A      4.295237   627A      4.305972  
     628A      4.309375   629A      4.319352   630A      4.330858  
     631A      4.338265   632A      4.338688   633A      4.356259  
     634A      4.360048   635A      4.366195   636A      4.378207  
     637A      4.382814   638A      4.392495   639A      4.396769  
     640A      4.405496   641A      4.414070   642A      4.427198  
     643A      4.443669   644A      4.445274   645A      4.455364  
     646A      4.456352   647A      4.476396   648A      4.484929  
     649A      4.490744   650A      4.493675   651A      4.514801  
     652A      4.521019   653A      4.529376   654A      4.539973  
     655A      4.559353   656A      4.570758   657A      4.571226  
     658A      4.590697   659A      4.606184   660A      4.610099  
     661A      4.632011   662A      4.635958   663A      4.675116  
     664A      4.698164   665A      4.720037   666A      4.722191  
     667A      4.728774   668A      4.742550   669A      4.753594  
     670A      4.759071   671A      4.789369   672A      4.796815  
     673A      4.806911   674A      4.824609   675A      4.834700  
     676A      4.861135   677A      4.866816   678A      4.873026  
     679A      4.881930   680A      4.892259   681A      4.910200  
     682A      4.937213   683A      4.943929   684A      4.946931  
     685A      4.952147   686A      4.962992   687A      4.990305  
     688A      5.000864   689A      5.017941   690A      5.022913  
     691A      5.037710   692A      5.041518   693A      5.050117  
     694A      5.057669   695A      5.079270   696A      5.085183  
     697A      5.116990   698A      5.118120   699A      5.128153  
     700A      5.133890   701A      5.148115   702A      5.154798  
     703A      5.177803   704A      5.181532   705A      5.188929  
     706A      5.192668   707A      5.208745   708A      5.219202  
     709A      5.230059   710A      5.232223   711A      5.273147  
     712A      5.274470   713A      5.297190   714A      5.313661  
     715A      5.321378   716A      5.345429   717A      5.355023  
     718A      5.379854   719A      5.388232   720A      5.390718  
     721A      5.400977   722A      5.409838   723A      5.450919  
     724A      5.451592   725A      5.468429   726A      5.499931  
     727A      5.501346   728A      5.512024   729A      5.559724  
     730A      5.580821   731A      5.617333   732A      5.624419  
     733A      5.644040   734A      5.697047   735A      5.698143  
     736A      5.721212   737A      5.722263   738A      5.746437  
     739A      5.784837   740A      5.789937   741A      5.795585  
     742A      5.811917   743A      5.840784   744A      5.845163  
     745A      5.888169   746A      5.948004   747A      5.959124  
     748A      6.012032   749A      6.043396   750A      6.093371  
     751A      6.105713   752A      6.134378   753A      6.145884  
     754A      6.161753   755A      6.237562   756A      6.262149  
     757A      6.290314   758A      6.334892   759A      6.352468  
     760A      6.375439   761A      6.431254   762A      6.480284  
     763A      6.502548   764A      6.548841   765A      6.575292  
     766A      6.617343   767A      6.629752   768A      6.682301  
     769A      6.773024   770A      6.773568   771A      6.795628  
     772A      6.855178   773A      6.881845   774A      6.923697  
     775A      6.949496   776A      6.961403   777A      7.003926  
     778A      7.084988   779A      7.088798   780A      7.142854  
     781A      7.204197   782A      7.245716   783A      7.254425  
     784A      7.511165   785A      7.537336   786A      7.563769  
     787A      7.651129   788A      7.829207   789A      7.839209  
     790A      7.922661   791A      8.048053   792A      8.115108  
     793A     16.009985   794A     16.171732   795A     16.291119  
     796A     16.567847   797A     17.099831   798A     18.851344  
     799A     19.201370   800A     19.654424   801A     19.834113  
     802A     20.125221   803A     20.130066   804A     20.304509  
     805A     21.774200  

    Final Occupation by Irrep:
              A 
    DOCC [    45 ]

  Energy converged.

  @DF-RHF Final Energy:  -551.19848676418417

   => Energetics <=

    Nuclear Repulsion Energy =            700.5409034180715935
    One-Electron Energy =               -2137.7231111688115561
    Two-Electron Energy =                 885.9837209865557952
    DFT Exchange-Correlation Energy =       0.0000000000000000
    Empirical Dispersion Energy =           0.0000000000000000
    PCM Polarization Energy =               0.0000000000000000
    EFP Energy =                            0.0000000000000000
    Total Energy =                       -551.1984867641841674



Properties will be evaluated at   0.000000,   0.000000,   0.000000 Bohr

Properties computed using the SCF density matrix

  Nuclear Dipole Moment: (a.u.)
     X:     5.8838      Y:    -3.1301      Z:    -3.6749

  Electronic Dipole Moment: (a.u.)
     X:     0.6970      Y:    -0.3698      Z:    -0.4335

  Dipole Moment: (a.u.)
     X:     6.5808      Y:    -3.4999      Z:    -4.1084     Total:     8.5109

  Dipole Moment: (Debye)
     X:    16.7267      Y:    -8.8958      Z:   -10.4426     Total:    21.6325


*** tstop() called on gpu-2-11.local at Sun Nov 12 16:50:56 2017
Module time:
	user time   =    1138.53 seconds =      18.98 minutes
	system time =      50.93 seconds =       0.85 minutes
	total time  =        466 seconds =       7.77 minutes
Total time:
	user time   =    1138.54 seconds =      18.98 minutes
	system time =      50.93 seconds =       0.85 minutes
	total time  =        466 seconds =       7.77 minutes

  //>>>>>>>>>>>>>>>>>>>>>>>>>>>>>>>>>>>//
  //               DFMP2               //
  //<<<<<<<<<<<<<<<<<<<<<<<<<<<<<<<<<<<//

   => Loading Basis Set <=

    Name: (AUG-CC-PVTZ AUX)
    Role: RIFIT
    Keyword: DF_BASIS_MP2
    atoms 1-11  entry C          line   147 file /cbio/jclab/home/chayas/anaconda/envs/py35/share/psi4/basis/aug-cc-pvtz-ri.gbs 
    atoms 12    entry N          line   205 file /cbio/jclab/home/chayas/anaconda/envs/py35/share/psi4/basis/aug-cc-pvtz-ri.gbs 
    atoms 13    entry O          line   263 file /cbio/jclab/home/chayas/anaconda/envs/py35/share/psi4/basis/aug-cc-pvtz-ri.gbs 
    atoms 14-22 entry H          line    29 file /cbio/jclab/home/chayas/anaconda/envs/py35/share/psi4/basis/aug-cc-pvtz-ri.gbs 

	 --------------------------------------------------------
	                          DF-MP2                         
	      2nd-Order Density-Fitted Moller-Plesset Theory     
	              RMP2 Wavefunction,   8 Threads             
	                                                         
	        Rob Parrish, Justin Turney, Andy Simmonett,      
	           Ed Hohenstein, and C. David Sherrill          
	 --------------------------------------------------------

   => Auxiliary Basis Set <=

  Basis Set: (AUG-CC-PVTZ AUX)
    Blend: AUG-CC-PVTZ-RI
    Number of shells: 490
    Number of basis function: 1792
    Number of Cartesian functions: 2263
    Spherical Harmonics?: true
    Max angular momentum: 4

	 --------------------------------------------------------
	                 NBF =   805, NAUX =  1792
	 --------------------------------------------------------
	   CLASS    FOCC     OCC    AOCC    AVIR     VIR    FVIR
	   PAIRS       0      45      45     760     760       0
	 --------------------------------------------------------


         ------------------------------------------------------------
                                     CPHF                           
                                  Rob Parrish                       
         ------------------------------------------------------------

  ==> Geometry <==

    Molecular point group: c1
    Full point group: C1

    Geometry (in Angstrom), charge = 0, multiplicity = 1:

       Center              X                  Y                   Z               Mass       
    ------------   -----------------  -----------------  -----------------  -----------------
           C         -1.297226807559     0.734218167367    -0.557518576984    12.000000000000
           C         -0.304226807559     0.118218167367     1.556481423016    12.000000000000
           C         -2.375226807559     1.307218167367     0.115481423016    12.000000000000
           C         -1.382226807559     0.691218167367     2.230481423016    12.000000000000
           C          0.644773192441    -1.501781832633    -1.428518576984    12.000000000000
           C          2.147773192441     0.017218167367    -0.315518576984    12.000000000000
           C          1.736773192441    -2.053781832633    -2.083518576984    12.000000000000
           C          3.201773192441    -0.573781832633    -0.998518576984    12.000000000000
           C         -0.261226807559     0.139218167367     0.162481423016    12.000000000000
           C          0.857773192441    -0.455781832633    -0.535518576984    12.000000000000
           C         -2.418226807559     1.286218167367     1.509481423016    12.000000000000
           N          2.968773192441    -1.578781832633    -1.852518576984    14.003074004780
           O         -3.409226807559     1.812218167367     2.128481423016    15.994914619560
           H         -1.278226807559     0.759218167367    -1.644518576984     1.007825032070
           H          0.495773192441    -0.341781832633     2.131481423016     1.007825032070
           H         -3.171226807559     1.764218167367    -0.470518576984     1.007825032070
           H         -1.391226807559     0.662218167367     3.318481423016     1.007825032070
           H         -0.351226807559    -1.889781832633    -1.619518576984     1.007825032070
           H          2.342773192441     0.831218167367     0.375481423016     1.007825032070
           H          1.665773192441    -2.866781832633    -2.792518576984     1.007825032070
           H          4.233773192441    -0.271781832633    -0.890518576984     1.007825032070
           H          3.756773192441    -1.999781832633    -2.344518576984     1.007825032070

  Nuclear repulsion =  700.540903418071593
  Reference energy  = -551.198486764184167

  ==> Basis Set <==

  Basis Set: AUG-CC-PVTZ
    Blend: AUG-CC-PVTZ
    Number of shells: 263
    Number of basis function: 805
    Number of Cartesian functions: 940
    Spherical Harmonics?: true
    Max angular momentum: 3

  ==> CGRSolver (by Rob Parrish) <==

   Number of roots    =         1
   Preconditioning    =    JACOBI
   Convergence cutoff =     1E-06
   Maximum iterations =       100

  ==> CPHFRHamiltonian (by Rob Parrish) <== 

  ==> DFJK: Density-Fitted J/K Matrices <==

    J tasked:                  Yes
    K tasked:                  Yes
    wK tasked:                  No
    OpenMP threads:              8
    Integrals threads:           8
    Memory (MB):              3576
    Algorithm:                Disk
    Integral Cache:           NONE
    Schwarz Cutoff:          1E-12
    Fitting Condition:       1E-12

   => Auxiliary Basis Set <=

  Basis Set: (AUG-CC-PVTZ AUX)
    Blend: AUG-CC-PVTZ-JKFIT
    Number of shells: 516
    Number of basis function: 1766
    Number of Cartesian functions: 2198
    Spherical Harmonics?: true
    Max angular momentum: 4

  ==> CPHF Iterations <==

  => Iterations <=

             Iter  Converged  Remaining    Residual
  CGR           1          0          1   1.640E-01
  CGR           2          0          1   6.739E-02
  CGR           3          0          1   3.452E-02
  CGR           4          0          1   1.004E-02
  CGR           5          0          1   4.079E-03
  CGR           6          0          1   2.081E-03
  CGR           7          0          1   9.139E-04
  CGR           8          0          1   5.129E-04
  CGR           9          0          1   1.995E-04
  CGR          10          0          1   6.090E-05
  CGR          11          0          1   2.657E-05
  CGR          12          0          1   8.612E-06
  CGR          13          0          1   3.450E-06
  CGR          14          0          1   1.047E-06
  CGR          15          1          0   2.937E-07

    CGRSolver converged.

  ==> DFCorrGrad: Density-Fitted Correlated Gradients <==

    OpenMP threads:              8
    Integrals threads:           8
    Memory (MB):              3576
    Schwarz Cutoff:          0E+00
    Fitting Condition:       1E-12

   => Auxiliary Basis Set <=

  Basis Set: (AUG-CC-PVTZ AUX)
    Blend: AUG-CC-PVTZ-JKFIT
    Number of shells: 516
    Number of basis function: 1766
    Number of Cartesian functions: 2198
    Spherical Harmonics?: true
    Max angular momentum: 4

	-----------------------------------------------------------
	 ==================> DF-MP2 Energies <==================== 
	-----------------------------------------------------------
	 Reference Energy          =    -551.1984867641841674 [Eh]
	 Singles Energy            =      -0.0000000000000003 [Eh]
	 Same-Spin Energy          =      -0.6065128637083309 [Eh]
	 Opposite-Spin Energy      =      -1.8367977089128733 [Eh]
	 Correlation Energy        =      -2.4433105726212045 [Eh]
	 Total Energy              =    -553.6417973368053254 [Eh]
	-----------------------------------------------------------
	 ================> DF-SCS-MP2 Energies <================== 
	-----------------------------------------------------------
	 SCS Same-Spin Scale       =       0.3333333333333333 [-]
	 SCS Opposite-Spin Scale   =       1.2000000000000000 [-]
	 SCS Same-Spin Energy      =      -0.2021709545694436 [Eh]
	 SCS Opposite-Spin Energy  =      -2.2041572506954479 [Eh]
	 SCS Correlation Energy    =      -2.4063282052648920 [Eh]
	 SCS Total Energy          =    -553.6048149694490803 [Eh]
	-----------------------------------------------------------


  -Total Gradient:
     Atom            X                  Y                   Z
    ------   -----------------  -----------------  -----------------
       1        0.033848520036    -0.001112637261    -0.000532860701
       2        0.008093089270    -0.021160216545    -0.025691330533
       3       -0.026493035147     0.012565269230     0.048286500367
       4       -0.049280736468     0.027561230355    -0.000077629358
       5       -0.018891977272     0.011155246575     0.028853675596
       6       -0.032506801651     0.016384324163     0.003042544308
       7        0.027423527868     0.001847656395     0.001507506744
       8        0.003103706325    -0.018831036834    -0.020759964301
       9       -0.026283918601     0.013901447797     0.016351284600
      10        0.038051845816    -0.020121696758    -0.023425683788
      11        0.063703260204    -0.033672709307    -0.040318611202
      12       -0.014134256903     0.008606574058     0.009590190999
      13       -0.016471614209     0.008681470809     0.010367773935
      14       -0.002110516988     0.000887526853    -0.003273183925
      15        0.001430369127    -0.000495269941     0.003564914272
      16       -0.003670316690     0.000044414187    -0.008919556742
      17        0.005893257602    -0.001208177158     0.007183449123
      18       -0.005276463593    -0.002243810132    -0.002430153205
      19        0.002198646818     0.003632205948     0.004180832494
      20        0.000772693030    -0.000912062994    -0.002845849738
      21        0.002606712975    -0.001096736477     0.000434392922
      22        0.007994008454    -0.004413012953    -0.005088241867


*** tstop() called on gpu-2-11.local at Sun Nov 12 17:22:44 2017
Module time:
	user time   =    5125.31 seconds =      85.42 minutes
	system time =     108.90 seconds =       1.81 minutes
	total time  =       2374 seconds =      39.57 minutes
Total time:
	user time   =    5125.32 seconds =      85.42 minutes
	system time =     108.90 seconds =       1.81 minutes
	total time  =       2374 seconds =      39.57 minutes

			-----------------------------------------
			 OPTKING 2.0: for geometry optimizations 
			  - R.A. King,  Bethel University        
			-----------------------------------------

	Internal coordinates to be generated automatically.
	Detected frag 1 with atoms:  1 2 3 4 5 6 7 8 9 10 11 12 13 14 15 16 17 18 19 20
	 21 22
	---Fragment 1 Bond Connectivity---
	 1 : 3 9 14
	 2 : 4 9 15
	 3 : 1 11 16
	 4 : 2 11 17
	 5 : 7 10 18
	 6 : 8 10 19
	 7 : 5 12 20
	 8 : 6 12 21
	 9 : 1 2 10
	 10 : 5 6 9
	 11 : 3 4 13
	 12 : 7 8 22
	 13 : 11
	 14 : 1
	 15 : 2
	 16 : 3
	 17 : 4
	 18 : 5
	 19 : 6
	 20 : 7
	 21 : 8
	 22 : 12

	Assuming in current code that numbering for constraints corresponds to unified fragment.
	Fixed dihedral atom list: 
	     1     9    10     5
	---Fragment 1 Geometry and Gradient---
	 C          -2.4514033985        1.3874712581       -1.0535574245
	 C          -0.5749053486        0.2233999603        2.9413236204
	 C          -4.4885281698        2.4702843323        0.2182282629
	 C          -2.6120301198        1.3062130344        4.2149990340
	 C           1.2184447515       -2.8379563750       -2.6995088862
	 C           4.0587031293        0.0325376208       -0.5962437003
	 C           3.2820256887       -3.8810852004       -3.9372795033
	 C           6.0504744733       -1.0842905237       -1.8869266491
	 C          -0.4936471249        0.2630842090        0.3070453912
	 C           1.6209564178       -0.8613028400       -1.0119834496
	 C          -4.5697863935        2.4306000835        2.8525064922
	 N           5.6101682844       -2.9834652873       -3.5007527666
	 O          -6.4425049912        3.4245960294        4.0222469684
	 H          -2.4154986020        1.4347144114       -3.1076897309
	 H           0.9368755577       -0.6458740609        4.0279161468
	 H          -5.9927501716        3.3338891750       -0.8891512509
	 H          -2.6290376550        1.2514109765        6.2710210666
	 H          -0.6637224768       -3.5711701146       -3.0604465776
	 H           4.4271997252        1.5707746930        0.7095570575
	 H           3.1478551332       -5.4174325464       -5.2770953315
	 H           8.0006718425       -0.5135932316       -1.6828362267
	 H           7.0992724771       -3.7790399892       -4.4304980240
	             0.0338485200       -0.0011126373       -0.0005328607
	             0.0080930893       -0.0211602165       -0.0256913305
	            -0.0264930351        0.0125652692        0.0482865004
	            -0.0492807365        0.0275612304       -0.0000776294
	            -0.0188919773        0.0111552466        0.0288536756
	            -0.0325068017        0.0163843242        0.0030425443
	             0.0274235279        0.0018476564        0.0015075067
	             0.0031037063       -0.0188310368       -0.0207599643
	            -0.0262839186        0.0139014478        0.0163512846
	             0.0380518458       -0.0201216968       -0.0234256838
	             0.0637032602       -0.0336727093       -0.0403186112
	            -0.0141342569        0.0086065741        0.0095901910
	            -0.0164716142        0.0086814708        0.0103677739
	            -0.0021105170        0.0008875269       -0.0032731839
	             0.0014303691       -0.0004952699        0.0035649143
	            -0.0036703167        0.0000444142       -0.0089195567
	             0.0058932576       -0.0012081772        0.0071834491
	            -0.0052764636       -0.0022438101       -0.0024301532
	             0.0021986468        0.0036322059        0.0041808325
	             0.0007726930       -0.0009120630       -0.0028458497
	             0.0026067130       -0.0010967365        0.0004343929
	             0.0079940085       -0.0044130130       -0.0050882419

	Previous optimization step data not found.  Starting new optimization.

	---Fragment 1 Intrafragment Coordinates---
	 - Coordinate -           - BOHR/RAD -       - ANG/DEG -
	 R(1,3)           =         2.634350	       1.394038
	 R(1,9)           =         2.635962	       1.394891
	 R(1,14)          =         2.054989	       1.087453
	 R(2,4)           =         2.635263	       1.394521
	 R(2,9)           =         2.635830	       1.394821
	 R(2,15)          =         2.054702	       1.087302
	 R(3,11)          =         2.635830	       1.394821
	 R(3,16)          =         2.057860	       1.088972
	 R(4,11)          =         2.636938	       1.395407
	 R(4,17)          =         2.056823	       1.088424
	 R(5,7)           =         2.622701	       1.387874
	 R(5,10)          =         2.630003	       1.391738
	 R(5,18)          =         2.051934	       1.085837
	 R(6,8)           =         2.623037	       1.388051
	 R(6,10)          =         2.629525	       1.391484
	 R(6,19)          =         2.051116	       1.085404
	 R(7,12)          =         2.533086	       1.340451
	 R(7,20)          =         2.042908	       1.081060
	 R(8,12)          =         2.530844	       1.339265
	 R(8,21)          =         2.042209	       1.080691
	 R(9,10)          =         2.734160	       1.446855
	 R(11,13)         =         2.421445	       1.281373
	 R(12,22)         =         1.927381	       1.019926
	 B(1,3,11)        =         2.094553	     120.009056
	 B(1,3,16)        =         2.069123	     118.552025
	 B(1,9,2)         =         2.093692	     119.959722
	 B(1,9,10)        =         2.095337	     120.053983
	 B(2,4,11)        =         2.093699	     119.960108
	 B(2,4,17)        =         2.069829	     118.592446
	 B(2,9,10)        =         2.094156	     119.986294
	 B(3,1,9)         =         2.094940	     120.031219
	 B(3,1,14)        =         2.079025	     119.119344
	 B(3,11,4)        =         2.094306	     119.994870
	 B(3,11,13)       =         2.094918	     120.029973
	 B(4,2,9)         =         2.095181	     120.045019
	 B(4,2,15)        =         2.079455	     119.143974
	 B(4,11,13)       =         2.093961	     119.975136
	 B(5,7,12)        =         2.095420	     120.058712
	 B(5,7,20)        =         2.161510	     123.845374
	 B(5,10,6)        =         2.093023	     119.921363
	 B(5,10,9)        =         2.094691	     120.016938
	 B(6,8,12)        =         2.095744	     120.077296
	 B(6,8,21)        =         2.161527	     123.846377
	 B(6,10,9)        =         2.095472	     120.061692
	 B(7,5,10)        =         2.072965	     118.772138
	 B(7,5,18)        =         2.090453	     119.774125
	 B(7,12,8)        =         2.136137	     122.391624
	 B(7,12,22)       =         2.072245	     118.730872
	 B(8,6,10)        =         2.073081	     118.778780
	 B(8,6,19)        =         2.089955	     119.745577
	 B(8,12,22)       =         2.074803	     118.877436
	 B(9,1,14)        =         2.109221	     120.849435
	 B(9,2,15)        =         2.108550	     120.811005
	 B(10,5,18)       =         2.119768	     121.453736
	 B(10,6,19)       =         2.120148	     121.475552
	 B(11,3,16)       =         2.119509	     121.438903
	 B(11,4,17)       =         2.119657	     121.447411
	 B(12,7,20)       =         2.026255	     116.095878
	 B(12,8,21)       =         2.025912	     116.076222
	 D(1,3,11,4)      =        -0.000325	      -0.018609
	 D(1,3,11,13)     =        -3.141004	    -179.966279
	 D(1,9,2,4)       =         0.000325	       0.018608
	 D(1,9,2,15)      =        -3.141527	    -179.996257
	 D(1,9,10,5)      =        -1.047075	     -59.993001
	 D(1,9,10,6)      =         2.093959	     119.974994
	 D(2,4,11,3)      =         0.000301	       0.017261
	 D(2,4,11,13)     =         3.140981	     179.964960
	 D(2,9,1,3)       =        -0.000348	      -0.019945
	 D(2,9,1,14)      =         3.141027	     179.967567
	 D(2,9,10,5)      =         2.094734	     120.019439
	 D(2,9,10,6)      =        -1.047417	     -60.012566
	 D(3,1,9,10)      =         3.141462	     179.992491
	 D(3,11,4,17)     =         3.140700	     179.948827
	 D(4,2,9,10)      =        -3.141485	    -179.993820
	 D(4,11,3,16)     =         3.140472	     179.935781
	 D(5,7,12,8)      =         0.001108	       0.063504
	 D(5,7,12,22)     =         3.141021	     179.967239
	 D(5,10,6,8)      =        -0.001461	      -0.083723
	 D(5,10,6,19)     =        -3.141136	    -179.973844
	 D(6,8,12,7)      =        -0.001532	      -0.087785
	 D(6,8,12,22)     =        -3.141442	    -179.991385
	 D(6,10,5,7)      =         0.001054	       0.060368
	 D(6,10,5,18)     =        -3.140822	    -179.955846
	 D(7,5,10,9)      =        -3.141097	    -179.971592
	 D(7,12,8,21)     =        -3.141135	    -179.973799
	 D(8,6,10,9)      =         3.140689	     179.948252
	 D(8,12,7,20)     =         3.141536	     179.996767
	 D(9,1,3,11)      =         0.000348	       0.019955
	 D(9,1,3,16)      =        -3.140471	    -179.935743
	 D(9,2,4,11)      =        -0.000301	      -0.017270
	 D(9,2,4,17)      =        -3.140734	    -179.950778
	 D(9,10,5,18)     =         0.000213	       0.012194
	 D(9,10,6,19)     =         0.001015	       0.058130
	 D(10,5,7,12)     =        -0.000850	      -0.048714
	 D(10,5,7,20)     =        -3.141183	    -179.976552
	 D(10,6,8,12)     =         0.001682	       0.096350
	 D(10,6,8,21)     =         3.141123	     179.973077
	 D(10,9,1,14)     =        -0.000349	      -0.019997
	 D(10,9,2,15)     =        -0.000152	      -0.008685
	 D(11,3,1,14)     =        -3.141030	    -179.967773
	 D(11,4,2,15)     =         3.141546	     179.997347
	 D(12,7,5,18)     =         3.141021	     179.967221
	 D(12,8,6,19)     =         3.141390	     179.988417
	 D(13,11,3,16)    =        -0.000207	      -0.011889
	 D(13,11,4,17)    =        -0.001806	      -0.103475
	 D(14,1,3,16)     =         0.001336	       0.076530
	 D(15,2,4,17)     =         0.001114	       0.063839
	 D(18,5,7,20)     =         0.000687	       0.039383
	 D(19,6,8,21)     =        -0.002354	      -0.134857
	 D(20,7,12,22)    =        -0.001737	      -0.099497
	 D(21,8,12,22)    =         0.002140	       0.122601

	Current energy   :      -553.6417973368

	Generating empirical Hessian (Schlegel '84) for each fragment.
	Adding user-defined constraint: Fragment 1; Coordinate 64:
		Value =    -1.047075; Fixed value    =    -1.047198
		Force =    -0.000061; Force constant =     0.500000
	Removing off-diagonal coupling between coordinate 64 and others.
	Taking RFO optimization step.
	Going to follow RFO solution 1.
	Using RFO vector 1.

	Determining step-restricting scale parameter for RS-RFO.
	Maximum step size allowed    0.10000

	 Iter      |step|        alpha        rfo_root  
	------------------------------------------------
	    0     0.47125       1.00000           1
	    1     0.29970       2.94139           1
	    2     0.20626       7.67775           1
	    3     0.15088      18.49807           1
	    4     0.11859      36.16903           1
	    5     0.10386      51.58630           1
	    6     0.10023      56.63870           1
	    7     0.10000      56.97335           1
	------------------------------------------------
	Norm of target step-size    0.10000
	Projected energy change by RFO approximation:        -0.0083791164

	Back-transformation to cartesian coordinates...
	Could not converge backtransformation.
	Using first guess instead.

	--- Internal Coordinate Step in ANG or DEG, aJ/ANG or AJ/DEG ---
	 ---------------------------------------------------------------------------
	   Coordinate                Previous        Force       Change         New 
	   ----------                --------       ------       ------       ------
	    1 R(1,3)          =      1.394038    -0.138840    -0.009527     1.384511
	    2 R(1,9)          =      1.394891     0.103775     0.006953     1.401844
	    3 R(1,14)         =      1.087453    -0.026820    -0.002077     1.085376
	    4 R(2,4)          =      1.394521    -0.141870    -0.009752     1.384769
	    5 R(2,9)          =      1.394821     0.104807     0.007045     1.401866
	    6 R(2,15)         =      1.087302    -0.025929    -0.001994     1.085308
	    7 R(3,11)         =      1.394821     0.266358     0.018657     1.413479
	    8 R(3,16)         =      1.088972    -0.061801    -0.004839     1.084134
	    9 R(4,11)         =      1.395407     0.262948     0.018471     1.413878
	   10 R(4,17)         =      1.088424    -0.059024    -0.004613     1.083811
	   11 R(5,7)          =      1.387874    -0.148241    -0.010069     1.377805
	   12 R(5,10)         =      1.391738     0.127972     0.008770     1.400508
	   13 R(5,18)         =      1.085837    -0.050002    -0.003890     1.081947
	   14 R(6,8)          =      1.388051    -0.148850    -0.010094     1.377957
	   15 R(6,10)         =      1.391484     0.128825     0.008837     1.400321
	   16 R(6,19)         =      1.085404    -0.047625    -0.003698     1.081706
	   17 R(7,12)         =      1.340451     0.105592     0.006605     1.347056
	   18 R(7,20)         =      1.081060    -0.020610    -0.001588     1.079472
	   19 R(8,12)         =      1.339265     0.113171     0.007054     1.346319
	   20 R(8,21)         =      1.080691    -0.018341    -0.001393     1.079298
	   21 R(9,10)         =      1.446855    -0.120156    -0.009018     1.437837
	   22 R(11,13)        =      1.281373    -0.175576    -0.009433     1.271940
	   23 R(12,22)        =      1.019926    -0.086114    -0.006061     1.013865
	   24 B(1,3,11)       =    120.009056     0.000529     0.591129   120.600186
	   25 B(1,3,16)       =    118.552025     0.000184     0.237625   118.789650
	   26 B(1,9,2)        =    119.959722    -0.000151    -0.229903   119.729819
	   27 B(1,9,10)       =    120.053983     0.000069     0.108599   120.162583
	   28 B(2,4,11)       =    119.960108     0.000543     0.601830   120.561938
	   29 B(2,4,17)       =    118.592446     0.000175     0.228408   118.820854
	   30 B(2,9,10)       =    119.986294     0.000082     0.120470   120.106764
	   31 B(3,1,9)        =    120.031219     0.000245     0.222673   120.253892
	   32 B(3,1,14)       =    119.119344     0.000056     0.102232   119.221576
	   33 B(3,11,4)       =    119.994870    -0.001415    -1.411045   118.583825
	   34 B(3,11,13)      =    120.029973     0.000699     0.698742   120.728715
	   35 B(4,2,9)        =    120.045019     0.000248     0.224631   120.269650
	   36 B(4,2,15)       =    119.143974     0.000050     0.094703   119.238677
	   37 B(4,11,13)      =    119.975136     0.000715     0.712323   120.687459
	   38 B(5,7,12)       =    120.058712    -0.000182    -0.199776   119.858936
	   39 B(5,7,20)       =    123.845374     0.000005    -0.003695   123.841678
	   40 B(5,10,6)       =    119.921363    -0.000826    -0.879484   119.041879
	   41 B(5,10,9)       =    120.016938     0.000417     0.444360   120.461298
	   42 B(6,8,12)       =    120.077296    -0.000188    -0.205821   119.871474
	   43 B(6,8,21)       =    123.846377     0.000001    -0.008790   123.837587
	   44 B(6,10,9)       =    120.061692     0.000409     0.434495   120.496187
	   45 B(7,5,10)       =    118.772138     0.000573     0.607643   119.379781
	   46 B(7,5,18)       =    119.774125    -0.000205    -0.209636   119.564489
	   47 B(7,12,8)       =    122.391624     0.000059     0.074566   122.466190
	   48 B(7,12,22)      =    118.730872    -0.000020    -0.024392   118.706480
	   49 B(8,6,10)       =    118.778780     0.000565     0.602817   119.381597
	   50 B(8,6,19)       =    119.745577    -0.000198    -0.204310   119.541266
	   51 B(8,12,22)      =    118.877436    -0.000039    -0.050234   118.827202
	   52 B(9,1,14)       =    120.849435    -0.000302    -0.325099   120.524336
	   53 B(9,2,15)       =    120.811005    -0.000298    -0.319634   120.491371
	   54 B(10,5,18)      =    121.453736    -0.000368    -0.398026   121.055709
	   55 B(10,6,19)      =    121.475552    -0.000366    -0.398423   121.077129
	   56 B(11,3,16)      =    121.438903    -0.000713    -0.828752   120.610151
	   57 B(11,4,17)      =    121.447411    -0.000718    -0.830277   120.617134
	   58 B(12,7,20)      =    116.095878     0.000177     0.203480   116.299358
	   59 B(12,8,21)      =    116.076222     0.000187     0.214434   116.290655
	   60 D(1,3,11,4)     =     -0.018609     0.000019     0.138455     0.119846
	   61 D(1,3,11,13)    =   -179.966279     0.000014     0.091248  -179.875030
	   62 D(1,9,2,4)      =      0.018608     0.000031     0.251432     0.270040
	   63 D(1,9,2,15)     =   -179.996257     0.000003     0.064757  -179.931500
	   64 D(1,9,10,5)     =    -59.993001     0.000128     0.615973   -59.377027
	   65 D(1,9,10,6)     =    119.974994     0.000161     0.940952   120.915946
	   66 D(2,4,11,3)     =      0.017261     0.000012     0.069366     0.086627
	   67 D(2,4,11,13)    =    179.964960     0.000017     0.116545   180.081506
	   68 D(2,9,1,3)      =     -0.019945    -0.000000    -0.043755    -0.063700
	   69 D(2,9,1,14)     =    179.967567    -0.000024    -0.193265   179.774302
	   70 D(2,9,10,5)     =    120.019439     0.000161     0.936747   120.956186
	   71 D(2,9,10,6)     =    -60.012566     0.000194     1.261725   -58.750841
	   72 D(3,1,9,10)     =    179.992491     0.000033     0.275762   180.268253
	   73 D(3,11,4,17)    =    179.948827     0.000009     0.037955   179.986781
	   74 D(4,2,9,10)     =   -179.993820    -0.000003    -0.067906  -180.061726
	   75 D(4,11,3,16)    =    179.935781     0.000020     0.141980   180.077762
	   76 D(5,7,12,8)     =      0.063504     0.000000     0.012058     0.075562
	   77 D(5,7,12,22)    =    179.967239    -0.000003    -0.023576   179.943663
	   78 D(5,10,6,8)     =     -0.083723     0.000014     0.137833     0.054110
	   79 D(5,10,6,19)    =   -179.973844     0.000003     0.060010  -179.913834
	   80 D(6,8,12,7)     =     -0.087785    -0.000004    -0.035220    -0.123004
	   81 D(6,8,12,22)    =   -179.991385    -0.000001     0.000432  -179.990953
	   82 D(6,10,5,7)     =      0.060368    -0.000018    -0.160646    -0.100278
	   83 D(6,10,5,18)    =   -179.955846    -0.000024    -0.196448  -180.152294
	   84 D(7,5,10,9)     =   -179.971592     0.000016     0.160064  -179.811528
	   85 D(7,12,8,21)    =   -179.973799     0.000008     0.037108  -179.936691
	   86 D(8,6,10,9)     =    179.948252    -0.000020    -0.182995   179.765256
	   87 D(8,12,7,20)    =    179.996767     0.000018     0.136837   180.133604
	   88 D(9,1,3,11)     =      0.019955    -0.000024    -0.150696    -0.130741
	   89 D(9,1,3,16)     =   -179.935743    -0.000025    -0.153669  -180.089412
	   90 D(9,2,4,11)     =     -0.017270    -0.000036    -0.264023    -0.281294
	   91 D(9,2,4,17)     =   -179.950778    -0.000033    -0.232441  -180.183219
	   92 D(9,10,5,18)    =      0.012194     0.000009     0.124262     0.136455
	   93 D(9,10,6,19)    =      0.058130    -0.000031    -0.260818    -0.202688
	   94 D(10,5,7,12)    =     -0.048714     0.000011     0.086707     0.037993
	   95 D(10,5,7,20)    =   -179.976552    -0.000009    -0.048103  -180.024655
	   96 D(10,6,8,12)    =      0.096350    -0.000003    -0.041098     0.055252
	   97 D(10,6,8,21)    =    179.973077    -0.000016    -0.118929   179.854148
	   98 D(10,9,1,14)    =     -0.019997     0.000010     0.126253     0.106256
	   99 D(10,9,2,15)    =     -0.008685    -0.000030    -0.254581    -0.263266
	  100 D(11,3,1,14)    =   -179.967773    -0.000001    -0.003072  -179.970845
	  101 D(11,4,2,15)    =    179.997347    -0.000009    -0.079616   179.917731
	  102 D(12,7,5,18)    =    179.967221     0.000017     0.122003   180.089224
	  103 D(12,8,6,19)    =    179.988417     0.000008     0.035277   180.023695
	  104 D(13,11,3,16)   =     -0.011889     0.000015     0.094774     0.082885
	  105 D(13,11,4,17)   =     -0.103475     0.000014     0.085135    -0.018340
	  106 D(14,1,3,16)    =      0.076530    -0.000002    -0.006046     0.070484
	  107 D(15,2,4,17)    =      0.063839    -0.000006    -0.048033     0.015806
	  108 D(18,5,7,20)    =      0.039383    -0.000003    -0.012807     0.026576
	  109 D(19,6,8,21)    =     -0.134857    -0.000005    -0.042553    -0.177410
	  110 D(20,7,12,22)   =     -0.099497     0.000015     0.101203     0.001705
	  111 D(21,8,12,22)   =      0.122601     0.000012     0.072760     0.195361
	 ---------------------------------------------------------------------------
	Successfully symmetrized geometry.
	 Forces used to impose fixed constraints are not included.
	  Forces zeroed: 64 

  ==> Convergence Check <==

  Measures of convergence in internal coordinates in au.
  Criteria marked as inactive (o), active & met (*), and active & unmet ( ).
  --------------------------------------------------------------------------------------------- ~
   Step     Total Energy     Delta E     MAX Force     RMS Force      MAX Disp      RMS Disp    ~
  --------------------------------------------------------------------------------------------- ~
    Convergence Criteria    1.00e-06 *    3.00e-04 *             o    1.20e-03 *             o  ~
  --------------------------------------------------------------------------------------------- ~
      1    -553.64179734   -5.54e+02      3.23e-02      7.95e-03 o    3.53e-02      9.48e-03 o  ~
  ---------------------------------------------------------------------------------------------

	Writing optimization data to binary file.
	Structure for next step:
	Cartesian Geometry (in Angstrom)
	    C    -1.3081533724   0.7278483583  -0.5607471383
	    C    -0.2996923215   0.1266719684   1.5608352630
	    C    -2.3777356231   1.3001770183   0.1065641843
	    C    -1.3689906345   0.6938096345   2.2335466172
	    C     0.6483264448  -1.5008022950  -1.4416890552
	    C     2.1542297845   0.0094741012  -0.3113217489
	    C     1.7309549786  -2.0511205514  -2.0923891925
	    C     3.2041246698  -0.5745987945  -0.9861149172
	    C    -0.2611577798   0.1360999279   0.1595308468
	    C     0.8514661594  -0.4526012401  -0.5353602454
	    C    -2.4312013295   1.2939838244   1.5190176765
	    N     2.9692916354  -1.5787978027  -1.8515703727
	    O    -3.4137860902   1.8169750206   2.1345167623
	    H    -1.2897305464   0.7456333627  -1.6458214555
	    H     0.5047493271  -0.3270738884   2.1308190077
	    H    -3.1737564698   1.7525259542  -0.4740191336
	    H    -1.3761652508   0.6707553525   3.3170885582
	    H    -0.3440209297  -1.8848140307  -1.6376224878
	    H     2.3489648091   0.8161706523   0.3825137958
	    H     1.6574820527  -2.8599576318  -2.8034760440
	    H     4.2343442370  -0.2743895635  -0.8703310849
	    H     3.7534664830  -1.9971696950  -2.3393785294
			--------------------------
			 OPTKING Finished Execution 
			--------------------------

    Structure for next step:
    Molecular point group: c1
    Full point group: C1

    Geometry (in Angstrom), charge = 0, multiplicity = 1:

    C           -1.307257804266     0.727397995584    -0.561127945695
    C           -0.298796753432     0.126221605692     1.560454455585
    C           -2.376840054994     1.299726655616     0.106183376911
    C           -1.368095066431     0.693359271814     2.233165809769
    C            0.649222012889    -1.501252657673    -1.442069862547
    C            2.155125352640     0.009023738478    -0.311702556276
    C            1.731850546667    -2.051570914026    -2.092769999910
    C            3.205020237910    -0.575049157142    -0.986495724608
    C           -0.260262211738     0.135649565244     0.159150039380
    C            0.852361727520    -0.453051602752    -0.535741052761
    C           -2.430305761399     1.293533461775     1.518636869071
    N            2.970187203464    -1.579248165399    -1.851951180082
    O           -3.412890522116     1.816524657879     2.134135954869
    H           -1.288834978255     0.745183000019    -1.646202262854
    H            0.505644895154    -0.327524251036     2.130438200334
    H           -3.172860901695     1.752075591551    -0.474399940969
    H           -1.375269682739     0.670304989818     3.316707750829
    H           -0.343125361599    -1.885264393413    -1.638003295157
    H            2.349860377202     0.815720289596     0.382132988462
    H            1.658377620804    -2.860407994493    -2.803856851381
    H            4.235239805106    -0.274839926135    -0.870711892234
    H            3.754362051142    -1.997620057701    -2.339759336791

gradient() will perform analytic gradient computation.

*** tstart() called on gpu-2-11.local
*** at Sun Nov 12 17:22:45 2017

    SCF Algorithm Type (re)set to DF.

*** tstart() called on gpu-2-11.local
*** at Sun Nov 12 17:22:45 2017

   => Loading Basis Set <=

    Name: AUG-CC-PVTZ
    Role: ORBITAL
    Keyword: BASIS
    atoms 1-11  entry C          line   221 file /cbio/jclab/home/chayas/anaconda/envs/py35/share/psi4/basis/aug-cc-pvtz.gbs 
    atoms 12    entry N          line   267 file /cbio/jclab/home/chayas/anaconda/envs/py35/share/psi4/basis/aug-cc-pvtz.gbs 
    atoms 13    entry O          line   313 file /cbio/jclab/home/chayas/anaconda/envs/py35/share/psi4/basis/aug-cc-pvtz.gbs 
    atoms 14-22 entry H          line    34 file /cbio/jclab/home/chayas/anaconda/envs/py35/share/psi4/basis/aug-cc-pvtz.gbs 


         ---------------------------------------------------------
                                   SCF
            by Justin Turney, Rob Parrish, and Andy Simmonett
                              RHF Reference
                        8 Threads,   4768 MiB Core
         ---------------------------------------------------------

  ==> Geometry <==

    Molecular point group: c1
    Full point group: C1

    Geometry (in Angstrom), charge = 0, multiplicity = 1:

       Center              X                  Y                   Z               Mass       
    ------------   -----------------  -----------------  -----------------  -----------------
           C         -1.307257804266     0.727397995584    -0.561127945695    12.000000000000
           C         -0.298796753432     0.126221605692     1.560454455585    12.000000000000
           C         -2.376840054994     1.299726655616     0.106183376911    12.000000000000
           C         -1.368095066431     0.693359271814     2.233165809769    12.000000000000
           C          0.649222012889    -1.501252657673    -1.442069862547    12.000000000000
           C          2.155125352640     0.009023738478    -0.311702556276    12.000000000000
           C          1.731850546667    -2.051570914026    -2.092769999910    12.000000000000
           C          3.205020237910    -0.575049157142    -0.986495724608    12.000000000000
           C         -0.260262211738     0.135649565244     0.159150039380    12.000000000000
           C          0.852361727520    -0.453051602752    -0.535741052761    12.000000000000
           C         -2.430305761399     1.293533461775     1.518636869071    12.000000000000
           N          2.970187203464    -1.579248165399    -1.851951180082    14.003074004780
           O         -3.412890522116     1.816524657879     2.134135954869    15.994914619560
           H         -1.288834978255     0.745183000019    -1.646202262854     1.007825032070
           H          0.505644895154    -0.327524251036     2.130438200334     1.007825032070
           H         -3.172860901695     1.752075591551    -0.474399940969     1.007825032070
           H         -1.375269682739     0.670304989818     3.316707750829     1.007825032070
           H         -0.343125361599    -1.885264393413    -1.638003295157     1.007825032070
           H          2.349860377202     0.815720289596     0.382132988462     1.007825032070
           H          1.658377620804    -2.860407994493    -2.803856851381     1.007825032070
           H          4.235239805106    -0.274839926135    -0.870711892234     1.007825032070
           H          3.754362051142    -1.997620057701    -2.339759336791     1.007825032070

  Running in c1 symmetry.

  Rotational constants: A =      0.09580  B =      0.01338  C =      0.01248 [cm^-1]
  Rotational constants: A =   2871.92292  B =    400.97778  C =    374.14992 [MHz]
  Nuclear repulsion =  699.694935984083941

  Charge       = 0
  Multiplicity = 1
  Electrons    = 90
  Nalpha       = 45
  Nbeta        = 45

  ==> Algorithm <==

  SCF Algorithm Type is DF.
  DIIS enabled.
  MOM disabled.
  Fractional occupation disabled.
  Guess Type is READ.
  Energy threshold   = 1.00e-10
  Density threshold  = 1.00e-10
  Integral threshold = 0.00e+00

  ==> Primary Basis <==

  Basis Set: AUG-CC-PVTZ
    Blend: AUG-CC-PVTZ
    Number of shells: 263
    Number of basis function: 805
    Number of Cartesian functions: 940
    Spherical Harmonics?: true
    Max angular momentum: 3

   => Loading Basis Set <=

    Name: (AUG-CC-PVTZ AUX)
    Role: JKFIT
    Keyword: DF_BASIS_SCF
    atoms 1-11  entry C          line   161 file /cbio/jclab/home/chayas/anaconda/envs/py35/share/psi4/basis/aug-cc-pvtz-jkfit.gbs 
    atoms 12    entry N          line   223 file /cbio/jclab/home/chayas/anaconda/envs/py35/share/psi4/basis/aug-cc-pvtz-jkfit.gbs 
    atoms 13    entry O          line   285 file /cbio/jclab/home/chayas/anaconda/envs/py35/share/psi4/basis/aug-cc-pvtz-jkfit.gbs 
    atoms 14-22 entry H          line    69 file /cbio/jclab/home/chayas/anaconda/envs/py35/share/psi4/basis/aug-cc-pvtz-jkfit.gbs 

  Reading orbitals from file 180, no projection.

  ==> Pre-Iterations <==

   -------------------------------------------------------
    Irrep   Nso     Nmo     Nalpha   Nbeta   Ndocc  Nsocc
   -------------------------------------------------------
     A        805     805       0       0       0       0
   -------------------------------------------------------
    Total     805     805      45      45      45       0
   -------------------------------------------------------

  ==> Integral Setup <==

  ==> DFJK: Density-Fitted J/K Matrices <==

    J tasked:                  Yes
    K tasked:                  Yes
    wK tasked:                  No
    OpenMP threads:              8
    Integrals threads:           8
    Memory (MB):              3576
    Algorithm:                Disk
    Integral Cache:           NONE
    Schwarz Cutoff:          1E-12
    Fitting Condition:       1E-12

   => Auxiliary Basis Set <=

  Basis Set: (AUG-CC-PVTZ AUX)
    Blend: AUG-CC-PVTZ-JKFIT
    Number of shells: 516
    Number of basis function: 1766
    Number of Cartesian functions: 2198
    Spherical Harmonics?: true
    Max angular momentum: 4

  Minimum eigenvalue in the overlap matrix is 7.1239088800E-07.
  Using Symmetric Orthogonalization.

  SCF Guess: Orbitals guess was supplied from a previous computation.

  ==> Iterations <==

                           Total Energy        Delta E     RMS |[F,P]|

   @DF-RHF iter   0:  -551.25895412787963   -5.51259e+02   5.70684e-04 
   @DF-RHF iter   1:  -551.20632915719079    5.26250e-02   9.23071e-05 
   @DF-RHF iter   2:  -551.20664714407496   -3.17987e-04   7.62414e-05 DIIS
   @DF-RHF iter   3:  -551.20686025355349   -2.13109e-04   1.24617e-05 DIIS
   @DF-RHF iter   4:  -551.20688715576375   -2.69022e-05   5.57822e-06 DIIS
   @DF-RHF iter   5:  -551.20690103901700   -1.38833e-05   4.30970e-06 DIIS
   @DF-RHF iter   6:  -551.20690703670482   -5.99769e-06   2.06452e-06 DIIS
   @DF-RHF iter   7:  -551.20690841535736   -1.37865e-06   7.89298e-07 DIIS
   @DF-RHF iter   8:  -551.20690853611700   -1.20760e-07   2.54445e-07 DIIS
   @DF-RHF iter   9:  -551.20690854539487   -9.27787e-09   1.03137e-07 DIIS
   @DF-RHF iter  10:  -551.20690854712689   -1.73202e-09   3.36084e-08 DIIS
   @DF-RHF iter  11:  -551.20690854737813   -2.51248e-10   1.72481e-08 DIIS
   @DF-RHF iter  12:  -551.20690854743793   -5.97993e-11   7.22568e-09 DIIS
   @DF-RHF iter  13:  -551.20690854744521   -7.27596e-12   3.48104e-09 DIIS
   @DF-RHF iter  14:  -551.20690854743077    1.44382e-11   1.14793e-09 DIIS
   @DF-RHF iter  15:  -551.20690854745078   -2.00089e-11   3.18167e-10 DIIS
   @DF-RHF iter  16:  -551.20690854743543    1.53477e-11   9.65804e-11 DIIS

  ==> Post-Iterations <==

    Orbital Energies (a.u.)
    -----------------------

    Doubly Occupied:                                                      

       1A    -20.418213     2A    -15.713079     3A    -11.366343  
       4A    -11.366267     5A    -11.316633     6A    -11.293049  
       7A    -11.292919     8A    -11.235697     9A    -11.219492  
      10A    -11.219446    11A    -11.203748    12A    -11.175982  
      13A    -11.175888    14A     -1.392008    15A     -1.247565  
      16A     -1.182398    17A     -1.121634    18A     -1.101902  
      19A     -0.990519    20A     -0.985922    21A     -0.944022  
      22A     -0.901435    23A     -0.846961    24A     -0.799887  
      25A     -0.778595    26A     -0.744825    27A     -0.723491  
      28A     -0.692074    29A     -0.683105    30A     -0.661901  
      31A     -0.618737    32A     -0.609551    33A     -0.599518  
      34A     -0.588071    35A     -0.556863    36A     -0.529052  
      37A     -0.497399    38A     -0.477347    39A     -0.472582  
      40A     -0.451789    41A     -0.428035    42A     -0.394141  
      43A     -0.329343    44A     -0.316453    45A     -0.221328  

    Virtual:                                                              

      46A     -0.012172    47A      0.008540    48A      0.012275  
      49A      0.021272    50A      0.032346    51A      0.038349  
      52A      0.039712    53A      0.050470    54A      0.051180  
      55A      0.052775    56A      0.062649    57A      0.067732  
      58A      0.070416    59A      0.070804    60A      0.078789  
      61A      0.088112    62A      0.090805    63A      0.101198  
      64A      0.102329    65A      0.106286    66A      0.114846  
      67A      0.119552    68A      0.122743    69A      0.125907  
      70A      0.126615    71A      0.128836    72A      0.132257  
      73A      0.133445    74A      0.139193    75A      0.148269  
      76A      0.152695    77A      0.153587    78A      0.159434  
      79A      0.164454    80A      0.165373    81A      0.166353  
      82A      0.177872    83A      0.180420    84A      0.183117  
      85A      0.187082    86A      0.193252    87A      0.194615  
      88A      0.195965    89A      0.205774    90A      0.206056  
      91A      0.207000    92A      0.216049    93A      0.217437  
      94A      0.224351    95A      0.227877    96A      0.235875  
      97A      0.236364    98A      0.246262    99A      0.250152  
     100A      0.252716   101A      0.256024   102A      0.258842  
     103A      0.264991   104A      0.265294   105A      0.273464  
     106A      0.273957   107A      0.275113   108A      0.286519  
     109A      0.292305   110A      0.293640   111A      0.294767  
     112A      0.303360   113A      0.308632   114A      0.312346  
     115A      0.315741   116A      0.317184   117A      0.325116  
     118A      0.328620   119A      0.331241   120A      0.331890  
     121A      0.342970   122A      0.344912   123A      0.346762  
     124A      0.351874   125A      0.352587   126A      0.363043  
     127A      0.366228   128A      0.367391   129A      0.371786  
     130A      0.374379   131A      0.375635   132A      0.378962  
     133A      0.386836   134A      0.392286   135A      0.400653  
     136A      0.401045   137A      0.413698   138A      0.416715  
     139A      0.421557   140A      0.423081   141A      0.425934  
     142A      0.432403   143A      0.434573   144A      0.439874  
     145A      0.441439   146A      0.450386   147A      0.457269  
     148A      0.458876   149A      0.462080   150A      0.465471  
     151A      0.469747   152A      0.472064   153A      0.474572  
     154A      0.478122   155A      0.481235   156A      0.482449  
     157A      0.488971   158A      0.491138   159A      0.492320  
     160A      0.497603   161A      0.498425   162A      0.503453  
     163A      0.507383   164A      0.509558   165A      0.516167  
     166A      0.517960   167A      0.526406   168A      0.528462  
     169A      0.532815   170A      0.537226   171A      0.546046  
     172A      0.549356   173A      0.558465   174A      0.559638  
     175A      0.564483   176A      0.570635   177A      0.575836  
     178A      0.576661   179A      0.581726   180A      0.590974  
     181A      0.595874   182A      0.600203   183A      0.604058  
     184A      0.604336   185A      0.608783   186A      0.616717  
     187A      0.624121   188A      0.638657   189A      0.640790  
     190A      0.645245   191A      0.654123   192A      0.663296  
     193A      0.667285   194A      0.668318   195A      0.669509  
     196A      0.680520   197A      0.682411   198A      0.692897  
     199A      0.693940   200A      0.700907   201A      0.702803  
     202A      0.712556   203A      0.718868   204A      0.719545  
     205A      0.721312   206A      0.728821   207A      0.730317  
     208A      0.741717   209A      0.750759   210A      0.753514  
     211A      0.753831   212A      0.754933   213A      0.762978  
     214A      0.766924   215A      0.773229   216A      0.782287  
     217A      0.792104   218A      0.795046   219A      0.804247  
     220A      0.811995   221A      0.819782   222A      0.822199  
     223A      0.834003   224A      0.838385   225A      0.843138  
     226A      0.855229   227A      0.866354   228A      0.869220  
     229A      0.875084   230A      0.875333   231A      0.878869  
     232A      0.885542   233A      0.894519   234A      0.899889  
     235A      0.901639   236A      0.908293   237A      0.911231  
     238A      0.913155   239A      0.917842   240A      0.918295  
     241A      0.922616   242A      0.924491   243A      0.926994  
     244A      0.932544   245A      0.933353   246A      0.938586  
     247A      0.944032   248A      0.948058   249A      0.957025  
     250A      0.963014   251A      0.963145   252A      0.979292  
     253A      0.979692   254A      0.983267   255A      0.986644  
     256A      0.995654   257A      1.002157   258A      1.008273  
     259A      1.009191   260A      1.019220   261A      1.020751  
     262A      1.024384   263A      1.026829   264A      1.034222  
     265A      1.035683   266A      1.037544   267A      1.045125  
     268A      1.047842   269A      1.050754   270A      1.055166  
     271A      1.059383   272A      1.068723   273A      1.080444  
     274A      1.084094   275A      1.085364   276A      1.089000  
     277A      1.091899   278A      1.098911   279A      1.099785  
     280A      1.106008   281A      1.111227   282A      1.115595  
     283A      1.116706   284A      1.117636   285A      1.128899  
     286A      1.129376   287A      1.134032   288A      1.141973  
     289A      1.145034   290A      1.152123   291A      1.153904  
     292A      1.162122   293A      1.168963   294A      1.178069  
     295A      1.181477   296A      1.190203   297A      1.194234  
     298A      1.198445   299A      1.200951   300A      1.202135  
     301A      1.212417   302A      1.215332   303A      1.226452  
     304A      1.230232   305A      1.231460   306A      1.232571  
     307A      1.246027   308A      1.248077   309A      1.253493  
     310A      1.260640   311A      1.261415   312A      1.265288  
     313A      1.270365   314A      1.275655   315A      1.282994  
     316A      1.289904   317A      1.302391   318A      1.307286  
     319A      1.315443   320A      1.318576   321A      1.319086  
[...]
      76A      0.151548    77A      0.156271    78A      0.160127  
      79A      0.161563    80A      0.166191    81A      0.167873  
      82A      0.169681    83A      0.177717    84A      0.179444  
      85A      0.183768    86A      0.190853    87A      0.191859  
      88A      0.197874    89A      0.206035    90A      0.208922  
      91A      0.213421    92A      0.218934    93A      0.221414  
      94A      0.225537    95A      0.226982    96A      0.230665  
      97A      0.236665    98A      0.247040    99A      0.249315  
     100A      0.253447   101A      0.256731   102A      0.262358  
     103A      0.264438   104A      0.266153   105A      0.271708  
     106A      0.281539   107A      0.286443   108A      0.290741  
     109A      0.292406   110A      0.294913   111A      0.296488  
     112A      0.304029   113A      0.305024   114A      0.310498  
     115A      0.316900   116A      0.324106   117A      0.325310  
     118A      0.330775   119A      0.332545   120A      0.335543  
     121A      0.340853   122A      0.345493   123A      0.348652  
     124A      0.355029   125A      0.355545   126A      0.360612  
     127A      0.361904   128A      0.363549   129A      0.371134  
     130A      0.373221   131A      0.382142   132A      0.387740  
     133A      0.389105   134A      0.395286   135A      0.402031  
     136A      0.408796   137A      0.414259   138A      0.419857  
     139A      0.423809   140A      0.427131   141A      0.434188  
     142A      0.437000   143A      0.439827   144A      0.443071  
     145A      0.446731   146A      0.451918   147A      0.455121  
     148A      0.458679   149A      0.466228   150A      0.467195  
     151A      0.469756   152A      0.475336   153A      0.477936  
     154A      0.481179   155A      0.481660   156A      0.485186  
     157A      0.487696   158A      0.487957   159A      0.493801  
     160A      0.497042   161A      0.501311   162A      0.505929  
     163A      0.510461   164A      0.515747   165A      0.520604  
     166A      0.523244   167A      0.528554   168A      0.530486  
     169A      0.533299   170A      0.535056   171A      0.538574  
     172A      0.542706   173A      0.544849   174A      0.551522  
     175A      0.560128   176A      0.565880   177A      0.569066  
     178A      0.573842   179A      0.580441   180A      0.584763  
     181A      0.587166   182A      0.598449   183A      0.603564  
     184A      0.608094   185A      0.609732   186A      0.617553  
     187A      0.623530   188A      0.641542   189A      0.646075  
     190A      0.648201   191A      0.655740   192A      0.657203  
     193A      0.666578   194A      0.669679   195A      0.677582  
     196A      0.683021   197A      0.689237   198A      0.694662  
     199A      0.698561   200A      0.699468   201A      0.702637  
     202A      0.708753   203A      0.710258   204A      0.721285  
     205A      0.727967   206A      0.738083   207A      0.740522  
     208A      0.747116   209A      0.748633   210A      0.753877  
     211A      0.759832   212A      0.764274   213A      0.767475  
     214A      0.776369   215A      0.779897   216A      0.789207  
     217A      0.790972   218A      0.797495   219A      0.805655  
     220A      0.815945   221A      0.819786   222A      0.828628  
     223A      0.829684   224A      0.847568   225A      0.854190  
     226A      0.857194   227A      0.861602   228A      0.865270  
     229A      0.870188   230A      0.875170   231A      0.877505  
     232A      0.884448   233A      0.891219   234A      0.893998  
     235A      0.896365   236A      0.901449   237A      0.902994  
     238A      0.913054   239A      0.916945   240A      0.920771  
     241A      0.927750   242A      0.929439   243A      0.929700  
     244A      0.935212   245A      0.937897   246A      0.946311  
     247A      0.951878   248A      0.954731   249A      0.958192  
     250A      0.963883   251A      0.969188   252A      0.977301  
     253A      0.979629   254A      0.991401   255A      0.995410  
     256A      0.997572   257A      1.004765   258A      1.010118  
     259A      1.012953   260A      1.019652   261A      1.021151  
     262A      1.024704   263A      1.028997   264A      1.031283  
     265A      1.038939   266A      1.041149   267A      1.043563  
     268A      1.047817   269A      1.052882   270A      1.056657  
     271A      1.059026   272A      1.062884   273A      1.074628  
     274A      1.076249   275A      1.083346   276A      1.086555  
     277A      1.090518   278A      1.098072   279A      1.102143  
     280A      1.106078   281A      1.110820   282A      1.114559  
     283A      1.119541   284A      1.125501   285A      1.127372  
     286A      1.130602   287A      1.132295   288A      1.141455  
     289A      1.146747   290A      1.148937   291A      1.158684  
     292A      1.160942   293A      1.169008   294A      1.172914  
     295A      1.178210   296A      1.183371   297A      1.185477  
     298A      1.187515   299A      1.192987   300A      1.200579  
     301A      1.204892   302A      1.217190   303A      1.219095  
     304A      1.222363   305A      1.224906   306A      1.232754  
     307A      1.237123   308A      1.239375   309A      1.250821  
     310A      1.254325   311A      1.260617   312A      1.269351  
     313A      1.276612   314A      1.279578   315A      1.281450  
     316A      1.287924   317A      1.299770   318A      1.305445  
     319A      1.312526   320A      1.313850   321A      1.318413  
     322A      1.320169   323A      1.333672   324A      1.346478  
     325A      1.349025   326A      1.360243   327A      1.361616  
     328A      1.368936   329A      1.369733   330A      1.378163  
     331A      1.388349   332A      1.395450   333A      1.399077  
     334A      1.408957   335A      1.410921   336A      1.424345  
     337A      1.431301   338A      1.442076   339A      1.444282  
     340A      1.451640   341A      1.456808   342A      1.467984  
     343A      1.468520   344A      1.476112   345A      1.482856  
     346A      1.494703   347A      1.497868   348A      1.504995  
     349A      1.514246   350A      1.516629   351A      1.526232  
     352A      1.538454   353A      1.546315   354A      1.553374  
     355A      1.555703   356A      1.563828   357A      1.569167  
     358A      1.580112   359A      1.601055   360A      1.602943  
     361A      1.613354   362A      1.623382   363A      1.625616  
     364A      1.635076   365A      1.639075   366A      1.648671  
     367A      1.657665   368A      1.677640   369A      1.682523  
     370A      1.685634   371A      1.692852   372A      1.699484  
     373A      1.704161   374A      1.714036   375A      1.714491  
     376A      1.724339   377A      1.728467   378A      1.735524  
     379A      1.746742   380A      1.758618   381A      1.767996  
     382A      1.775711   383A      1.790218   384A      1.798910  
     385A      1.807602   386A      1.808422   387A      1.821537  
     388A      1.825996   389A      1.833908   390A      1.839396  
     391A      1.848622   392A      1.851293   393A      1.860083  
     394A      1.863166   395A      1.878328   396A      1.890408  
     397A      1.905341   398A      1.909778   399A      1.914465  
     400A      1.924437   401A      1.927059   402A      1.935601  
     403A      1.938857   404A      1.953448   405A      1.964118  
     406A      1.966899   407A      1.976567   408A      1.985713  
     409A      1.995242   410A      2.004703   411A      2.006738  
     412A      2.010948   413A      2.016991   414A      2.020194  
     415A      2.028081   416A      2.036375   417A      2.041655  
     418A      2.045288   419A      2.059240   420A      2.068598  
     421A      2.074931   422A      2.080101   423A      2.086546  
     424A      2.093686   425A      2.106645   426A      2.120014  
     427A      2.124405   428A      2.139490   429A      2.147959  
     430A      2.150251   431A      2.157412   432A      2.162678  
     433A      2.170781   434A      2.185079   435A      2.197273  
     436A      2.201397   437A      2.205857   438A      2.208339  
     439A      2.219642   440A      2.246734   441A      2.251662  
     442A      2.263623   443A      2.272366   444A      2.276939  
     445A      2.287106   446A      2.304621   447A      2.308138  
     448A      2.327044   449A      2.334087   450A      2.341915  
     451A      2.350033   452A      2.359093   453A      2.365141  
     454A      2.386426   455A      2.388245   456A      2.391163  
     457A      2.405807   458A      2.410137   459A      2.424562  
     460A      2.430292   461A      2.441137   462A      2.455902  
     463A      2.458481   464A      2.476596   465A      2.481718  
     466A      2.484057   467A      2.495089   468A      2.511210  
     469A      2.517127   470A      2.542215   471A      2.546945  
     472A      2.551394   473A      2.559477   474A      2.576048  
     475A      2.580649   476A      2.593961   477A      2.620498  
     478A      2.632410   479A      2.639155   480A      2.640525  
     481A      2.651513   482A      2.675285   483A      2.691458  
     484A      2.697494   485A      2.719195   486A      2.728035  
     487A      2.744991   488A      2.747473   489A      2.751027  
     490A      2.770817   491A      2.781523   492A      2.788900  
     493A      2.808646   494A      2.836502   495A      2.850056  
     496A      2.861982   497A      2.870133   498A      2.898298  
     499A      2.917611   500A      2.941558   501A      2.961377  
     502A      2.993916   503A      3.012052   504A      3.029203  
     505A      3.058402   506A      3.071929   507A      3.101474  
     508A      3.113307   509A      3.117233   510A      3.129759  
     511A      3.156143   512A      3.167676   513A      3.192175  
     514A      3.205544   515A      3.220984   516A      3.229842  
     517A      3.241922   518A      3.259540   519A      3.290264  
     520A      3.293625   521A      3.319947   522A      3.326445  
     523A      3.346201   524A      3.363050   525A      3.365073  
     526A      3.372972   527A      3.386724   528A      3.398103  
     529A      3.405690   530A      3.411241   531A      3.417821  
     532A      3.439167   533A      3.440073   534A      3.458993  
     535A      3.469030   536A      3.490420   537A      3.495520  
     538A      3.502849   539A      3.506454   540A      3.509220  
     541A      3.531652   542A      3.532144   543A      3.541365  
     544A      3.547157   545A      3.555239   546A      3.561445  
     547A      3.565370   548A      3.575103   549A      3.586962  
     550A      3.589955   551A      3.602224   552A      3.605097  
     553A      3.617368   554A      3.633238   555A      3.636032  
     556A      3.652175   557A      3.655842   558A      3.660291  
     559A      3.671336   560A      3.677110   561A      3.685626  
     562A      3.693804   563A      3.716258   564A      3.733915  
     565A      3.738070   566A      3.740548   567A      3.743791  
     568A      3.753355   569A      3.768843   570A      3.778171  
     571A      3.786140   572A      3.790619   573A      3.792462  
     574A      3.808469   575A      3.829656   576A      3.837519  
     577A      3.845695   578A      3.852996   579A      3.862375  
     580A      3.873176   581A      3.877549   582A      3.891624  
     583A      3.900754   584A      3.915048   585A      3.917266  
     586A      3.935648   587A      3.943372   588A      3.951863  
     589A      3.952076   590A      3.966116   591A      3.980121  
     592A      3.988391   593A      3.990229   594A      4.001834  
     595A      4.003934   596A      4.011172   597A      4.019702  
     598A      4.031900   599A      4.041955   600A      4.051759  
     601A      4.063084   602A      4.068995   603A      4.082587  
     604A      4.086360   605A      4.093206   606A      4.100724  
     607A      4.108759   608A      4.114714   609A      4.140697  
     610A      4.149992   611A      4.157303   612A      4.168033  
     613A      4.181099   614A      4.183528   615A      4.190990  
     616A      4.198914   617A      4.202943   618A      4.210927  
     619A      4.227731   620A      4.235506   621A      4.246970  
     622A      4.249924   623A      4.260340   624A      4.267893  
     625A      4.282405   626A      4.288501   627A      4.293459  
     628A      4.308705   629A      4.310007   630A      4.317957  
     631A      4.320528   632A      4.339925   633A      4.350986  
     634A      4.361631   635A      4.368705   636A      4.372909  
     637A      4.391058   638A      4.395075   639A      4.407147  
     640A      4.409519   641A      4.417056   642A      4.424822  
     643A      4.427158   644A      4.440975   645A      4.449865  
     646A      4.464875   647A      4.478100   648A      4.481769  
     649A      4.490636   650A      4.502517   651A      4.506268  
     652A      4.519485   653A      4.521099   654A      4.529430  
     655A      4.545755   656A      4.553074   657A      4.568987  
     658A      4.580958   659A      4.594287   660A      4.611063  
     661A      4.633894   662A      4.649616   663A      4.665580  
     664A      4.675638   665A      4.704979   666A      4.708650  
     667A      4.723025   668A      4.728172   669A      4.748370  
     670A      4.763703   671A      4.780179   672A      4.792186  
     673A      4.806485   674A      4.807670   675A      4.818521  
     676A      4.837873   677A      4.850286   678A      4.856445  
     679A      4.880240   680A      4.889586   681A      4.925359  
     682A      4.929329   683A      4.950743   684A      4.954136  
     685A      4.969409   686A      4.974205   687A      4.992774  
     688A      4.999094   689A      5.034123   690A      5.051656  
     691A      5.057555   692A      5.073774   693A      5.077336  
     694A      5.089865   695A      5.090514   696A      5.108931  
     697A      5.114657   698A      5.122758   699A      5.133893  
     700A      5.139405   701A      5.141254   702A      5.151220  
     703A      5.168711   704A      5.172935   705A      5.183419  
     706A      5.202566   707A      5.218882   708A      5.228073  
     709A      5.235576   710A      5.243969   711A      5.248104  
     712A      5.262249   713A      5.296960   714A      5.306144  
     715A      5.323148   716A      5.343800   717A      5.352081  
     718A      5.367227   719A      5.402335   720A      5.419982  
     721A      5.433740   722A      5.438100   723A      5.468934  
     724A      5.472589   725A      5.492550   726A      5.493808  
     727A      5.522274   728A      5.537913   729A      5.555532  
     730A      5.578550   731A      5.602185   732A      5.613079  
     733A      5.643737   734A      5.671922   735A      5.707537  
     736A      5.730627   737A      5.743423   738A      5.747359  
     739A      5.773350   740A      5.779244   741A      5.819840  
     742A      5.829774   743A      5.833663   744A      5.852211  
     745A      5.889116   746A      5.922668   747A      5.967223  
     748A      5.992797   749A      6.059924   750A      6.077282  
     751A      6.097004   752A      6.108340   753A      6.133770  
     754A      6.159148   755A      6.187149   756A      6.218036  
     757A      6.292107   758A      6.320735   759A      6.336659  
     760A      6.362096   761A      6.472408   762A      6.491057  
     763A      6.557906   764A      6.576097   765A      6.593251  
     766A      6.636300   767A      6.653253   768A      6.676714  
     769A      6.715360   770A      6.748448   771A      6.770985  
     772A      6.814292   773A      6.834129   774A      6.921423  
     775A      6.925242   776A      6.979739   777A      6.997465  
     778A      7.054470   779A      7.067006   780A      7.083721  
     781A      7.110495   782A      7.160370   783A      7.226515  
     784A      7.456784   785A      7.495111   786A      7.543951  
     787A      7.696135   788A      7.777625   789A      7.797694  
     790A      7.874760   791A      7.981771   792A      8.065934  
     793A     15.817472   794A     16.424365   795A     16.575941  
     796A     16.705614   797A     16.956612   798A     18.704327  
     799A     18.823485   800A     19.533004   801A     19.656539  
     802A     19.867249   803A     20.251201   804A     20.529340  
     805A     21.729444  

    Final Occupation by Irrep:
              A 
    DOCC [    45 ]

  Energy converged.

  @DF-RHF Final Energy:  -551.22288418389269

   => Energetics <=

    Nuclear Repulsion Energy =            696.7221222801935028
    One-Electron Energy =               -2130.0001802622659852
    Two-Electron Energy =                 882.0551737981796805
    DFT Exchange-Correlation Energy =       0.0000000000000000
    Empirical Dispersion Energy =           0.0000000000000000
    PCM Polarization Energy =               0.0000000000000000
    EFP Energy =                            0.0000000000000000
    Total Energy =                       -551.2228841838926883



Properties will be evaluated at   0.000000,   0.000000,   0.000000 Bohr

Properties computed using the SCF density matrix

  Nuclear Dipole Moment: (a.u.)
     X:     6.0222      Y:    -3.2544      Z:    -3.4917

  Electronic Dipole Moment: (a.u.)
     X:    -0.9267      Y:     0.5157      Z:     0.4236

  Dipole Moment: (a.u.)
     X:     5.0955      Y:    -2.7387      Z:    -3.0680     Total:     6.5481

  Dipole Moment: (Debye)
     X:    12.9514      Y:    -6.9610      Z:    -7.7982     Total:    16.6435


*** tstop() called on gpu-2-11.local at Mon Nov 13 16:42:12 2017
Module time:
	user time   =     896.63 seconds =      14.94 minutes
	system time =      43.48 seconds =       0.72 minutes
	total time  =        365 seconds =       6.08 minutes
Total time:
	user time   =  189773.53 seconds =    3162.89 minutes
	system time =    4157.57 seconds =      69.29 minutes
	total time  =      86342 seconds =    1439.03 minutes

  //>>>>>>>>>>>>>>>>>>>>>>>>>>>>>>>>>>>//
  //               DFMP2               //
  //<<<<<<<<<<<<<<<<<<<<<<<<<<<<<<<<<<<//

   => Loading Basis Set <=

    Name: (AUG-CC-PVTZ AUX)
    Role: RIFIT
    Keyword: DF_BASIS_MP2
    atoms 1-11  entry C          line   147 file /cbio/jclab/home/chayas/anaconda/envs/py35/share/psi4/basis/aug-cc-pvtz-ri.gbs 
    atoms 12    entry N          line   205 file /cbio/jclab/home/chayas/anaconda/envs/py35/share/psi4/basis/aug-cc-pvtz-ri.gbs 
    atoms 13    entry O          line   263 file /cbio/jclab/home/chayas/anaconda/envs/py35/share/psi4/basis/aug-cc-pvtz-ri.gbs 
    atoms 14-22 entry H          line    29 file /cbio/jclab/home/chayas/anaconda/envs/py35/share/psi4/basis/aug-cc-pvtz-ri.gbs 

	 --------------------------------------------------------
	                          DF-MP2                         
	      2nd-Order Density-Fitted Moller-Plesset Theory     
	              RMP2 Wavefunction,   8 Threads             
	                                                         
	        Rob Parrish, Justin Turney, Andy Simmonett,      
	           Ed Hohenstein, and C. David Sherrill          
	 --------------------------------------------------------

   => Auxiliary Basis Set <=

  Basis Set: (AUG-CC-PVTZ AUX)
    Blend: AUG-CC-PVTZ-RI
    Number of shells: 490
    Number of basis function: 1792
    Number of Cartesian functions: 2263
    Spherical Harmonics?: true
    Max angular momentum: 4

	 --------------------------------------------------------
	                 NBF =   805, NAUX =  1792
	 --------------------------------------------------------
	   CLASS    FOCC     OCC    AOCC    AVIR     VIR    FVIR
	   PAIRS       0      45      45     760     760       0
	 --------------------------------------------------------

