
    -----------------------------------------------------------------------
          Psi4: An Open-Source Ab Initio Electronic Structure Package
                               Psi4 1.1 release

                         Git: Rev {HEAD} add49b9 


    R. M. Parrish, L. A. Burns, D. G. A. Smith, A. C. Simmonett,
    A. E. DePrince III, E. G. Hohenstein, U. Bozkaya, A. Yu. Sokolov,
    R. Di Remigio, R. M. Richard, J. F. Gonthier, A. M. James,
    H. R. McAlexander, A. Kumar, M. Saitow, X. Wang, B. P. Pritchard,
    P. Verma, H. F. Schaefer III, K. Patkowski, R. A. King, E. F. Valeev,
    F. A. Evangelista, J. M. Turney, T. D. Crawford, and C. D. Sherrill,
    J. Chem. Theory Comput. in press (2017).
    (doi: 10.1021/acs.jctc.7b00174)

    -----------------------------------------------------------------------


    Psi4 started on: Saturday, 11 November 2017 06:16PM

    Process ID:   9148
    PSIDATADIR: /cbio/jclab/home/chayas/anaconda/envs/py35/share/psi4
    Memory:     500.0 MiB
    Threads:    8
    
  ==> Input File <==

--------------------------------------------------------------------------

memory 5 Gb

molecule phepyrFOH_cation {
  symmetry C1
  1 1 
  C      1.885   -1.036   -0.112
  C      0.807   -0.463   0.561
  C      4.830   -1.443   -0.930
  C      4.321   -3.578   0.063
  C      1.800   -1.079   2.676
  C      5.894   -2.040   -1.592
  C      5.398   -4.120   -0.624
  C      2.921   -1.631   0.608
  C      4.038   -2.225   -0.095
  C      0.764   -0.484   1.955
  C      2.878   -1.652   2.002
  N      6.144   -3.345   -1.422
  O      -0.289   0.076   2.612
  F      3.866   -2.220   2.709
  H      1.904   -1.012   -1.199
  H      0.002   -0.002   -0.006
  H      4.632   -0.385   -1.072
  H      3.719   -4.212   0.708
  H      1.772   -1.099   3.762
  H      6.561   -1.511   -2.259
  H      5.691   -5.159   -0.561
  H      6.930   -3.764   -1.918
  H      -0.923   0.446   1.977
  units Angstrom
}

dih_string = "2 10 13 23 0.001"
set optking fixed_dihedral = $dih_string

optimize('MP2/aug-cc-PVTZ')
--------------------------------------------------------------------------

  Memory set to   4.657 GiB by Python driver.
gradient() will perform analytic gradient computation.

*** tstart() called on gpu-2-7.local
*** at Sat Nov 11 18:16:21 2017

    SCF Algorithm Type (re)set to DF.

*** tstart() called on gpu-2-7.local
*** at Sat Nov 11 18:16:21 2017

   => Loading Basis Set <=

    Name: AUG-CC-PVTZ
    Role: ORBITAL
    Keyword: BASIS
    atoms 1-11  entry C          line   221 file /cbio/jclab/home/chayas/anaconda/envs/py35/share/psi4/basis/aug-cc-pvtz.gbs 
    atoms 12    entry N          line   267 file /cbio/jclab/home/chayas/anaconda/envs/py35/share/psi4/basis/aug-cc-pvtz.gbs 
    atoms 13    entry O          line   313 file /cbio/jclab/home/chayas/anaconda/envs/py35/share/psi4/basis/aug-cc-pvtz.gbs 
    atoms 14    entry F          line   359 file /cbio/jclab/home/chayas/anaconda/envs/py35/share/psi4/basis/aug-cc-pvtz.gbs 
    atoms 15-23 entry H          line    34 file /cbio/jclab/home/chayas/anaconda/envs/py35/share/psi4/basis/aug-cc-pvtz.gbs 


         ---------------------------------------------------------
                                   SCF
            by Justin Turney, Rob Parrish, and Andy Simmonett
                              RHF Reference
                        8 Threads,   4768 MiB Core
         ---------------------------------------------------------

  ==> Geometry <==

    Molecular point group: c1
    Full point group: C1

    Geometry (in Angstrom), charge = 1, multiplicity = 1:

       Center              X                  Y                   Z               Mass       
    ------------   -----------------  -----------------  -----------------  -----------------
           C         -1.333958453725     0.761482547053    -0.779684014383    12.000000000000
           C         -2.411958453725     1.334482547053    -0.106684014383    12.000000000000
           C          1.611041546275     0.354482547053    -1.597684014383    12.000000000000
           C          1.102041546275    -1.780517452947    -0.604684014383    12.000000000000
           C         -1.418958453725     0.718482547053     2.008315985617    12.000000000000
           C          2.675041546275    -0.242517452947    -2.259684014383    12.000000000000
           C          2.179041546275    -2.322517452947    -1.291684014383    12.000000000000
           C         -0.297958453725     0.166482547053    -0.059684014383    12.000000000000
           C          0.819041546275    -0.427517452947    -0.762684014383    12.000000000000
           C         -2.454958453725     1.313482547053     1.287315985617    12.000000000000
           C         -0.340958453725     0.145482547053     1.334315985617    12.000000000000
           N          2.925041546275    -1.547517452947    -2.089684014383    14.003074004780
           O         -3.507958453725     1.873482547053     1.944315985617    15.994914619560
           F          0.647041546275    -0.422517452947     2.041315985617    18.998403224000
           H         -1.314958453725     0.785482547053    -1.866684014383     1.007825032070
           H         -3.216958453725     1.795482547053    -0.673684014383     1.007825032070
           H          1.413041546275     1.412482547053    -1.739684014383     1.007825032070
           H          0.500041546275    -2.414517452947     0.040315985617     1.007825032070
           H         -1.446958453725     0.698482547053     3.094315985617     1.007825032070
           H          3.342041546275     0.286482547053    -2.926684014383     1.007825032070
           H          2.472041546275    -3.361517452947    -1.228684014383     1.007825032070
           H          3.711041546275    -1.966517452947    -2.585684014383     1.007825032070
           H         -4.141958453725     2.243482547053     1.309315985617     1.007825032070

  Running in c1 symmetry.

  Rotational constants: A =      0.06266  B =      0.01289  C =      0.01149 [cm^-1]
  Rotational constants: A =   1878.47368  B =    386.43810  C =    344.60320 [MHz]
  Nuclear repulsion =  829.326101493370402

  Charge       = 1
  Multiplicity = 1
  Electrons    = 98
  Nalpha       = 49
  Nbeta        = 49

  ==> Algorithm <==

  SCF Algorithm Type is DF.
  DIIS enabled.
  MOM disabled.
  Fractional occupation disabled.
  Guess Type is SAD.
  Energy threshold   = 1.00e-10
  Density threshold  = 1.00e-10
  Integral threshold = 0.00e+00

  ==> Primary Basis <==

  Basis Set: AUG-CC-PVTZ
    Blend: AUG-CC-PVTZ
    Number of shells: 277
    Number of basis function: 851
    Number of Cartesian functions: 995
    Spherical Harmonics?: true
    Max angular momentum: 3

   => Loading Basis Set <=

    Name: (AUG-CC-PVTZ AUX)
    Role: JKFIT
    Keyword: DF_BASIS_SCF
    atoms 1-11  entry C          line   161 file /cbio/jclab/home/chayas/anaconda/envs/py35/share/psi4/basis/aug-cc-pvtz-jkfit.gbs 
    atoms 12    entry N          line   223 file /cbio/jclab/home/chayas/anaconda/envs/py35/share/psi4/basis/aug-cc-pvtz-jkfit.gbs 
    atoms 13    entry O          line   285 file /cbio/jclab/home/chayas/anaconda/envs/py35/share/psi4/basis/aug-cc-pvtz-jkfit.gbs 
    atoms 14    entry F          line   347 file /cbio/jclab/home/chayas/anaconda/envs/py35/share/psi4/basis/aug-cc-pvtz-jkfit.gbs 
    atoms 15-23 entry H          line    69 file /cbio/jclab/home/chayas/anaconda/envs/py35/share/psi4/basis/aug-cc-pvtz-jkfit.gbs 

  ==> Pre-Iterations <==

   -------------------------------------------------------
    Irrep   Nso     Nmo     Nalpha   Nbeta   Ndocc  Nsocc
   -------------------------------------------------------
     A        851     851       0       0       0       0
   -------------------------------------------------------
    Total     851     851      49      49      49       0
   -------------------------------------------------------

  ==> Integral Setup <==

  ==> DFJK: Density-Fitted J/K Matrices <==

    J tasked:                  Yes
    K tasked:                  Yes
    wK tasked:                  No
    OpenMP threads:              8
    Integrals threads:           8
    Memory (MB):              3576
    Algorithm:                Disk
    Integral Cache:           NONE
    Schwarz Cutoff:          1E-12
    Fitting Condition:       1E-12

   => Auxiliary Basis Set <=

  Basis Set: (AUG-CC-PVTZ AUX)
    Blend: AUG-CC-PVTZ-JKFIT
    Number of shells: 546
    Number of basis function: 1870
    Number of Cartesian functions: 2329
    Spherical Harmonics?: true
    Max angular momentum: 4

  Minimum eigenvalue in the overlap matrix is 6.5866034697E-07.
  Using Symmetric Orthogonalization.

  SCF Guess: Superposition of Atomic Densities via on-the-fly atomic UHF.

  ==> Iterations <==

                           Total Energy        Delta E     RMS |[F,P]|

   @DF-RHF iter   0:  -654.19453384332019   -6.54195e+02   2.36877e-02 
   @DF-RHF iter   1:  -650.16514426796346    4.02939e+00   2.10347e-03 
   @DF-RHF iter   2:  -650.47430430714644   -3.09160e-01   1.16770e-03 DIIS
   @DF-RHF iter   3:  -650.54088743886109   -6.65831e-02   4.43886e-04 DIIS
   @DF-RHF iter   4:  -650.55680927363039   -1.59218e-02   1.10914e-04 DIIS
   @DF-RHF iter   5:  -650.55891708331683   -2.10781e-03   5.17634e-05 DIIS
   @DF-RHF iter   6:  -650.55935272394470   -4.35641e-04   2.23704e-05 DIIS
   @DF-RHF iter   7:  -650.55941582043874   -6.30965e-05   6.91468e-06 DIIS
   @DF-RHF iter   8:  -650.55942188106724   -6.06063e-06   1.90743e-06 DIIS
   @DF-RHF iter   9:  -650.55942260961376   -7.28547e-07   8.87928e-07 DIIS
   @DF-RHF iter  10:  -650.55942275271582   -1.43102e-07   3.29549e-07 DIIS
   @DF-RHF iter  11:  -650.55942278455007   -3.18342e-08   1.24530e-07 DIIS
   @DF-RHF iter  12:  -650.55942278912607   -4.57601e-09   5.44789e-08 DIIS
   @DF-RHF iter  13:  -650.55942278987698   -7.50902e-10   2.88990e-08 DIIS
   @DF-RHF iter  14:  -650.55942279011424   -2.37264e-10   8.40277e-09 DIIS
   @DF-RHF iter  15:  -650.55942279013163   -1.73941e-11   3.10248e-09 DIIS
   @DF-RHF iter  16:  -650.55942279013277   -1.13687e-12   1.14159e-09 DIIS
   @DF-RHF iter  17:  -650.55942279011583    1.69393e-11   4.17066e-10 DIIS
   @DF-RHF iter  18:  -650.55942279012743   -1.15961e-11   2.06647e-10 DIIS
   @DF-RHF iter  19:  -650.55942279009969    2.77396e-11   9.24561e-11 DIIS

  ==> Post-Iterations <==

    Orbital Energies (a.u.)
    -----------------------

    Doubly Occupied:                                                      

       1A    -26.442841     2A    -20.704876     3A    -15.843564  
       4A    -11.490238     5A    -11.488610     6A    -11.468119  
       7A    -11.451727     8A    -11.438218     9A    -11.421975  
      10A    -11.420610    11A    -11.386056    12A    -11.378192  
      13A    -11.357958    14A    -11.357561    15A     -1.760831  
      16A     -1.519549    17A     -1.518787    18A     -1.325346  
      19A     -1.270911    20A     -1.242844    21A     -1.163996  
      22A     -1.151799    23A     -1.072856    24A     -1.061652  
      25A     -0.986631    26A     -0.971088    27A     -0.965889  
      28A     -0.890439    29A     -0.878453    30A     -0.868004  
      31A     -0.836438    32A     -0.827599    33A     -0.821700  
      34A     -0.802353    35A     -0.798568    36A     -0.780711  
      37A     -0.768279    38A     -0.747057    39A     -0.724937  
      40A     -0.716173    41A     -0.705078    42A     -0.686798  
      43A     -0.666774    44A     -0.635010    45A     -0.619229  
      46A     -0.578350    47A     -0.540581    48A     -0.469699  
      49A     -0.446824  

    Virtual:                                                              

      50A     -0.105382    51A     -0.086773    52A     -0.067264  
      53A     -0.063541    54A     -0.059218    55A     -0.050260  
      56A     -0.043928    57A     -0.039255    58A     -0.033914  
      59A     -0.030190    60A     -0.023833    61A     -0.019152  
      62A     -0.012712    63A     -0.008408    64A     -0.007039  
      65A     -0.002790    66A     -0.000049    67A      0.008612  
      68A      0.009339    69A      0.013335    70A      0.015290  
      71A      0.018565    72A      0.024707    73A      0.028141  
      74A      0.028246    75A      0.033486    76A      0.034746  
      77A      0.036723    78A      0.039617    79A      0.044220  
      80A      0.045730    81A      0.050667    82A      0.053359  
      83A      0.061871    84A      0.064186    85A      0.069171  
      86A      0.071922    87A      0.076382    88A      0.078714  
      89A      0.084138    90A      0.088840    91A      0.093072  
      92A      0.095920    93A      0.101448    94A      0.106881  
      95A      0.111204    96A      0.117690    97A      0.118495  
      98A      0.123744    99A      0.130453   100A      0.133640  
     101A      0.135577   102A      0.136185   103A      0.140338  
     104A      0.144167   105A      0.148678   106A      0.158023  
     107A      0.158700   108A      0.161435   109A      0.164077  
     110A      0.167095   111A      0.170505   112A      0.171781  
     113A      0.174009   114A      0.180564   115A      0.182640  
     116A      0.186737   117A      0.194149   118A      0.196339  
     119A      0.198883   120A      0.206560   121A      0.208854  
     122A      0.211217   123A      0.215328   124A      0.221163  
     125A      0.224729   126A      0.226077   127A      0.229337  
     128A      0.233325   129A      0.238589   130A      0.240093  
     131A      0.244822   132A      0.249171   133A      0.251790  
     134A      0.255485   135A      0.258923   136A      0.266121  
     137A      0.269080   138A      0.276303   139A      0.281210  
     140A      0.281315   141A      0.283853   142A      0.293317  
     143A      0.300393   144A      0.301858   145A      0.304549  
     146A      0.308558   147A      0.313605   148A      0.316696  
     149A      0.320197   150A      0.322414   151A      0.328399  
     152A      0.331316   153A      0.331669   154A      0.336637  
     155A      0.338966   156A      0.340389   157A      0.345468  
     158A      0.350605   159A      0.350885   160A      0.353942  
     161A      0.359495   162A      0.367466   163A      0.369215  
     164A      0.369622   165A      0.374611   166A      0.375571  
     167A      0.380126   168A      0.382502   169A      0.386914  
     170A      0.393048   171A      0.396959   172A      0.400382  
     173A      0.401246   174A      0.404088   175A      0.408155  
     176A      0.413462   177A      0.414623   178A      0.421500  
     179A      0.424084   180A      0.426632   181A      0.429341  
     182A      0.434981   183A      0.441134   184A      0.446004  
     185A      0.448769   186A      0.452971   187A      0.459273  
     188A      0.468263   189A      0.471786   190A      0.477570  
     191A      0.479132   192A      0.486528   193A      0.488285  
     194A      0.493744   195A      0.506236   196A      0.509495  
     197A      0.516627   198A      0.522176   199A      0.525051  
     200A      0.533746   201A      0.539098   202A      0.544931  
     203A      0.556016   204A      0.561249   205A      0.564693  
     206A      0.566806   207A      0.571459   208A      0.576066  
     209A      0.579017   210A      0.590493   211A      0.597619  
     212A      0.598858   213A      0.603305   214A      0.605112  
     215A      0.611583   216A      0.613900   217A      0.618960  
     218A      0.621694   219A      0.625511   220A      0.629971  
     221A      0.633509   222A      0.643101   223A      0.652845  
     224A      0.664109   225A      0.667532   226A      0.674824  
     227A      0.683833   228A      0.690646   229A      0.695313  
     230A      0.700097   231A      0.703394   232A      0.708460  
     233A      0.711077   234A      0.720224   235A      0.725752  
     236A      0.730952   237A      0.734992   238A      0.740715  
     239A      0.744533   240A      0.747609   241A      0.752211  
     242A      0.757886   243A      0.765356   244A      0.769379  
     245A      0.769444   246A      0.773344   247A      0.778888  
     248A      0.782526   249A      0.784184   250A      0.793687  
     251A      0.796464   252A      0.798824   253A      0.802429  
     254A      0.808346   255A      0.814329   256A      0.816270  
     257A      0.819855   258A      0.826427   259A      0.828629  
     260A      0.838257   261A      0.843163   262A      0.846858  
     263A      0.848466   264A      0.854951   265A      0.859813  
     266A      0.867832   267A      0.874054   268A      0.875944  
     269A      0.882430   270A      0.884885   271A      0.891718  
     272A      0.897480   273A      0.903912   274A      0.905185  
     275A      0.911262   276A      0.915415   277A      0.921655  
     278A      0.926645   279A      0.928960   280A      0.932960  
     281A      0.938761   282A      0.941176   283A      0.943786  
     284A      0.948361   285A      0.950225   286A      0.959591  
     287A      0.965647   288A      0.966931   289A      0.973026  
     290A      0.977632   291A      0.981995   292A      0.986521  
     293A      0.989280   294A      0.991976   295A      0.993371  
     296A      0.999044   297A      1.004388   298A      1.010642  
     299A      1.014617   300A      1.017417   301A      1.022812  
     302A      1.026930   303A      1.027718   304A      1.035467  
     305A      1.043939   306A      1.047910   307A      1.056140  
     308A      1.060185   309A      1.067710   310A      1.070962  
     311A      1.077019   312A      1.079259   313A      1.082468  
     314A      1.087746   315A      1.089766   316A      1.097801  
     317A      1.105760   318A      1.115022   319A      1.117911  
     320A      1.121868   321A      1.124909   322A      1.132454  
     323A      1.136825   324A      1.138872   325A      1.144141  
     326A      1.150358   327A      1.156122   328A      1.163075  
     329A      1.169077   330A      1.181177   331A      1.186528  
     332A      1.192574   333A      1.197511   334A      1.200450  
     335A      1.217452   336A      1.218150   337A      1.224324  
     338A      1.231457   339A      1.238079   340A      1.245368  
     341A      1.251295   342A      1.256306   343A      1.261633  
     344A      1.272231   345A      1.275327   346A      1.280496  
     347A      1.280678   348A      1.293687   349A      1.295705  
     350A      1.305890   351A      1.310925   352A      1.317182  
     353A      1.319400   354A      1.331615   355A      1.337628  
     356A      1.342912   357A      1.356070   358A      1.364798  
     359A      1.367343   360A      1.373560   361A      1.379234  
     362A      1.385231   363A      1.392502   364A      1.397511  
     365A      1.405910   366A      1.408013   367A      1.420092  
     368A      1.425902   369A      1.428580   370A      1.437992  
     371A      1.446606   372A      1.451614   373A      1.461863  
     374A      1.464574   375A      1.479725   376A      1.486677  
     377A      1.495618   378A      1.500299   379A      1.502583  
     380A      1.507355   381A      1.517960   382A      1.520351  
     383A      1.527125   384A      1.532445   385A      1.537101  
     386A      1.541525   387A      1.555351   388A      1.560725  
     389A      1.566411   390A      1.579263   391A      1.589124  
     392A      1.596302   393A      1.601146   394A      1.614141  
     395A      1.623673   396A      1.629711   397A      1.644147  
     398A      1.647376   399A      1.651628   400A      1.658837  
     401A      1.673596   402A      1.675564   403A      1.683314  
     404A      1.687710   405A      1.691483   406A      1.703189  
     407A      1.714652   408A      1.724578   409A      1.728007  
     410A      1.733644   411A      1.742075   412A      1.746508  
     413A      1.756592   414A      1.766604   415A      1.770281  
     416A      1.781312   417A      1.792370   418A      1.793838  
     419A      1.800732   420A      1.807384   421A      1.816435  
     422A      1.824047   423A      1.824634   424A      1.834640  
     425A      1.842316   426A      1.851595   427A      1.860089  
     428A      1.864768   429A      1.875046   430A      1.883443  
     431A      1.890599   432A      1.899633   433A      1.904217  
     434A      1.910032   435A      1.919069   436A      1.923232  
     437A      1.932114   438A      1.935474   439A      1.948742  
     440A      1.953235   441A      1.969092   442A      1.970778  
     443A      1.978354   444A      1.984651   445A      1.993611  
     446A      2.006919   447A      2.018373   448A      2.024782  
     449A      2.037252   450A      2.047687   451A      2.049232  
     452A      2.055324   453A      2.062232   454A      2.064790  
     455A      2.074174   456A      2.082519   457A      2.088661  
     458A      2.092851   459A      2.118981   460A      2.127009  
     461A      2.133105   462A      2.137847   463A      2.159166  
     464A      2.169196   465A      2.179374   466A      2.182522  
     467A      2.197299   468A      2.209293   469A      2.218496  
     470A      2.225573   471A      2.232507   472A      2.239098  
     473A      2.255280   474A      2.267956   475A      2.270487  
     476A      2.280659   477A      2.292079   478A      2.302333  
     479A      2.303543   480A      2.314400   481A      2.332191  
     482A      2.340533   483A      2.351270   484A      2.362993  
     485A      2.375479   486A      2.385195   487A      2.399009  
     488A      2.404365   489A      2.410028   490A      2.414045  
     491A      2.433697   492A      2.445530   493A      2.460990  
     494A      2.479943   495A      2.488524   496A      2.491358  
     497A      2.510231   498A      2.531704   499A      2.535718  
     500A      2.541668   501A      2.565441   502A      2.572111  
     503A      2.577818   504A      2.596781   505A      2.604280  
     506A      2.626141   507A      2.631622   508A      2.637474  
     509A      2.656420   510A      2.702451   511A      2.719531  
     512A      2.723995   513A      2.746893   514A      2.753979  
     515A      2.767539   516A      2.790192   517A      2.802113  
     518A      2.813287   519A      2.843577   520A      2.854518  
     521A      2.911196   522A      2.923112   523A      2.931823  
     524A      2.944854   525A      2.956705   526A      2.968867  
     527A      2.978570   528A      2.983134   529A      2.998643  
     530A      3.002504   531A      3.029309   532A      3.038419  
     533A      3.047581   534A      3.055021   535A      3.080055  
     536A      3.084724   537A      3.099221   538A      3.113089  
     539A      3.121549   540A      3.137702   541A      3.148418  
     542A      3.155241   543A      3.167128   544A      3.176508  
     545A      3.191200   546A      3.198512   547A      3.216898  
     548A      3.221226   549A      3.233899   550A      3.243669  
     551A      3.254691   552A      3.267141   553A      3.271389  
     554A      3.283655   555A      3.287508   556A      3.303590  
     557A      3.311952   558A      3.320497   559A      3.327583  
     560A      3.343662   561A      3.355792   562A      3.359515  
     563A      3.367721   564A      3.374732   565A      3.380080  
     566A      3.383602   567A      3.392849   568A      3.402542  
     569A      3.412688   570A      3.420327   571A      3.427755  
     572A      3.437600   573A      3.443458   574A      3.456380  
     575A      3.460619   576A      3.469794   577A      3.486590  
     578A      3.492926   579A      3.506775   580A      3.512262  
     581A      3.514339   582A      3.537688   583A      3.548984  
     584A      3.549316   585A      3.559674   586A      3.562029  
     587A      3.575013   588A      3.584129   589A      3.589727  
     590A      3.603988   591A      3.612830   592A      3.619655  
     593A      3.628310   594A      3.643927   595A      3.649472  
     596A      3.657005   597A      3.661913   598A      3.680420  
     599A      3.686725   600A      3.690803   601A      3.707384  
     602A      3.708417   603A      3.714926   604A      3.718335  
     605A      3.728557   606A      3.736306   607A      3.747315  
     608A      3.750980   609A      3.768453   610A      3.769814  
     611A      3.778155   612A      3.786871   613A      3.789417  
     614A      3.806716   615A      3.812588   616A      3.820842  
     617A      3.827660   618A      3.838079   619A      3.847949  
     620A      3.855891   621A      3.862385   622A      3.869590  
     623A      3.879387   624A      3.884599   625A      3.892190  
     626A      3.898581   627A      3.906176   628A      3.927050  
     629A      3.933318   630A      3.947558   631A      3.951146  
     632A      3.962593   633A      3.970809   634A      3.989238  
     635A      3.990130   636A      3.996408   637A      4.004054  
     638A      4.014777   639A      4.017118   640A      4.030481  
     641A      4.038564   642A      4.047187   643A      4.059921  
     644A      4.066266   645A      4.076955   646A      4.079706  
     647A      4.084744   648A      4.101062   649A      4.106237  
     650A      4.114763   651A      4.134171   652A      4.144491  
     653A      4.155074   654A      4.156485   655A      4.174735  
     656A      4.177292   657A      4.186478   658A      4.205058  
     659A      4.210435   660A      4.214870   661A      4.221821  
     662A      4.225402   663A      4.233056   664A      4.241609  
     665A      4.249921   666A      4.257861   667A      4.262362  
     668A      4.278923   669A      4.282861   670A      4.286848  
     671A      4.292663   672A      4.302903   673A      4.306814  
     674A      4.316230   675A      4.329500   676A      4.333089  
     677A      4.348953   678A      4.363994   679A      4.368119  
     680A      4.379603   681A      4.390068   682A      4.412658  
     683A      4.417168   684A      4.433071   685A      4.434113  
     686A      4.448604   687A      4.453334   688A      4.459979  
     689A      4.477658   690A      4.486943   691A      4.493779  
     692A      4.508125   693A      4.530919   694A      4.569478  
     695A      4.573690   696A      4.583458   697A      4.590229  
     698A      4.604589   699A      4.622038   700A      4.624700  
     701A      4.631402   702A      4.637908   703A      4.652680  
     704A      4.677359   705A      4.680998   706A      4.701130  
     707A      4.716490   708A      4.734572   709A      4.745653  
     710A      4.757503   711A      4.759960   712A      4.780696  
     713A      4.788662   714A      4.811073   715A      4.813202  
     716A      4.821021   717A      4.830118   718A      4.841870  
     719A      4.847815   720A      4.855011   721A      4.886392  
     722A      4.895655   723A      4.914679   724A      4.923017  
     725A      4.927952   726A      4.935226   727A      4.938092  
     728A      4.951980   729A      4.968521   730A      4.992030  
     731A      4.997737   732A      5.015462   733A      5.024440  
     734A      5.030233   735A      5.040391   736A      5.051773  
     737A      5.059099   738A      5.072562   739A      5.086638  
     740A      5.093783   741A      5.111548   742A      5.156455  
     743A      5.165547   744A      5.175564   745A      5.189839  
     746A      5.191964   747A      5.204250   748A      5.209288  
     749A      5.239902   750A      5.249512   751A      5.265726  
     752A      5.270433   753A      5.315565   754A      5.328018  
     755A      5.338087   756A      5.356324   757A      5.377533  
     758A      5.382104   759A      5.385747   760A      5.411497  
     761A      5.443083   762A      5.477921   763A      5.489631  
     764A      5.509116   765A      5.531362   766A      5.551507  
     767A      5.562303   768A      5.589890   769A      5.605300  
     770A      5.625680   771A      5.648705   772A      5.660530  
     773A      5.682555   774A      5.693874   775A      5.725950  
     776A      5.760810   777A      5.781681   778A      5.831651  
     779A      5.840015   780A      5.881165   781A      5.916909  
     782A      5.933300   783A      5.974239   784A      5.981479  
     785A      6.010803   786A      6.056382   787A      6.093214  
     788A      6.142212   789A      6.151884   790A      6.181959  
     791A      6.213604   792A      6.256795   793A      6.269563  
     794A      6.338193   795A      6.350416   796A      6.406688  
     797A      6.428525   798A      6.465507   799A      6.513945  
     800A      6.559385   801A      6.601042   802A      6.613814  
     803A      6.651713   804A      6.736613   805A      6.744862  
     806A      6.793221   807A      6.826026   808A      6.836971  
     809A      6.899014   810A      6.909739   811A      6.941490  
     812A      6.968400   813A      7.071141   814A      7.158888  
     815A      7.291584   816A      7.321300   817A      7.358013  
     818A      7.446419   819A      7.539695   820A      7.586771  
     821A      7.590428   822A      7.655138   823A      7.907141  
     824A      8.286910   825A      8.531439   826A      8.889405  
     827A      8.930731   828A      9.154398   829A      9.172245  
     830A      9.290665   831A      9.403705   832A      9.424083  
     833A      9.477063   834A      9.530367   835A      9.599265  
     836A      9.918375   837A      9.964428   838A     15.842854  
     839A     16.076253   840A     16.431717   841A     16.474419  
     842A     16.815266   843A     16.898534   844A     18.722463  
     845A     19.123781   846A     19.443793   847A     19.603906  
     848A     20.039190   849A     20.145595   850A     20.386387  
     851A     21.715284  

    Final Occupation by Irrep:
              A 
    DOCC [    49 ]

  Energy converged.

  @DF-RHF Final Energy:  -650.55942279009969

   => Energetics <=

    Nuclear Repulsion Energy =            829.3261014933704018
    One-Electron Energy =               -2518.8274912886599850
    Two-Electron Energy =                1038.9419670051897810
    DFT Exchange-Correlation Energy =       0.0000000000000000
    Empirical Dispersion Energy =           0.0000000000000000
    PCM Polarization Energy =               0.0000000000000000
    EFP Energy =                            0.0000000000000000
    Total Energy =                       -650.5594227900996884



Properties will be evaluated at   0.000000,   0.000000,   0.000000 Bohr

Properties computed using the SCF density matrix

  Nuclear Dipole Moment: (a.u.)
     X:     0.5993      Y:    -0.0760      Z:    -8.0762

  Electronic Dipole Moment: (a.u.)
     X:     1.9609      Y:    -1.2443      Z:     4.7769

  Dipole Moment: (a.u.)
     X:     2.5601      Y:    -1.3203      Z:    -3.2992     Total:     4.3798

  Dipole Moment: (Debye)
     X:     6.5072      Y:    -3.3559      Z:    -8.3858     Total:    11.1323


*** tstop() called on gpu-2-7.local at Sat Nov 11 18:25:33 2017
Module time:
	user time   =    1429.36 seconds =      23.82 minutes
	system time =      52.20 seconds =       0.87 minutes
	total time  =        552 seconds =       9.20 minutes
Total time:
	user time   =    1429.36 seconds =      23.82 minutes
	system time =      52.20 seconds =       0.87 minutes
	total time  =        552 seconds =       9.20 minutes

  //>>>>>>>>>>>>>>>>>>>>>>>>>>>>>>>>>>>//
  //               DFMP2               //
  //<<<<<<<<<<<<<<<<<<<<<<<<<<<<<<<<<<<//

   => Loading Basis Set <=

    Name: (AUG-CC-PVTZ AUX)
    Role: RIFIT
    Keyword: DF_BASIS_MP2
    atoms 1-11  entry C          line   147 file /cbio/jclab/home/chayas/anaconda/envs/py35/share/psi4/basis/aug-cc-pvtz-ri.gbs 
    atoms 12    entry N          line   205 file /cbio/jclab/home/chayas/anaconda/envs/py35/share/psi4/basis/aug-cc-pvtz-ri.gbs 
    atoms 13    entry O          line   263 file /cbio/jclab/home/chayas/anaconda/envs/py35/share/psi4/basis/aug-cc-pvtz-ri.gbs 
    atoms 14    entry F          line   321 file /cbio/jclab/home/chayas/anaconda/envs/py35/share/psi4/basis/aug-cc-pvtz-ri.gbs 
    atoms 15-23 entry H          line    29 file /cbio/jclab/home/chayas/anaconda/envs/py35/share/psi4/basis/aug-cc-pvtz-ri.gbs 

	 --------------------------------------------------------
	                          DF-MP2                         
	      2nd-Order Density-Fitted Moller-Plesset Theory     
	              RMP2 Wavefunction,   8 Threads             
	                                                         
	        Rob Parrish, Justin Turney, Andy Simmonett,      
	           Ed Hohenstein, and C. David Sherrill          
	 --------------------------------------------------------

   => Auxiliary Basis Set <=

  Basis Set: (AUG-CC-PVTZ AUX)
    Blend: AUG-CC-PVTZ-RI
    Number of shells: 518
    Number of basis function: 1898
    Number of Cartesian functions: 2399
    Spherical Harmonics?: true
    Max angular momentum: 4

	 --------------------------------------------------------
	                 NBF =   851, NAUX =  1898
	 --------------------------------------------------------
	   CLASS    FOCC     OCC    AOCC    AVIR     VIR    FVIR
	   PAIRS       0      49      49     802     802       0
	 --------------------------------------------------------


         ------------------------------------------------------------
                                     CPHF                           
                                  Rob Parrish                       
         ------------------------------------------------------------

  ==> Geometry <==

    Molecular point group: c1
    Full point group: C1

    Geometry (in Angstrom), charge = 1, multiplicity = 1:

       Center              X                  Y                   Z               Mass       
    ------------   -----------------  -----------------  -----------------  -----------------
           C         -1.333958453725     0.761482547053    -0.779684014383    12.000000000000
           C         -2.411958453725     1.334482547053    -0.106684014383    12.000000000000
           C          1.611041546275     0.354482547053    -1.597684014383    12.000000000000
           C          1.102041546275    -1.780517452947    -0.604684014383    12.000000000000
           C         -1.418958453725     0.718482547053     2.008315985617    12.000000000000
           C          2.675041546275    -0.242517452947    -2.259684014383    12.000000000000
           C          2.179041546275    -2.322517452947    -1.291684014383    12.000000000000
           C         -0.297958453725     0.166482547053    -0.059684014383    12.000000000000
           C          0.819041546275    -0.427517452947    -0.762684014383    12.000000000000
           C         -2.454958453725     1.313482547053     1.287315985617    12.000000000000
           C         -0.340958453725     0.145482547053     1.334315985617    12.000000000000
           N          2.925041546275    -1.547517452947    -2.089684014383    14.003074004780
           O         -3.507958453725     1.873482547053     1.944315985617    15.994914619560
           F          0.647041546275    -0.422517452947     2.041315985617    18.998403224000
           H         -1.314958453725     0.785482547053    -1.866684014383     1.007825032070
           H         -3.216958453725     1.795482547053    -0.673684014383     1.007825032070
           H          1.413041546275     1.412482547053    -1.739684014383     1.007825032070
           H          0.500041546275    -2.414517452947     0.040315985617     1.007825032070
           H         -1.446958453725     0.698482547053     3.094315985617     1.007825032070
           H          3.342041546275     0.286482547053    -2.926684014383     1.007825032070
           H          2.472041546275    -3.361517452947    -1.228684014383     1.007825032070
           H          3.711041546275    -1.966517452947    -2.585684014383     1.007825032070
           H         -4.141958453725     2.243482547053     1.309315985617     1.007825032070

  Nuclear repulsion =  829.326101493370402
  Reference energy  = -650.559422790099688

  ==> Basis Set <==

  Basis Set: AUG-CC-PVTZ
    Blend: AUG-CC-PVTZ
    Number of shells: 277
    Number of basis function: 851
    Number of Cartesian functions: 995
    Spherical Harmonics?: true
    Max angular momentum: 3

  ==> CGRSolver (by Rob Parrish) <==

   Number of roots    =         1
   Preconditioning    =    JACOBI
   Convergence cutoff =     1E-06
   Maximum iterations =       100

  ==> CPHFRHamiltonian (by Rob Parrish) <== 

  ==> DFJK: Density-Fitted J/K Matrices <==

    J tasked:                  Yes
    K tasked:                  Yes
    wK tasked:                  No
    OpenMP threads:              8
    Integrals threads:           8
    Memory (MB):              3576
    Algorithm:                Disk
    Integral Cache:           NONE
    Schwarz Cutoff:          1E-12
    Fitting Condition:       1E-12

   => Auxiliary Basis Set <=

  Basis Set: (AUG-CC-PVTZ AUX)
    Blend: AUG-CC-PVTZ-JKFIT
    Number of shells: 546
    Number of basis function: 1870
    Number of Cartesian functions: 2329
    Spherical Harmonics?: true
    Max angular momentum: 4

  ==> CPHF Iterations <==

  => Iterations <=

             Iter  Converged  Remaining    Residual
  CGR           1          0          1   1.204E-01
  CGR           2          0          1   4.751E-02
  CGR           3          0          1   2.776E-02
  CGR           4          0          1   9.050E-03
  CGR           5          0          1   3.817E-03
  CGR           6          0          1   1.610E-03
  CGR           7          0          1   5.091E-04
  CGR           8          0          1   2.141E-04
  CGR           9          0          1   9.702E-05
  CGR          10          0          1   3.853E-05
  CGR          11          0          1   1.429E-05
  CGR          12          0          1   5.189E-06
  CGR          13          0          1   1.829E-06
  CGR          14          1          0   6.739E-07

    CGRSolver converged.

  ==> DFCorrGrad: Density-Fitted Correlated Gradients <==

    OpenMP threads:              8
    Integrals threads:           8
    Memory (MB):              3576
    Schwarz Cutoff:          0E+00
    Fitting Condition:       1E-12

   => Auxiliary Basis Set <=

  Basis Set: (AUG-CC-PVTZ AUX)
    Blend: AUG-CC-PVTZ-JKFIT
    Number of shells: 546
    Number of basis function: 1870
    Number of Cartesian functions: 2329
    Spherical Harmonics?: true
    Max angular momentum: 4

	-----------------------------------------------------------
	 ==================> DF-MP2 Energies <==================== 
	-----------------------------------------------------------
	 Reference Energy          =    -650.5594227900996884 [Eh]
	 Singles Energy            =      -0.0000000000000003 [Eh]
	 Same-Spin Energy          =      -0.6691575562519839 [Eh]
	 Opposite-Spin Energy      =      -2.0141077245323542 [Eh]
	 Correlation Energy        =      -2.6832652807843385 [Eh]
	 Total Energy              =    -653.2426880708840145 [Eh]
	-----------------------------------------------------------
	 ================> DF-SCS-MP2 Energies <================== 
	-----------------------------------------------------------
	 SCS Same-Spin Scale       =       0.3333333333333333 [-]
	 SCS Opposite-Spin Scale   =       1.2000000000000000 [-]
	 SCS Same-Spin Energy      =      -0.2230525187506613 [Eh]
	 SCS Opposite-Spin Energy  =      -2.4169292694388251 [Eh]
	 SCS Correlation Energy    =      -2.6399817881894867 [Eh]
	 SCS Total Energy          =    -653.1994045782892044 [Eh]
	-----------------------------------------------------------


  -Total Gradient:
     Atom            X                  Y                   Z
    ------   -----------------  -----------------  -----------------
       1        0.009221127517    -0.010197607606    -0.008057523343
       2       -0.008159172693     0.004621786293     0.008446262877
       3       -0.010618738931     0.008027562978     0.010342016386
       4       -0.014458179833     0.006712579499     0.005289883290
       5       -0.004715521467     0.002518018061    -0.005802674271
       6        0.002165712477    -0.011594134950     0.003258795544
       7        0.006184660960     0.007779505839    -0.007932060435
       8       -0.003384389768     0.001644899644    -0.001951192067
       9        0.003796142885    -0.002212881285    -0.004139627322
      10        0.008636692165    -0.005013953964     0.006932237020
      11        0.026925566337    -0.009687199785     0.000146174120
      12        0.000931148976    -0.001030656783    -0.000627958787
      13       -0.009871829654     0.005427754744    -0.000631635385
      14        0.001033075214    -0.000925577279     0.004932608739
      15       -0.001672314578     0.001611215891    -0.005459020981
      16       -0.003498796031     0.002533717317    -0.002975347564
      17       -0.001270191744     0.005438942840    -0.001568048090
      18       -0.003370199732    -0.003957068462     0.003755312192
      19       -0.000106526634    -0.000681492499     0.005455343638
      20        0.002098014289     0.000194885767    -0.002154492044
      21        0.001879541608    -0.002248631029    -0.000396764945
      22        0.004495950772    -0.002593276844    -0.003012751761
      23       -0.006241772154     0.003631611618    -0.003849536810


*** tstop() called on gpu-2-7.local at Sat Nov 11 19:06:39 2017
Module time:
	user time   =    7011.13 seconds =     116.85 minutes
	system time =     116.69 seconds =       1.94 minutes
	total time  =       3018 seconds =      50.30 minutes
Total time:
	user time   =    7011.13 seconds =     116.85 minutes
	system time =     116.69 seconds =       1.94 minutes
	total time  =       3018 seconds =      50.30 minutes

			-----------------------------------------
			 OPTKING 2.0: for geometry optimizations 
			  - R.A. King,  Bethel University        
			-----------------------------------------

	Internal coordinates to be generated automatically.
	Detected frag 1 with atoms:  1 2 3 4 5 6 7 8 9 10 11 12 13 14 15 16 17 18 19 20
	 21 22 23
	---Fragment 1 Bond Connectivity---
	 1 : 2 8 15
	 2 : 1 10 16
	 3 : 6 9 17
	 4 : 7 9 18
	 5 : 10 11 19
	 6 : 3 12 20
	 7 : 4 12 21
	 8 : 1 9 11
	 9 : 3 4 8
	 10 : 2 5 13
	 11 : 5 8 14
	 12 : 6 7 22
	 13 : 10 23
	 14 : 11
	 15 : 1
	 16 : 2
	 17 : 3
	 18 : 4
	 19 : 5
	 20 : 6
	 21 : 7
	 22 : 12
	 23 : 13

	Assuming in current code that numbering for constraints corresponds to unified fragment.
	Fixed dihedral atom list: 
	     2    10    13    23
	---Fragment 1 Geometry and Gradient---
	 C          -2.5208161502        1.4389934689       -1.4733892574
	 C          -4.5579409214        2.5218065430       -0.2016035699
	 C           3.0444273112        0.6698749328       -3.0191852341
	 C           2.0825567095       -3.3646903609       -1.1426871841
	 C          -2.6814428715        1.3577352452        3.7951672011
	 C           5.0550959166       -0.4582915685       -4.2701839340
	 C           4.1177917546       -4.3889219249       -2.4409290374
	 C          -0.5630598765        0.3146064198       -0.1127864417
	 C           1.5477642139       -0.8078909031       -1.4412639131
	 C          -4.6391991452        2.4821222943        2.4326746593
	 C          -0.6443181002        0.2749221710        2.5214917875
	 N           5.5275274498       -2.9243841719       -3.9489304915
	 O          -6.6290807631        3.5403689287        3.6742247286
	 F           1.2227313191       -0.7984422724        3.8575281635
	 H          -2.4849113537        1.4843468961       -3.5275215638
	 H          -6.0791704584        3.3929702903       -1.2730782873
	 H           2.6702615368        2.6692051814       -3.2875263449
	 H           0.9449415775       -4.5627767291        0.0761861716
	 H          -2.7343552032        1.3199407225        5.8474097814
	 H           6.3155432472        0.5413735558       -5.5306312647
	 H           4.6714815116       -6.3523473770       -2.3218762910
	 H           7.0128521902       -3.7161794216       -4.8862346534
	 H          -7.8271671313        4.2395675978        2.4742486342
	             0.0092211275       -0.0101976076       -0.0080575233
	            -0.0081591727        0.0046217863        0.0084462629
	            -0.0106187389        0.0080275630        0.0103420164
	            -0.0144581798        0.0067125795        0.0052898833
	            -0.0047155215        0.0025180181       -0.0058026743
	             0.0021657125       -0.0115941349        0.0032587955
	             0.0061846610        0.0077795058       -0.0079320604
	            -0.0033843898        0.0016448996       -0.0019511921
	             0.0037961429       -0.0022128813       -0.0041396273
	             0.0086366922       -0.0050139540        0.0069322370
	             0.0269255663       -0.0096871998        0.0001461741
	             0.0009311490       -0.0010306568       -0.0006279588
	            -0.0098718297        0.0054277547       -0.0006316354
	             0.0010330752       -0.0009255773        0.0049326087
	            -0.0016723146        0.0016112159       -0.0054590210
	            -0.0034987960        0.0025337173       -0.0029753476
	            -0.0012701917        0.0054389428       -0.0015680481
	            -0.0033701997       -0.0039570685        0.0037553122
	            -0.0001065266       -0.0006814925        0.0054553436
	             0.0020980143        0.0001948858       -0.0021544920
	             0.0018795416       -0.0022486310       -0.0003967649
	             0.0044959508       -0.0025932768       -0.0030127518
	            -0.0062417722        0.0036316116       -0.0038495368

	Previous optimization step data not found.  Starting new optimization.

	---Fragment 1 Intrafragment Coordinates---
	 - Coordinate -           - BOHR/RAD -       - ANG/DEG -
	 R(1,2)           =         2.634350	       1.394038
	 R(1,8)           =         2.635962	       1.394891
	 R(1,15)          =         2.054947	       1.087431
	 R(2,10)          =         2.635830	       1.394821
	 R(2,16)          =         2.054537	       1.087214
	 R(3,6)           =         2.623079	       1.388074
	 R(3,9)           =         2.629378	       1.391407
	 R(3,17)          =         2.051665	       1.085694
	 R(4,7)           =         2.622339	       1.387682
	 R(4,9)           =         2.629140	       1.391281
	 R(4,18)          =         2.053103	       1.086455
	 R(5,10)          =         2.636938	       1.395407
	 R(5,11)          =         2.635263	       1.394521
	 R(5,19)          =         2.053272	       1.086545
	 R(6,12)          =         2.531404	       1.339561
	 R(6,20)          =         2.043719	       1.081489
	 R(7,12)          =         2.531066	       1.339382
	 R(7,21)          =         2.043474	       1.081360
	 R(8,9)           =         2.735038	       1.447320
	 R(8,11)          =         2.635830	       1.394821
	 R(10,13)         =         2.573123	       1.361638
	 R(11,14)         =         2.534359	       1.341125
	 R(12,22)         =         1.926569	       1.019496
	 R(13,23)         =         1.834184	       0.970609
	 B(1,2,10)        =         2.094553	     120.009056
	 B(1,2,16)        =         2.088723	     119.675016
	 B(1,8,9)         =         2.091569	     119.838095
	 B(1,8,11)        =         2.093692	     119.959722
	 B(2,1,8)         =         2.094940	     120.031219
	 B(2,1,15)        =         2.079469	     119.144799
	 B(2,10,5)        =         2.094306	     119.994870
	 B(2,10,13)       =         2.094247	     119.991510
	 B(3,6,12)        =         2.096160	     120.101096
	 B(3,6,20)        =         2.160978	     123.814942
	 B(3,9,4)         =         2.093156	     119.928982
	 B(3,9,8)         =         2.094542	     120.008404
	 B(4,7,12)        =         2.095824	     120.081885
	 B(4,7,21)        =         2.161239	     123.829863
	 B(4,9,8)         =         2.095488	     120.062613
	 B(5,10,13)       =         2.094633	     120.013619
	 B(5,11,8)        =         2.095181	     120.045019
	 B(5,11,14)       =         2.081414	     119.256220
	 B(6,3,9)         =         2.072362	     118.737620
	 B(6,3,17)        =         2.090402	     119.771194
	 B(6,12,7)        =         2.135730	     122.368334
	 B(6,12,22)       =         2.074333	     118.850498
	 B(7,4,9)         =         2.073138	     118.782073
	 B(7,4,18)        =         2.089816	     119.737652
	 B(7,12,22)       =         2.073122	     118.781161
	 B(8,1,15)        =         2.108776	     120.823969
	 B(8,11,14)       =         2.106591	     120.698759
	 B(9,3,17)        =         2.120421	     121.491171
	 B(9,4,18)        =         2.120230	     121.480258
	 B(9,8,11)        =         2.097924	     120.202184
	 B(10,2,16)       =         2.099909	     120.315896
	 B(10,5,11)       =         2.093699	     119.960108
	 B(10,5,19)       =         2.100355	     120.341451
	 B(10,13,23)      =         1.924365	     110.257978
	 B(11,5,19)       =         2.089132	     119.698439
	 B(12,6,20)       =         2.026047	     116.083959
	 B(12,7,21)       =         2.026122	     116.088250
	 D(1,2,10,5)      =        -0.000325	      -0.018609
	 D(1,2,10,13)     =         3.141388	     179.988267
	 D(1,8,9,3)       =         1.047203	      60.000294
	 D(1,8,9,4)       =        -2.094232	    -119.990639
	 D(1,8,11,5)      =         0.000325	       0.018608
	 D(1,8,11,14)     =        -3.141528	    -179.996269
	 D(2,1,8,9)       =         3.141277	     179.981897
	 D(2,1,8,11)      =        -0.000348	      -0.019945
	 D(2,10,5,11)     =         0.000301	       0.017261
	 D(2,10,5,19)     =        -3.141029	    -179.967685
	 D(2,10,13,23)    =         0.000228	       0.013088
	 D(3,6,12,7)      =        -0.000167	      -0.009589
	 D(3,6,12,22)     =         3.140892	     179.959844
	 D(3,9,4,7)       =        -0.000213	      -0.012204
	 D(3,9,4,18)      =        -3.140964	    -179.964007
	 D(3,9,8,11)      =        -2.094358	    -119.997860
	 D(4,7,12,6)      =         0.000492	       0.028196
	 D(4,7,12,22)     =        -3.140567	    -179.941258
	 D(4,9,3,6)       =         0.000525	       0.030092
	 D(4,9,3,17)      =         3.141327	     179.984799
	 D(4,9,8,11)      =         1.047393	      60.011207
	 D(5,10,2,16)     =         3.140149	     179.917291
	 D(5,10,13,23)    =        -3.141244	    -179.980035
	 D(5,11,8,9)      =        -3.141300	    -179.983240
	 D(6,3,9,8)       =        -3.140909	    -179.960854
	 D(6,12,7,21)     =        -3.140902	    -179.960420
	 D(7,4,9,8)       =         3.141222	     179.978736
	 D(7,12,6,20)     =         3.141065	     179.969740
	 D(8,1,2,10)      =         0.000348	       0.019955
	 D(8,1,2,16)      =        -3.140133	    -179.916358
	 D(8,9,3,17)      =        -0.000107	      -0.006146
	 D(8,9,4,18)      =         0.000470	       0.026933
	 D(8,11,5,10)     =        -0.000301	      -0.017270
	 D(8,11,5,19)     =         3.141030	     179.967774
	 D(9,3,6,12)      =        -0.000344	      -0.019721
	 D(9,3,6,20)      =        -3.141547	    -179.997375
	 D(9,4,7,12)      =        -0.000293	      -0.016764
	 D(9,4,7,21)      =         3.141085	     179.970928
	 D(9,8,1,15)      =         0.000403	       0.023110
	 D(9,8,11,14)     =         0.000033	       0.001883
	 D(10,2,1,15)     =         3.141234	     179.979432
	 D(10,5,11,14)    =         3.141547	     179.997392
	 D(11,5,10,13)    =        -3.141411	    -179.989616
	 D(11,8,1,15)     =        -3.141221	    -179.978731
	 D(12,6,3,17)     =        -3.141160	    -179.975226
	 D(12,7,4,18)     =         3.140474	     179.935898
	 D(13,10,2,16)    =        -0.001324	      -0.075833
	 D(13,10,5,19)    =         0.000444	       0.025437
	 D(14,11,5,19)    =        -0.000307	      -0.017564
	 D(15,1,2,16)     =         0.000753	       0.043120
	 D(17,3,6,20)     =         0.000822	       0.047120
	 D(18,4,7,21)     =        -0.001334	      -0.076410
	 D(20,6,12,22)    =        -0.001062	      -0.060827
	 D(21,7,12,22)    =         0.001224	       0.070126
	 R(4,14)          =         5.685691	       3.008738

	Current energy   :      -653.2426880709

	Generating empirical Hessian (Schlegel '84) for each fragment.
	Adding user-defined constraint: Fragment 1; Coordinate 72:
		Value =     0.000228; Fixed value    =     0.000017
		Force =    -0.000105; Force constant =     0.500000
	Removing off-diagonal coupling between coordinate 72 and others.
	Taking RFO optimization step.
	Going to follow RFO solution 1.
	Using RFO vector 1.

	Determining step-restricting scale parameter for RS-RFO.
	Maximum step size allowed    0.10000

	 Iter      |step|        alpha        rfo_root  
	------------------------------------------------
	    0     0.30362       1.00000           1
	    1     0.20599       3.47142           1
	    2     0.15385       8.96402           1
	    3     0.12280      19.82235           1
	    4     0.10600      32.67479           1
	    5     0.10057      38.75165           1
	    6     0.10001      39.45310           1
	------------------------------------------------
	Norm of target step-size    0.10001
	Projected energy change by RFO approximation:        -0.0048059015

	Back-transformation to cartesian coordinates...
	Successfully converged to displaced geometry.
	First geometry is closer to target in internal coordinates, so am using that one.
	First geometry has RMS(Delta(q)) = 1.83e-04

	--- Internal Coordinate Step in ANG or DEG, aJ/ANG or AJ/DEG ---
	 ---------------------------------------------------------------------------
	   Coordinate                Previous        Force       Change         New 
	   ----------                --------       ------       ------       ------
	    1 R(1,2)          =      1.394038    -0.088643    -0.008526     1.385512
	    2 R(1,8)          =      1.394891    -0.019424    -0.001748     1.393143
	    3 R(1,15)         =      1.087431    -0.045010    -0.005310     1.082121
	    4 R(2,10)         =      1.394821    -0.003272    -0.000275     1.394546
	    5 R(2,16)         =      1.087214    -0.042979    -0.005079     1.082135
	    6 R(3,6)          =      1.388074    -0.094472    -0.009074     1.379000
	    7 R(3,9)          =      1.391407     0.027643     0.002735     1.394142
	    8 R(3,17)         =      1.085694    -0.047264    -0.005556     1.080139
	    9 R(4,7)          =      1.387682    -0.095853    -0.009163     1.378520
	   10 R(4,9)          =      1.391281     0.035876     0.003629     1.394910
	   11 R(4,18)         =      1.086455    -0.052778    -0.006234     1.080222
	   12 R(5,10)         =      1.395407    -0.084412    -0.008366     1.387042
	   13 R(5,11)         =      1.394521    -0.138225    -0.013607     1.380914
	   14 R(5,19)         =      1.086545    -0.045048    -0.005317     1.081228
	   15 R(6,12)         =      1.339561     0.016022     0.001414     1.340976
	   16 R(6,20)         =      1.081489    -0.022392    -0.002611     1.078878
	   17 R(7,12)         =      1.339382     0.021672     0.001854     1.341236
	   18 R(7,21)         =      1.081360    -0.021806    -0.002508     1.078851
	   19 R(8,9)          =      1.447320     0.085473     0.009695     1.457015
	   20 R(8,11)         =      1.394821    -0.044038    -0.004003     1.390818
	   21 R(10,13)        =      1.361638    -0.115546    -0.009597     1.352041
	   22 R(11,14)        =      1.341125    -0.029373    -0.002436     1.338689
	   23 R(12,22)        =      1.019496    -0.049414    -0.004984     1.014512
	   24 R(13,23)        =      0.970609    -0.065746    -0.005550     0.965059
	   25 B(1,2,10)       =    120.009056    -0.000066    -0.077988   119.931068
	   26 B(1,2,16)       =    119.675016     0.000057     0.091325   119.766342
	   27 B(1,8,9)        =    119.838095     0.000398     0.632833   120.470927
	   28 B(1,8,11)       =    119.959722    -0.000663    -1.139603   118.820118
	   29 B(2,1,8)        =    120.031219     0.000149     0.330167   120.361386
	   30 B(2,1,15)       =    119.144799     0.000103     0.215925   119.360724
	   31 B(2,10,5)       =    119.994870     0.000081     0.140875   120.135746
	   32 B(2,10,13)      =    119.991510     0.001091     1.875471   121.866981
	   33 B(3,6,12)       =    120.101096    -0.000320    -0.598447   119.502649
	   34 B(3,6,20)       =    123.814942     0.000063     0.090590   123.905532
	   35 B(3,9,4)        =    119.928982    -0.000518    -0.907724   119.021258
	   36 B(3,9,8)        =    120.008404     0.000182     0.297663   120.306067
	   37 B(4,7,12)       =    120.081885    -0.000319    -0.592254   119.489631
	   38 B(4,7,21)       =    123.829863     0.000060     0.084055   123.913918
	   39 B(4,9,8)        =    120.062613     0.000336     0.610022   120.672635
	   40 B(5,10,13)      =    120.013619    -0.001172    -2.016346   117.997273
	   41 B(5,11,8)       =    120.045019     0.000813     1.356879   121.401898
	   42 B(5,11,14)      =    119.256220    -0.000175    -0.318764   118.937456
	   43 B(6,3,9)        =    118.737620     0.000430     0.774467   119.512087
	   44 B(6,3,17)       =    119.771194    -0.000189    -0.334191   119.437003
	   45 B(6,12,7)       =    122.368334     0.000322     0.582759   122.951093
	   46 B(6,12,22)      =    118.850498    -0.000168    -0.305811   118.544687
	   47 B(7,4,9)        =    118.782073     0.000406     0.741162   119.523235
	   48 B(7,4,18)       =    119.737652    -0.000181    -0.325312   119.412340
	   49 B(7,12,22)      =    118.781161    -0.000153    -0.276944   118.504216
	   50 B(8,1,15)       =    120.823969    -0.000252    -0.546438   120.277531
	   51 B(8,11,14)      =    120.698759    -0.000638    -1.038389   119.660370
	   52 B(9,3,17)       =    121.491171    -0.000240    -0.440273   121.050898
	   53 B(9,4,18)       =    121.480258    -0.000225    -0.415842   121.064416
	   54 B(9,8,11)       =    120.202184     0.000265     0.506767   120.708951
	   55 B(10,2,16)      =    120.315896     0.000008    -0.013321   120.302575
	   56 B(10,5,11)      =    119.960108    -0.000315    -0.610624   119.349485
	   57 B(10,5,19)      =    120.341451     0.000133     0.252423   120.593874
	   58 B(10,13,23)     =    110.257978    -0.000253    -0.548594   109.709384
	   59 B(11,5,19)      =    119.698439     0.000182     0.358199   120.056638
	   60 B(12,6,20)      =    116.083959     0.000257     0.507719   116.591678
	   61 B(12,7,21)      =    116.088250     0.000259     0.508186   116.596436
	   62 D(1,2,10,5)     =     -0.018609    -0.000005    -0.072021    -0.090630
	   63 D(1,2,10,13)    =    179.988267    -0.000004    -0.083118   179.905149
	   64 D(1,8,9,3)      =     60.000294    -0.000052    -0.824033    59.176262
	   65 D(1,8,9,4)      =   -119.990639    -0.000049    -0.759940  -120.750579
	   66 D(1,8,11,5)     =      0.018608    -0.000004    -0.059535    -0.040927
	   67 D(1,8,11,14)    =   -179.996269     0.000009     0.148527  -179.847742
	   68 D(2,1,8,9)      =    179.981897    -0.000005    -0.080734   179.901163
	   69 D(2,1,8,11)     =     -0.019945    -0.000006    -0.099394    -0.119339
	   70 D(2,10,5,11)    =      0.017261    -0.000005    -0.084438    -0.067177
	   71 D(2,10,5,19)    =   -179.967685    -0.000005    -0.078528  -180.046214
	   72 D(2,10,13,23)   =      0.013088    -0.000001     0.002248     0.015336
	   73 D(3,6,12,7)     =     -0.009589     0.000003     0.049168     0.039579
	   74 D(3,6,12,22)    =    179.959844     0.000004     0.057214   180.017058
	   75 D(3,9,4,7)      =     -0.012204     0.000002     0.046757     0.034552
	   76 D(3,9,4,18)     =   -179.964007     0.000002     0.033316  -179.930691
	   77 D(3,9,8,11)     =   -119.997860    -0.000051    -0.804987  -120.802847
	   78 D(4,7,12,6)     =      0.028196     0.000000    -0.003325     0.024871
	   79 D(4,7,12,22)    =   -179.941258    -0.000001    -0.011360  -179.952618
	   80 D(4,9,3,6)      =      0.030092     0.000001    -0.001436     0.028656
	   81 D(4,9,3,17)     =    179.984799     0.000006     0.084449   180.069249
	   82 D(4,9,8,11)     =     60.011207    -0.000048    -0.740894    59.270313
	   83 D(5,10,2,16)    =    179.917291    -0.000004    -0.052645   179.864647
	   84 D(5,10,13,23)   =   -179.980035    -0.000000    -0.008763  -179.988798
	   85 D(5,11,8,9)     =   -179.983240    -0.000004    -0.078239  -180.061479
	   86 D(6,3,9,8)      =   -179.960854     0.000004     0.061469  -179.899384
	   87 D(6,12,7,21)    =   -179.960420    -0.000003    -0.056321  -180.016742
	   88 D(7,4,9,8)      =    179.978736    -0.000001    -0.016415   179.962321
	   89 D(7,12,6,20)    =    179.969740    -0.000004    -0.061686   179.908055
	   90 D(8,1,2,10)     =      0.019955     0.000010     0.164819     0.184774
	   91 D(8,1,2,16)     =   -179.916358     0.000009     0.145615  -179.770743
	   92 D(8,9,3,17)     =     -0.006146     0.000009     0.147355     0.141208
	   93 D(8,9,4,18)     =      0.026933    -0.000001    -0.029856    -0.002922
	   94 D(8,11,5,10)    =     -0.017270     0.000009     0.150999     0.133729
	   95 D(8,11,5,19)    =    179.967774     0.000009     0.145106   180.112880
	   96 D(9,3,6,12)     =     -0.019721    -0.000004    -0.045909    -0.065630
	   97 D(9,3,6,20)     =   -179.997375     0.000004     0.073453  -179.923922
	   98 D(9,4,7,12)     =     -0.016764    -0.000003    -0.044832    -0.061596
	   99 D(9,4,7,21)     =    179.970928     0.000001     0.012313   179.983240
	  100 D(9,8,1,15)     =      0.023110     0.000006     0.097418     0.120528
	  101 D(9,8,11,14)    =      0.001883     0.000008     0.129823     0.131706
	  102 D(10,2,1,15)    =    179.979432    -0.000001    -0.012021   179.967412
	  103 D(10,5,11,14)   =    179.997392    -0.000003    -0.055485   179.941907
	  104 D(11,5,10,13)   =   -179.989616    -0.000005    -0.073501  -180.063117
	  105 D(11,8,1,15)    =   -179.978731     0.000005     0.078758  -179.899973
	  106 D(12,6,3,17)    =   -179.975226    -0.000009    -0.130335  -180.105561
	  107 D(12,7,4,18)    =    179.935898    -0.000002    -0.031671   179.904227
	  108 D(13,10,2,16)   =     -0.075833    -0.000003    -0.063742    -0.139575
	  109 D(13,10,5,19)   =      0.025437    -0.000005    -0.067591    -0.042153
	  110 D(14,11,5,19)   =     -0.017564    -0.000003    -0.061378    -0.078942
	  111 D(15,1,2,16)    =      0.043120    -0.000002    -0.031225     0.011894
	  112 D(17,3,6,20)    =      0.047120    -0.000001    -0.010973     0.036146
	  113 D(18,4,7,21)    =     -0.076410     0.000002     0.025473    -0.050937
	  114 D(20,6,12,22)   =     -0.060827    -0.000003    -0.053639    -0.114466
	  115 D(21,7,12,22)   =      0.070126    -0.000004    -0.064356     0.005770
	  116 R(4,14)         =      3.008738    -0.009620    -0.003083     3.005655
	 ---------------------------------------------------------------------------
	Successfully symmetrized geometry.
	 Forces used to impose fixed constraints are not included.
	  Forces zeroed: 72 

  ==> Convergence Check <==

  Measures of convergence in internal coordinates in au.
  Criteria marked as inactive (o), active & met (*), and active & unmet ( ).
  --------------------------------------------------------------------------------------------- ~
   Step     Total Energy     Delta E     MAX Force     RMS Force      MAX Disp      RMS Disp    ~
  --------------------------------------------------------------------------------------------- ~
    Convergence Criteria    1.00e-06 *    3.00e-04 *             o    1.20e-03 *             o  ~
  --------------------------------------------------------------------------------------------- ~
      1    -653.24268807   -6.53e+02      1.68e-02      4.67e-03 o    3.52e-02      9.27e-03 o  ~
  ---------------------------------------------------------------------------------------------

	Writing optimization data to binary file.
	Structure for next step:
	Cartesian Geometry (in Angstrom)
	    C    -1.3416631970   0.7741773805  -0.7803922481
	    C    -2.4139889604   1.3430848258  -0.1124802136
	    C     1.6168929464   0.3423002836  -1.6107242749
	    C     1.1175715213  -1.7836441668  -0.6070682819
	    C    -1.4342761255   0.7189437281   1.9997406906
	    C     2.6788763294  -0.2437020385  -2.2667977463
	    C     2.1896998326  -2.3277941508  -1.2814256107
	    C    -0.3081084187   0.1704793891  -0.0675390651
	    C     0.8196341743  -0.4304072342  -0.7675558484
	    C    -2.4594424176   1.3159502265   1.2810603295
	    C    -0.3729024440   0.1527182208   1.3216556406
	    N     2.9300808504  -1.5480763243  -2.0831676108
	    O    -3.4857084592   1.8606347936   1.9725155692
	    F     0.6125905838  -0.4202256821   2.0235302772
	    H    -1.3160719996   0.7999871786  -1.8619022059
	    H    -3.2133935902   1.8062067063  -0.6759396215
	    H     1.4165520028   1.3934192507  -1.7580744326
	    H     0.5211816926  -2.4131134759   0.0371106145
	    H    -1.4615996151   0.6943569509   3.0803439562
	    H     3.3411294662   0.2864899362  -2.9333527276
	    H     2.4834420671  -3.3633764867  -1.2092781745
	    H     3.7151580181  -1.9641928691  -2.5727954539
	    H    -4.1266986936   2.2398821401   1.3588041069
			--------------------------
			 OPTKING Finished Execution 
			--------------------------

    Structure for next step:
    Molecular point group: c1
    Full point group: C1

    Geometry (in Angstrom), charge = 1, multiplicity = 1:

    C           -1.338467640017     0.774387224598    -0.777965582113
    C           -2.410793403393     1.343294669958    -0.110053547628
    C            1.620088503470     0.342510127773    -1.608297608886
    C            1.120767078329    -1.783434322675    -0.604641615891
    C           -1.431080568490     0.719153572245     2.002167356607
    C            2.682071886466    -0.243492194319    -2.264371080320
    C            2.192895389668    -2.327584306629    -1.278998944772
    C           -0.304912861700     0.170689233261    -0.065112399120
    C            0.822829731370    -0.430197390086    -0.765129182384
    C           -2.456246860609     1.316160070602     1.283486995499
    C           -0.369706886954     0.152928064905     1.324082306599
    N            2.933276407388    -1.547866480199    -2.080740944790
    O           -3.482512902148     1.860844637738     1.974942235179
    F            0.615786140864    -0.420015837905     2.025956943158
    H           -1.312876442588     0.800197022733    -1.859475539885
    H           -3.210198033180     1.806416550405    -0.673512955514
    H            1.419747559855     1.393629094840    -1.755647766578
    H            0.524377249660    -2.412903631774     0.039537280489
    H           -1.458404058081     0.694566795027     3.082770622170
    H            3.344325023226     0.286699780303    -2.930926061670
    H            2.486637624152    -3.363166642566    -1.206851508494
    H            3.718353575111    -1.963983024920    -2.570368787896
    H           -4.123503136532     2.240091984267     1.361230772854

gradient() will perform analytic gradient computation.

*** tstart() called on gpu-2-7.local
*** at Sat Nov 11 19:06:41 2017

    SCF Algorithm Type (re)set to DF.

*** tstart() called on gpu-2-7.local
*** at Sat Nov 11 19:06:41 2017

   => Loading Basis Set <=

    Name: AUG-CC-PVTZ
    Role: ORBITAL
    Keyword: BASIS
    atoms 1-11  entry C          line   221 file /cbio/jclab/home/chayas/anaconda/envs/py35/share/psi4/basis/aug-cc-pvtz.gbs 
    atoms 12    entry N          line   267 file /cbio/jclab/home/chayas/anaconda/envs/py35/share/psi4/basis/aug-cc-pvtz.gbs 
    atoms 13    entry O          line   313 file /cbio/jclab/home/chayas/anaconda/envs/py35/share/psi4/basis/aug-cc-pvtz.gbs 
    atoms 14    entry F          line   359 file /cbio/jclab/home/chayas/anaconda/envs/py35/share/psi4/basis/aug-cc-pvtz.gbs 
    atoms 15-23 entry H          line    34 file /cbio/jclab/home/chayas/anaconda/envs/py35/share/psi4/basis/aug-cc-pvtz.gbs 


         ---------------------------------------------------------
                                   SCF
            by Justin Turney, Rob Parrish, and Andy Simmonett
                              RHF Reference
                        8 Threads,   4768 MiB Core
         ---------------------------------------------------------

  ==> Geometry <==

    Molecular point group: c1
    Full point group: C1

    Geometry (in Angstrom), charge = 1, multiplicity = 1:

       Center              X                  Y                   Z               Mass       
    ------------   -----------------  -----------------  -----------------  -----------------
           C         -1.338467640017     0.774387224598    -0.777965582113    12.000000000000
           C         -2.410793403393     1.343294669958    -0.110053547628    12.000000000000
           C          1.620088503470     0.342510127773    -1.608297608886    12.000000000000
           C          1.120767078329    -1.783434322675    -0.604641615891    12.000000000000
           C         -1.431080568490     0.719153572245     2.002167356607    12.000000000000
           C          2.682071886466    -0.243492194319    -2.264371080320    12.000000000000
           C          2.192895389668    -2.327584306629    -1.278998944772    12.000000000000
           C         -0.304912861700     0.170689233261    -0.065112399120    12.000000000000
           C          0.822829731370    -0.430197390086    -0.765129182384    12.000000000000
           C         -2.456246860609     1.316160070602     1.283486995499    12.000000000000
           C         -0.369706886954     0.152928064905     1.324082306599    12.000000000000
           N          2.933276407388    -1.547866480199    -2.080740944790    14.003074004780
           O         -3.482512902148     1.860844637738     1.974942235179    15.994914619560
           F          0.615786140864    -0.420015837905     2.025956943158    18.998403224000
           H         -1.312876442588     0.800197022733    -1.859475539885     1.007825032070
           H         -3.210198033180     1.806416550405    -0.673512955514     1.007825032070
           H          1.419747559855     1.393629094840    -1.755647766578     1.007825032070
           H          0.524377249660    -2.412903631774     0.039537280489     1.007825032070
           H         -1.458404058081     0.694566795027     3.082770622170     1.007825032070
           H          3.344325023226     0.286699780303    -2.930926061670     1.007825032070
           H          2.486637624152    -3.363166642566    -1.206851508494     1.007825032070
           H          3.718353575111    -1.963983024920    -2.570368787896     1.007825032070
           H         -4.123503136532     2.240091984267     1.361230772854     1.007825032070

  Running in c1 symmetry.

  Rotational constants: A =      0.06342  B =      0.01287  C =      0.01148 [cm^-1]
  Rotational constants: A =   1901.30808  B =    385.85061  C =    344.29867 [MHz]
  Nuclear repulsion =  830.617640952779766

  Charge       = 1
  Multiplicity = 1
  Electrons    = 98
  Nalpha       = 49
  Nbeta        = 49

  ==> Algorithm <==

  SCF Algorithm Type is DF.
  DIIS enabled.
  MOM disabled.
  Fractional occupation disabled.
  Guess Type is READ.
  Energy threshold   = 1.00e-10
  Density threshold  = 1.00e-10
  Integral threshold = 0.00e+00

  ==> Primary Basis <==

  Basis Set: AUG-CC-PVTZ
    Blend: AUG-CC-PVTZ
    Number of shells: 277
    Number of basis function: 851
    Number of Cartesian functions: 995
    Spherical Harmonics?: true
    Max angular momentum: 3

   => Loading Basis Set <=

    Name: (AUG-CC-PVTZ AUX)
    Role: JKFIT
    Keyword: DF_BASIS_SCF
    atoms 1-11  entry C          line   161 file /cbio/jclab/home/chayas/anaconda/envs/py35/share/psi4/basis/aug-cc-pvtz-jkfit.gbs 
    atoms 12    entry N          line   223 file /cbio/jclab/home/chayas/anaconda/envs/py35/share/psi4/basis/aug-cc-pvtz-jkfit.gbs 
    atoms 13    entry O          line   285 file /cbio/jclab/home/chayas/anaconda/envs/py35/share/psi4/basis/aug-cc-pvtz-jkfit.gbs 
    atoms 14    entry F          line   347 file /cbio/jclab/home/chayas/anaconda/envs/py35/share/psi4/basis/aug-cc-pvtz-jkfit.gbs 
    atoms 15-23 entry H          line    69 file /cbio/jclab/home/chayas/anaconda/envs/py35/share/psi4/basis/aug-cc-pvtz-jkfit.gbs 

  Reading orbitals from file 180, no projection.

  ==> Pre-Iterations <==

   -------------------------------------------------------
    Irrep   Nso     Nmo     Nalpha   Nbeta   Ndocc  Nsocc
   -------------------------------------------------------
     A        851     851       0       0       0       0
   -------------------------------------------------------
    Total     851     851      49      49      49       0
   -------------------------------------------------------

  ==> Integral Setup <==

  ==> DFJK: Density-Fitted J/K Matrices <==

    J tasked:                  Yes
    K tasked:                  Yes
    wK tasked:                  No
    OpenMP threads:              8
    Integrals threads:           8
    Memory (MB):              3576
    Algorithm:                Disk
    Integral Cache:           NONE
    Schwarz Cutoff:          1E-12
    Fitting Condition:       1E-12

   => Auxiliary Basis Set <=

  Basis Set: (AUG-CC-PVTZ AUX)
    Blend: AUG-CC-PVTZ-JKFIT
    Number of shells: 546
    Number of basis function: 1870
    Number of Cartesian functions: 2329
    Spherical Harmonics?: true
    Max angular momentum: 4

  Minimum eigenvalue in the overlap matrix is 6.3410030631E-07.
  Using Symmetric Orthogonalization.

  SCF Guess: Orbitals guess was supplied from a previous computation.

  ==> Iterations <==

                           Total Energy        Delta E     RMS |[F,P]|

   @DF-RHF iter   0:  -650.61841568121986   -6.50618e+02   3.93354e-04 
   @DF-RHF iter   1:  -650.56481833892849    5.35973e-02   7.31171e-05 
   @DF-RHF iter   2:  -650.56504392778379   -2.25589e-04   4.73525e-05 DIIS
   @DF-RHF iter   3:  -650.56514530823563   -1.01380e-04   9.83224e-06 DIIS
   @DF-RHF iter   4:  -650.56515253865734   -7.23042e-06   3.88540e-06 DIIS
   @DF-RHF iter   5:  -650.56515429265016   -1.75399e-06   1.02570e-06 DIIS
   @DF-RHF iter   6:  -650.56515463648145   -3.43831e-07   6.59009e-07 DIIS
   @DF-RHF iter   7:  -650.56515475010076   -1.13619e-07   3.28632e-07 DIIS
   @DF-RHF iter   8:  -650.56515478288111   -3.27803e-08   8.50066e-08 DIIS
   @DF-RHF iter   9:  -650.56515478660890   -3.72779e-09   4.49317e-08 DIIS
   @DF-RHF iter  10:  -650.56515478691415   -3.05249e-10   1.54895e-08 DIIS
   @DF-RHF iter  11:  -650.56515478694803   -3.38787e-11   3.93703e-09 DIIS
   @DF-RHF iter  12:  -650.56515478696997   -2.19416e-11   1.64967e-09 DIIS
   @DF-RHF iter  13:  -650.56515478694598    2.39879e-11   7.97817e-10 DIIS
   @DF-RHF iter  14:  -650.56515478698520   -3.92220e-11   3.36988e-10 DIIS
   @DF-RHF iter  15:  -650.56515478698191    3.29692e-12   1.76675e-10 DIIS
   @DF-RHF iter  16:  -650.56515478695110    3.08091e-11   6.38186e-11 DIIS

  ==> Post-Iterations <==

    Orbital Energies (a.u.)
    -----------------------

    Doubly Occupied:                                                      

       1A    -26.440275     2A    -20.706343     3A    -15.841588  
       4A    -11.488745     5A    -11.486975     6A    -11.464649  
       7A    -11.454222     8A    -11.436772     9A    -11.419746  
      10A    -11.418427    11A    -11.384433    12A    -11.377278  
      13A    -11.355572    14A    -11.352695    15A     -1.760362  
      16A     -1.526645    17A     -1.517643    18A     -1.323975  
      19A     -1.273842    20A     -1.244961    21A     -1.165984  
      22A     -1.153739    23A     -1.071240    24A     -1.063614  
      25A     -0.987795    26A     -0.973603    27A     -0.966548  
      28A     -0.892492    29A     -0.879002    30A     -0.868473  
      31A     -0.836834    32A     -0.827037    33A     -0.821298  
      34A     -0.803001    35A     -0.800165    36A     -0.780058  
      37A     -0.769737    38A     -0.749015    39A     -0.724669  
      40A     -0.715077    41A     -0.708844    42A     -0.689165  
      43A     -0.668237    44A     -0.637995    45A     -0.620493  
      46A     -0.578091    47A     -0.542428    48A     -0.471564  
      49A     -0.446582  

    Virtual:                                                              

      50A     -0.106399    51A     -0.086211    52A     -0.064953  
      53A     -0.063354    54A     -0.058870    55A     -0.050083  
      56A     -0.043943    57A     -0.039077    58A     -0.033726  
      59A     -0.030044    60A     -0.023700    61A     -0.018910  
      62A     -0.012152    63A     -0.008402    64A     -0.006100  
      65A     -0.002427    66A      0.000320    67A      0.008751  
      68A      0.009539    69A      0.013529    70A      0.015813  
      71A      0.018978    72A      0.025030    73A      0.027961  
      74A      0.028491    75A      0.033840    76A      0.034953  
      77A      0.036517    78A      0.040009    79A      0.044697  
      80A      0.045791    81A      0.050710    82A      0.053593  
      83A      0.062149    84A      0.064212    85A      0.069321  
      86A      0.072322    87A      0.076650    88A      0.078731  
      89A      0.083875    90A      0.088845    91A      0.093072  
      92A      0.095860    93A      0.101732    94A      0.107358  
      95A      0.112033    96A      0.118118    97A      0.118783  
      98A      0.123985    99A      0.130437   100A      0.133783  
     101A      0.135665   102A      0.136531   103A      0.140933  
     104A      0.144102   105A      0.149031   106A      0.157659  
     107A      0.158560   108A      0.161653   109A      0.164603  
     110A      0.167133   111A      0.170490   112A      0.171921  
     113A      0.174126   114A      0.180944   115A      0.182794  
     116A      0.186654   117A      0.195406   118A      0.196693  
     119A      0.199278   120A      0.207279   121A      0.209731  
     122A      0.211467   123A      0.215945   124A      0.221160  
     125A      0.225452   126A      0.227063   127A      0.230426  
     128A      0.234356   129A      0.239275   130A      0.240027  
     131A      0.245723   132A      0.250004   133A      0.252780  
     134A      0.255777   135A      0.258901   136A      0.266824  
     137A      0.269998   138A      0.276219   139A      0.281353  
     140A      0.282657   141A      0.284769   142A      0.293710  
     143A      0.300818   144A      0.302496   145A      0.305490  
     146A      0.309319   147A      0.313528   148A      0.317794  
     149A      0.320984   150A      0.322898   151A      0.328683  
     152A      0.331639   153A      0.332729   154A      0.337080  
     155A      0.339678   156A      0.339934   157A      0.345635  
     158A      0.351133   159A      0.351361   160A      0.354007  
     161A      0.359936   162A      0.368081   163A      0.369791  
     164A      0.370514   165A      0.373747   166A      0.375565  
     167A      0.380548   168A      0.383292   169A      0.387515  
     170A      0.394519   171A      0.397476   172A      0.401112  
     173A      0.402570   174A      0.405946   175A      0.408904  
     176A      0.414019   177A      0.415420   178A      0.421069  
     179A      0.426124   180A      0.427291   181A      0.430217  
     182A      0.436487   183A      0.441514   184A      0.446114  
     185A      0.449323   186A      0.453335   187A      0.460013  
     188A      0.468607   189A      0.472180   190A      0.476065  
     191A      0.479131   192A      0.486441   193A      0.488439  
[...]
	 D(1,2,10,5)      =        -0.007502	      -0.429815
	 D(1,2,10,13)     =         3.135039	     179.624524
	 D(1,8,9,3)       =         0.519531	      29.766938
	 D(1,8,9,4)       =        -2.608117	    -149.434108
	 D(1,8,11,5)      =        -0.004400	      -0.252115
	 D(1,8,11,14)     =        -3.103985	    -177.845242
	 D(2,1,8,9)       =         3.132836	     179.498298
	 D(2,1,8,11)      =        -0.011284	      -0.646521
	 D(2,10,5,11)     =        -0.007527	      -0.431240
	 D(2,10,5,19)     =         3.124658	     179.029719
	 D(2,10,13,23)    =        -0.000066	      -0.003770
	 D(3,6,12,7)      =         0.000876	       0.050200
	 D(3,6,12,22)     =        -3.136373	    -179.700916
	 D(3,9,4,7)       =        -0.004371	      -0.250435
	 D(3,9,4,18)      =        -3.123265	    -178.949895
	 D(3,9,8,11)      =        -2.619370	    -150.078863
	 D(4,7,12,6)      =        -0.002313	      -0.132501
	 D(4,7,12,22)     =         3.134937	     179.618652
	 D(4,9,3,6)       =         0.002956	       0.169357
	 D(4,9,3,17)      =        -3.103373	    -177.810198
	 D(4,9,8,11)      =         0.536167	      30.720090
	 D(5,10,2,16)     =         3.124635	     179.028387
	 D(5,10,13,23)    =        -3.140739	    -179.951098
	 D(5,11,8,9)      =         3.134613	     179.600104
	 D(6,3,9,8)       =        -3.125468	    -179.076102
	 D(6,12,7,21)     =         3.131706	     179.433510
	 D(7,4,9,8)       =         3.123745	     178.977419
	 D(7,12,6,20)     =         3.128798	     179.266929
	 D(8,1,2,10)      =         0.017242	       0.987890
	 D(8,1,2,16)      =        -3.114915	    -178.471508
	 D(8,9,3,17)      =         0.051388	       2.944343
	 D(8,9,4,18)      =         0.004851	       0.277959
	 D(8,11,5,10)     =         0.013689	       0.784343
	 D(8,11,5,19)     =        -3.118517	    -178.677891
	 D(9,3,6,12)      =        -0.001253	      -0.071803
	 D(9,3,6,20)      =        -3.128220	    -179.233808
	 D(9,4,7,12)      =         0.004116	       0.235806
	 D(9,4,7,21)      =        -3.129389	    -179.300773
	 D(9,8,1,15)      =         0.045240	       2.592085
	 D(9,8,11,14)     =         0.035028	       2.006978
	 D(10,2,1,15)     =         3.105243	     177.917303
	 D(10,5,11,14)    =         3.113763	     178.405474
	 D(11,5,10,13)    =         3.133183	     179.518175
	 D(11,8,1,15)     =        -3.098880	    -177.552734
	 D(12,6,3,17)     =         3.105927	     177.956498
	 D(12,7,4,18)     =         3.123590	     178.968503
	 D(13,10,2,16)    =        -0.016009	      -0.917274
	 D(13,10,5,19)    =        -0.017817	      -1.020866
	 D(14,11,5,19)    =        -0.018444	      -1.056759
	 D(15,1,2,16)     =        -0.026915	      -1.542095
	 D(17,3,6,20)     =        -0.021040	      -1.205508
	 D(18,4,7,21)     =        -0.009915	      -0.568077
	 D(20,6,12,22)    =        -0.008451	      -0.484187
	 D(21,7,12,22)    =        -0.014230	      -0.815337
	 R(4,14)          =         5.211044	       2.757566

	Current energy   :      -653.2513431953

	Energy change for the previous step:
		Projected    :        -0.0000019615
		Actual       :        -0.0000002744

	Performing BFGS update.
	Previous computed or guess Hessian on step 1.
	Steps to be used in Hessian update: 15 14
	Adding user-defined constraint: Fragment 1; Coordinate 72:
		Value =    -0.000066; Fixed value    =     0.000020
		Force =     0.000075; Force constant =     0.875000
	Removing off-diagonal coupling between coordinate 72 and others.
	Taking RFO optimization step.
	Going to follow RFO solution 1.
	Using RFO vector 1.
	Norm of target step-size    0.00082
	Projected energy change by RFO approximation:        -0.0000000618

	Back-transformation to cartesian coordinates...
	Successfully converged to displaced geometry.

	--- Internal Coordinate Step in ANG or DEG, aJ/ANG or AJ/DEG ---
	 ---------------------------------------------------------------------------
	   Coordinate                Previous        Force       Change         New 
	   ----------                --------       ------       ------       ------
	    1 R(1,2)          =      1.377229    -0.000093    -0.000013     1.377216
	    2 R(1,8)          =      1.400281     0.000054     0.000005     1.400287
	    3 R(1,15)         =      1.079313     0.000107     0.000018     1.079331
	    4 R(2,10)         =      1.394537     0.000080     0.000011     1.394548
	    5 R(2,16)         =      1.079451     0.000076     0.000011     1.079463
	    6 R(3,6)          =      1.371696    -0.000028    -0.000005     1.371691
	    7 R(3,9)          =      1.401591     0.000116     0.000015     1.401606
	    8 R(3,17)         =      1.077371     0.000189     0.000031     1.077402
	    9 R(4,7)          =      1.372532    -0.000061    -0.000010     1.372522
	   10 R(4,9)          =      1.402251     0.000004    -0.000003     1.402248
	   11 R(4,18)         =      1.075481     0.000172     0.000029     1.075510
	   12 R(5,10)         =      1.389759     0.000127     0.000014     1.389773
	   13 R(5,11)         =      1.371135    -0.000040    -0.000008     1.371126
	   14 R(5,19)         =      1.077614     0.000073     0.000011     1.077625
	   15 R(6,12)         =      1.342877     0.000194     0.000020     1.342897
	   16 R(6,20)         =      1.077108     0.000061     0.000010     1.077117
	   17 R(7,12)         =      1.342668     0.000142     0.000015     1.342683
	   18 R(7,21)         =      1.077171     0.000067     0.000010     1.077181
	   19 R(8,9)          =      1.444676    -0.000281    -0.000047     1.444629
	   20 R(8,11)         =      1.396622    -0.000130    -0.000024     1.396598
	   21 R(10,13)        =      1.341310    -0.000050    -0.000008     1.341303
	   22 R(11,14)        =      1.343634     0.000103     0.000010     1.343644
	   23 R(12,22)        =      1.011869     0.000028     0.000003     1.011872
	   24 R(13,23)        =      0.963928     0.000167     0.000018     0.963946
	   25 B(1,2,10)       =    119.802247    -0.000000    -0.000986   119.801261
	   26 B(1,2,16)       =    119.988586    -0.000000    -0.000587   119.987998
	   27 B(1,8,9)        =    120.862426    -0.000002    -0.004785   120.857641
	   28 B(1,8,11)       =    116.404055     0.000001     0.002772   116.406826
	   29 B(2,1,8)        =    121.802594    -0.000000    -0.000591   121.802003
	   30 B(2,1,15)       =    118.675850     0.000000     0.000850   118.676700
	   31 B(2,10,5)       =    119.862433    -0.000000    -0.000051   119.862382
	   32 B(2,10,13)      =    123.604823     0.000000     0.000273   123.605096
	   33 B(3,6,12)       =    119.362941     0.000000     0.001017   119.363958
	   34 B(3,6,20)       =    123.619572     0.000000     0.000358   123.619930
	   35 B(3,9,4)        =    116.899782     0.000001     0.001362   116.901144
	   36 B(3,9,8)        =    120.471841    -0.000001    -0.003139   120.468702
	   37 B(4,7,12)       =    119.672594     0.000000    -0.000012   119.672583
	   38 B(4,7,21)       =    123.392793     0.000000     0.000327   123.393120
	   39 B(4,9,8)        =    122.623842     0.000001     0.001842   122.625684
	   40 B(5,10,13)      =    116.532723     0.000000    -0.000220   116.532503
	   41 B(5,11,8)       =    123.145296    -0.000001    -0.002121   123.143175
	   42 B(5,11,14)      =    117.786902     0.000001     0.003484   117.790386
	   43 B(6,3,9)        =    120.987315    -0.000001    -0.001731   120.985584
	   44 B(6,3,17)       =    118.255159     0.000000     0.000557   118.255717
	   45 B(6,12,7)       =    122.446650    -0.000000    -0.000770   122.445880
	   46 B(6,12,22)      =    118.784218     0.000000     0.000098   118.784316
	   47 B(7,4,9)        =    120.630235     0.000000     0.000117   120.630351
	   48 B(7,4,18)       =    118.377852     0.000001     0.003311   118.381162
	   49 B(7,12,22)      =    118.768676     0.000000     0.000670   118.769346
	   50 B(8,1,15)       =    119.451094    -0.000000    -0.000595   119.450499
	   51 B(8,11,14)      =    119.025965    -0.000000    -0.001098   119.024867
	   52 B(9,3,17)       =    120.727721     0.000000     0.000956   120.728677
	   53 B(9,4,18)       =    120.979537    -0.000001    -0.003490   120.976047
	   54 B(9,8,11)       =    122.733352     0.000001     0.001982   122.735334
	   55 B(10,2,16)      =    120.206949     0.000000     0.001513   120.208462
	   56 B(10,5,11)      =    118.974369     0.000000     0.000987   118.975355
	   57 B(10,5,19)      =    120.626716     0.000000     0.001798   120.628514
	   58 B(10,13,23)     =    110.563718     0.000000     0.000968   110.564686
	   59 B(11,5,19)      =    120.396702    -0.000001    -0.002805   120.393897
	   60 B(12,6,20)      =    117.012495    -0.000000    -0.001421   117.011074
	   61 B(12,7,21)      =    116.933088    -0.000000    -0.000356   116.932732
	   62 D(1,2,10,5)     =     -0.429815     0.000000     0.002524    -0.427292
	   63 D(1,2,10,13)    =    179.624524    -0.000000    -0.000061   179.624463
	   64 D(1,8,9,3)      =     29.766938    -0.000000    -0.001732    29.765206
	   65 D(1,8,9,4)      =   -149.434108    -0.000000    -0.007473  -149.441581
	   66 D(1,8,11,5)     =     -0.252115     0.000000     0.010380    -0.241735
	   67 D(1,8,11,14)    =   -177.845242     0.000000     0.002653  -177.842589
	   68 D(2,1,8,9)      =    179.498298     0.000000     0.004552   179.502850
	   69 D(2,1,8,11)     =     -0.646521    -0.000000    -0.008232    -0.654753
	   70 D(2,10,5,11)    =     -0.431240    -0.000000    -0.000598    -0.431838
	   71 D(2,10,5,19)    =    179.029719    -0.000000    -0.003077   179.026642
	   72 D(2,10,13,23)   =     -0.003770     0.000000     0.001519    -0.002251
	   73 D(3,6,12,7)     =      0.050200    -0.000000    -0.003941     0.046260
	   74 D(3,6,12,22)    =   -179.700916    -0.000000    -0.003254  -179.704169
	   75 D(3,9,4,7)      =     -0.250435    -0.000000    -0.007267    -0.257702
	   76 D(3,9,4,18)     =   -178.949895    -0.000000    -0.004013  -178.953908
	   77 D(3,9,8,11)     =   -150.078863     0.000000     0.011880  -150.066983
	   78 D(4,7,12,6)     =     -0.132501     0.000000     0.005762    -0.126739
	   79 D(4,7,12,22)    =    179.618652     0.000000     0.005074   179.623726
	   80 D(4,9,3,6)      =      0.169357     0.000000     0.009097     0.178455
	   81 D(4,9,3,17)     =   -177.810198     0.000000     0.016450  -177.793748
	   82 D(4,9,8,11)     =     30.720090     0.000000     0.006139    30.726229
	   83 D(5,10,2,16)    =    179.028387     0.000000    -0.004871   179.023516
	   84 D(5,10,13,23)   =   -179.951098     0.000000    -0.000986  -179.952085
	   85 D(5,11,8,9)     =    179.600104    -0.000000    -0.002677   179.597427
	   86 D(6,3,9,8)      =   -179.076102     0.000000     0.003669  -179.072433
	   87 D(6,12,7,21)    =    179.433510    -0.000000     0.000038   179.433548
	   88 D(7,4,9,8)      =    178.977419    -0.000000    -0.001752   178.975667
	   89 D(7,12,6,20)    =    179.266929    -0.000000    -0.007545   179.259385
	   90 D(8,1,2,10)     =      0.987890    -0.000000     0.002086     0.989976
	   91 D(8,1,2,16)     =   -178.471508     0.000000     0.009453  -178.462055
	   92 D(8,9,3,17)     =      2.944343     0.000000     0.011021     2.955364
	   93 D(8,9,4,18)     =      0.277959    -0.000000     0.001502     0.279460
	   94 D(8,11,5,10)    =      0.784343    -0.000000    -0.006155     0.778187
	   95 D(8,11,5,19)    =   -178.677891    -0.000000    -0.003708  -178.681598
	   96 D(9,3,6,12)     =     -0.071803    -0.000000    -0.003766    -0.075569
	   97 D(9,3,6,20)     =   -179.233808     0.000000     0.000104  -179.233704
	   98 D(9,4,7,12)     =      0.235806    -0.000000     0.000123     0.235930
	   99 D(9,4,7,21)     =   -179.300773     0.000000     0.006239  -179.294534
	  100 D(9,8,1,15)     =      2.592085     0.000000     0.011880     2.603965
	  101 D(9,8,11,14)    =      2.006978    -0.000000    -0.010405     1.996573
	  102 D(10,2,1,15)    =    177.917303    -0.000000    -0.005230   177.912073
	  103 D(10,5,11,14)   =    178.405474     0.000000     0.001381   178.406855
	  104 D(11,5,10,13)   =    179.518175     0.000000     0.001808   179.519983
	  105 D(11,8,1,15)    =   -177.552734    -0.000000    -0.000904  -177.553638
	  106 D(12,6,3,17)    =    177.956498    -0.000000    -0.010931   177.945566
	  107 D(12,7,4,18)    =    178.968503    -0.000000    -0.003133   178.965369
	  108 D(13,10,2,16)   =     -0.917274    -0.000000    -0.007456    -0.924730
	  109 D(13,10,5,19)   =     -1.020866     0.000000    -0.000671    -1.021537
	  110 D(14,11,5,19)   =     -1.056759     0.000000     0.003828    -1.052931
	  111 D(15,1,2,16)    =     -1.542095     0.000000     0.002137    -1.539958
	  112 D(17,3,6,20)    =     -1.205508    -0.000000    -0.007062    -1.212569
	  113 D(18,4,7,21)    =     -0.568077     0.000000     0.002982    -0.565094
	  114 D(20,6,12,22)   =     -0.484187    -0.000000    -0.006857    -0.491044
	  115 D(21,7,12,22)   =     -0.815337    -0.000000    -0.000650    -0.815988
	  116 R(4,14)         =      2.757566    -0.000012     0.000024     2.757590
	 ---------------------------------------------------------------------------
	Successfully symmetrized geometry.
	 Forces used to impose fixed constraints are not included.
	  Forces zeroed: 72 

  ==> Convergence Check <==

  Measures of convergence in internal coordinates in au.
  Criteria marked as inactive (o), active & met (*), and active & unmet ( ).
  ---------------------------------------------------------------------------------------------
   Step     Total Energy     Delta E     MAX Force     RMS Force      MAX Disp      RMS Disp   
  ---------------------------------------------------------------------------------------------
    Convergence Criteria    1.00e-06 *    3.00e-04 *             o    1.20e-03 *             o
  ---------------------------------------------------------------------------------------------
     16    -653.25134320   -2.74e-07 *    3.41e-05 *    8.00e-06 o    2.87e-04 *    7.60e-05 o  ~
  ---------------------------------------------------------------------------------------------


  **** Optimization is complete! (in 16 steps) ****

  ==> Optimization Summary <==

  Measures of convergence in internal coordinates in au.
  --------------------------------------------------------------------------------------------------------------- ~
   Step         Total Energy             Delta E       MAX Force       RMS Force        MAX Disp        RMS Disp  ~
  --------------------------------------------------------------------------------------------------------------- ~
      1    -653.242688070884   -653.242688070884      0.01677743      0.00466752      0.03519187      0.00926918  ~
      2    -653.246039090230     -0.003351019346      0.00644393      0.00182047      0.03947823      0.00926074  ~
      3    -653.247180685157     -0.001141594927      0.00294394      0.00073300      0.04771906      0.00924994  ~
      4    -653.247828937949     -0.000648252792      0.00286898      0.00058779      0.04762479      0.00924280  ~
      5    -653.248421758850     -0.000592820901      0.00274700      0.00055701      0.04700764      0.00923521  ~
      6    -653.248983391878     -0.000561633029      0.00254590      0.00053775      0.04596844      0.00922977  ~
      7    -653.249509922067     -0.000526530188      0.00232331      0.00049326      0.04481409      0.00922581  ~
      8    -653.249988404281     -0.000478482214      0.00223211      0.00043439      0.04691997      0.00922373  ~
      9    -653.250407555710     -0.000419151429      0.00201572      0.00037211      0.04916692      0.00922219  ~
     10    -653.250758614401     -0.000351058691      0.00166842      0.00030509      0.04994441      0.00922210  ~
     11    -653.251033122950     -0.000274508550      0.00121458      0.00023162      0.04898262      0.00922110  ~
     12    -653.251223232427     -0.000190109477      0.00066045      0.00015783      0.04497153      0.00922192  ~
     13    -653.251323737055     -0.000100504627      0.00031479      0.00009766      0.02854170      0.00562583  ~
     14    -653.251341910075     -0.000018173020      0.00018233      0.00004257      0.00368916      0.00047917  ~
     15    -653.251342920918     -0.000001010843      0.00008281      0.00001367      0.00286218      0.00052722  ~
     16    -653.251343195281     -0.000000274364      0.00003407      0.00000814      0.00028710      0.00007600  ~
  --------------------------------------------------------------------------------------------------------------- ~

	Writing optimization data to binary file.
	Final energy is   -653.2513431952815
	Final (previous) structure:
	Cartesian Geometry (in Angstrom)
	    C    -1.1471780295   1.0509710701  -0.7165310470
	    C    -2.2283248573   1.6194401049  -0.0803511580
	    C     1.4665996570   0.2693498826  -1.8114916616
	    C     1.3842648061  -1.6489153313  -0.3892940505
	    C    -1.5820152714   0.5321447228   1.9705613698
	    C     2.5201166643  -0.2931380723  -2.4862214617
	    C     2.4384890710  -2.1839380242  -1.0865792661
	    C    -0.2611018896   0.1985032176  -0.0464893934
	    C     0.8605867643  -0.3953411960  -0.7366005628
	    C    -2.4487609956   1.3649010478   1.2729233750
	    C    -0.5247292193  -0.0331891081   1.3053140487
	    N     2.9763362419  -1.4981653307  -2.1079479222
	    O    -3.4714909225   1.8833813566   1.9688508236
	    F     0.3168282444  -0.8079631439   2.0101951431
	    H    -1.0129377057   1.2326511228  -1.7719405890
	    H    -2.9068493962   2.2528130049  -0.6314030593
	    H     1.1366222354   1.2510675569  -2.1082624455
	    H     0.9585967076  -2.2233962743   0.4140976304
	    H    -1.7317565882   0.3394217527   3.0201744869
	    H     3.0244722782   0.1845819732  -3.3093678351
	    H     2.8681361996  -3.1466106381  -0.8653041219
	    H     3.7568338623  -1.9028769728  -2.6088573462
	    H    -4.0156209578   2.4439172686   1.4041569489
	Saving final (previous) structure.
			--------------------------
			 OPTKING Finished Execution 
			--------------------------

    Final optimized geometry and variables:
    Molecular point group: c1
    Full point group: C1

    Geometry (in Angstrom), charge = 1, multiplicity = 1:

    C           -1.147178029498     1.050971070124    -0.716531046957
    C           -2.228324857317     1.619440104858    -0.080351157963
    C            1.466599656995     0.269349882581    -1.811491661649
    C            1.384264806053    -1.648915331282    -0.389294050499
    C           -1.582015271423     0.532144722842     1.970561369790
    C            2.520116664293    -0.293138072339    -2.486221461687
    C            2.438489070986    -2.183938024178    -1.086579266142
    C           -0.261101889644     0.198503217555    -0.046489393359
    C            0.860586764268    -0.395341196022    -0.736600562768
    C           -2.448760995579     1.364901047764     1.272923374951
    C           -0.524729219309    -0.033189108081     1.305314048702
    N            2.976336241908    -1.498165330713    -2.107947922222
    O           -3.471490922549     1.883381356614     1.968850823563
    F            0.316828244364    -0.807963143864     2.010195143093
    H           -1.012937705714     1.232651122816    -1.771940589046
    H           -2.906849396162     2.252813004927    -0.631403059282
    H            1.136622235447     1.251067556923    -2.108262445472
    H            0.958596707596    -2.223396274255     0.414097630409
    H           -1.731756588172     0.339421752735     3.020174486865
    H            3.024472278236     0.184581973165    -3.309367835078
    H            2.868136199597    -3.146610638132    -0.865304121943
    H            3.756833862259    -1.902876972777    -2.608857346164
    H           -4.015620957789     2.443917268602     1.404156948936

	Cleaning optimization helper files.

*** Psi4 exiting successfully. Buy a developer a beer!
