
    -----------------------------------------------------------------------
          Psi4: An Open-Source Ab Initio Electronic Structure Package
                               Psi4 1.1 release

                         Git: Rev {HEAD} add49b9 


    R. M. Parrish, L. A. Burns, D. G. A. Smith, A. C. Simmonett,
    A. E. DePrince III, E. G. Hohenstein, U. Bozkaya, A. Yu. Sokolov,
    R. Di Remigio, R. M. Richard, J. F. Gonthier, A. M. James,
    H. R. McAlexander, A. Kumar, M. Saitow, X. Wang, B. P. Pritchard,
    P. Verma, H. F. Schaefer III, K. Patkowski, R. A. King, E. F. Valeev,
    F. A. Evangelista, J. M. Turney, T. D. Crawford, and C. D. Sherrill,
    J. Chem. Theory Comput. in press (2017).
    (doi: 10.1021/acs.jctc.7b00174)

    -----------------------------------------------------------------------


    Psi4 started on: Sunday, 12 November 2017 02:33AM

    Process ID:   2597
    PSIDATADIR: /cbio/jclab/home/chayas/anaconda/envs/py35/share/psi4
    Memory:     500.0 MiB
    Threads:    8
    
  ==> Input File <==

--------------------------------------------------------------------------

memory 5 Gb

molecule phepyrOH_anion {
  symmetry C1
  -1 1 
  C      1.885   -1.036   -0.112
  C      2.878   -1.652   2.002
  C      0.807   -0.463   0.561
  C      1.800   -1.079   2.676
  C      5.330   -1.755   0.128
  C      3.829   -3.272   -0.981
  C      6.367   -2.359   -0.564
  C      4.934   -3.808   -1.624
  C      2.921   -1.631   0.608
  C      4.040   -2.226   -0.090
  C      0.764   -0.484   1.955
  N      6.202   -3.377   -1.437
  O      -0.227   0.042   2.574
  H      1.904   -1.011   -1.199
  H      3.678   -2.112   2.577
  H      0.011   -0.006   -0.025
  H      1.791   -1.108   3.764
  H      5.533   -0.941   0.817
  H      2.837   -3.666   -1.177
  H      7.392   -2.029   -0.427
  H      4.823   -4.625   -2.329
  units Angstrom
}

dih_string = "1 9 10 5 120"
set optking fixed_dihedral = $dih_string

optimize('MP2/aug-cc-PVTZ')
--------------------------------------------------------------------------

  Memory set to   4.657 GiB by Python driver.
gradient() will perform analytic gradient computation.

*** tstart() called on gpu-1-6.local
*** at Sun Nov 12 02:33:51 2017

    SCF Algorithm Type (re)set to DF.

*** tstart() called on gpu-1-6.local
*** at Sun Nov 12 02:33:51 2017

   => Loading Basis Set <=

    Name: AUG-CC-PVTZ
    Role: ORBITAL
    Keyword: BASIS
    atoms 1-11  entry C          line   221 file /cbio/jclab/home/chayas/anaconda/envs/py35/share/psi4/basis/aug-cc-pvtz.gbs 
    atoms 12    entry N          line   267 file /cbio/jclab/home/chayas/anaconda/envs/py35/share/psi4/basis/aug-cc-pvtz.gbs 
    atoms 13    entry O          line   313 file /cbio/jclab/home/chayas/anaconda/envs/py35/share/psi4/basis/aug-cc-pvtz.gbs 
    atoms 14-21 entry H          line    34 file /cbio/jclab/home/chayas/anaconda/envs/py35/share/psi4/basis/aug-cc-pvtz.gbs 


         ---------------------------------------------------------
                                   SCF
            by Justin Turney, Rob Parrish, and Andy Simmonett
                              RHF Reference
                        8 Threads,   4768 MiB Core
         ---------------------------------------------------------

  ==> Geometry <==

    Molecular point group: c1
    Full point group: C1

    Geometry (in Angstrom), charge = -1, multiplicity = 1:

       Center              X                  Y                   Z               Mass       
    ------------   -----------------  -----------------  -----------------  -----------------
           C         -1.278955159874     0.724642302943    -0.569326128804    12.000000000000
           C         -0.285955159874     0.108642302943     1.544673871196    12.000000000000
           C         -2.356955159874     1.297642302943     0.103673871196    12.000000000000
           C         -1.363955159874     0.681642302943     2.218673871196    12.000000000000
           C          2.166044840126     0.005642302943    -0.329326128804    12.000000000000
           C          0.665044840126    -1.511357697057    -1.438326128804    12.000000000000
           C          3.203044840126    -0.598357697057    -1.021326128804    12.000000000000
           C          1.770044840126    -2.047357697057    -2.081326128804    12.000000000000
           C         -0.242955159874     0.129642302943     0.150673871196    12.000000000000
           C          0.876044840126    -0.465357697057    -0.547326128804    12.000000000000
           C         -2.399955159874     1.276642302943     1.497673871196    12.000000000000
           N          3.038044840126    -1.616357697057    -1.894326128804    14.003074004780
           O         -3.390955159874     1.802642302943     2.116673871196    15.994914619560
           H         -1.259955159874     0.749642302943    -1.656326128804     1.007825032070
           H          0.514044840126    -0.351357697057     2.119673871196     1.007825032070
           H         -3.152955159874     1.754642302943    -0.482326128804     1.007825032070
           H         -1.372955159874     0.652642302943     3.306673871196     1.007825032070
           H          2.369044840126     0.819642302943     0.359673871196     1.007825032070
           H         -0.326955159874    -1.905357697057    -1.634326128804     1.007825032070
           H          4.228044840126    -0.268357697057    -0.884326128804     1.007825032070
           H          1.659044840126    -2.864357697057    -2.786326128804     1.007825032070

  Running in c1 symmetry.

  Rotational constants: A =      0.09734  B =      0.01358  C =      0.01269 [cm^-1]
  Rotational constants: A =   2918.19794  B =    407.02389  C =    380.48942 [MHz]
  Nuclear repulsion =  685.967260915497036

  Charge       = -1
  Multiplicity = 1
  Electrons    = 90
  Nalpha       = 45
  Nbeta        = 45

  ==> Algorithm <==

  SCF Algorithm Type is DF.
  DIIS enabled.
  MOM disabled.
  Fractional occupation disabled.
  Guess Type is SAD.
  Energy threshold   = 1.00e-10
  Density threshold  = 1.00e-10
  Integral threshold = 0.00e+00

  ==> Primary Basis <==

  Basis Set: AUG-CC-PVTZ
    Blend: AUG-CC-PVTZ
    Number of shells: 254
    Number of basis function: 782
    Number of Cartesian functions: 915
    Spherical Harmonics?: true
    Max angular momentum: 3

   => Loading Basis Set <=

    Name: (AUG-CC-PVTZ AUX)
    Role: JKFIT
    Keyword: DF_BASIS_SCF
    atoms 1-11  entry C          line   161 file /cbio/jclab/home/chayas/anaconda/envs/py35/share/psi4/basis/aug-cc-pvtz-jkfit.gbs 
    atoms 12    entry N          line   223 file /cbio/jclab/home/chayas/anaconda/envs/py35/share/psi4/basis/aug-cc-pvtz-jkfit.gbs 
    atoms 13    entry O          line   285 file /cbio/jclab/home/chayas/anaconda/envs/py35/share/psi4/basis/aug-cc-pvtz-jkfit.gbs 
    atoms 14-21 entry H          line    69 file /cbio/jclab/home/chayas/anaconda/envs/py35/share/psi4/basis/aug-cc-pvtz-jkfit.gbs 

  ==> Pre-Iterations <==

   -------------------------------------------------------
    Irrep   Nso     Nmo     Nalpha   Nbeta   Ndocc  Nsocc
   -------------------------------------------------------
     A        782     782       0       0       0       0
   -------------------------------------------------------
    Total     782     782      45      45      45       0
   -------------------------------------------------------

  ==> Integral Setup <==

  ==> DFJK: Density-Fitted J/K Matrices <==

    J tasked:                  Yes
    K tasked:                  Yes
    wK tasked:                  No
    OpenMP threads:              8
    Integrals threads:           8
    Memory (MB):              3576
    Algorithm:                Disk
    Integral Cache:           NONE
    Schwarz Cutoff:          1E-12
    Fitting Condition:       1E-12

   => Auxiliary Basis Set <=

  Basis Set: (AUG-CC-PVTZ AUX)
    Blend: AUG-CC-PVTZ-JKFIT
    Number of shells: 502
    Number of basis function: 1720
    Number of Cartesian functions: 2143
    Spherical Harmonics?: true
    Max angular momentum: 4

  Minimum eigenvalue in the overlap matrix is 7.4063085577E-07.
  Using Symmetric Orthogonalization.

  SCF Guess: Superposition of Atomic Densities via on-the-fly atomic UHF.

  ==> Iterations <==

                           Total Energy        Delta E     RMS |[F,P]|

   @DF-RHF iter   0:  -560.79920914793922   -5.60799e+02   1.76083e-02 
   @DF-RHF iter   1:  -550.27796996199493    1.05212e+01   2.17601e-03 
   @DF-RHF iter   2:  -550.59403264668322   -3.16063e-01   1.16336e-03 DIIS
   @DF-RHF iter   3:  -550.68918267135405   -9.51500e-02   4.15455e-04 DIIS
   @DF-RHF iter   4:  -550.70876220176365   -1.95795e-02   1.74135e-04 DIIS
   @DF-RHF iter   5:  -550.71118387457818   -2.42167e-03   3.92708e-05 DIIS
   @DF-RHF iter   6:  -550.71164089661136   -4.57022e-04   2.91805e-05 DIIS
   @DF-RHF iter   7:  -550.71174556487517   -1.04668e-04   1.09656e-05 DIIS
   @DF-RHF iter   8:  -550.71176444569824   -1.88808e-05   3.46752e-06 DIIS
   @DF-RHF iter   9:  -550.71176941036060   -4.96466e-06   2.06161e-06 DIIS
   @DF-RHF iter  10:  -550.71177069229043   -1.28193e-06   9.84956e-07 DIIS
   @DF-RHF iter  11:  -550.71177089443233   -2.02142e-07   2.68225e-07 DIIS
   @DF-RHF iter  12:  -550.71177090730350   -1.28712e-08   9.85383e-08 DIIS
   @DF-RHF iter  13:  -550.71177090885817   -1.55467e-09   4.19772e-08 DIIS
   @DF-RHF iter  14:  -550.71177090926051   -4.02338e-10   1.63504e-08 DIIS
   @DF-RHF iter  15:  -550.71177090936430   -1.03796e-10   7.13673e-09 DIIS
   @DF-RHF iter  16:  -550.71177090935225    1.20508e-11   2.80732e-09 DIIS
   @DF-RHF iter  17:  -550.71177090935475   -2.50111e-12   1.15950e-09 DIIS
   @DF-RHF iter  18:  -550.71177090935907   -4.32010e-12   6.05042e-10 DIIS
   @DF-RHF iter  19:  -550.71177090935953   -4.54747e-13   2.80515e-10 DIIS
   @DF-RHF iter  20:  -550.71177090936385   -4.32010e-12   1.38721e-10 DIIS
   @DF-RHF iter  21:  -550.71177090936010    3.75167e-12   4.46565e-11 DIIS

  ==> Post-Iterations <==

    Orbital Energies (a.u.)
    -----------------------

    Doubly Occupied:                                                      

       1A    -20.288293     2A    -15.458682     3A    -11.171565  
       4A    -11.171381     5A    -11.144755     6A    -11.124757  
       7A    -11.124639     8A    -11.107958     9A    -11.095532  
      10A    -11.095498    11A    -11.072106    12A    -11.055824  
      13A    -11.055786    14A     -1.144749    15A     -1.121240  
      16A     -1.018370    17A     -0.957097    18A     -0.927816  
      19A     -0.862803    20A     -0.835930    21A     -0.748645  
      22A     -0.733653    23A     -0.677989    24A     -0.646632  
      25A     -0.594589    26A     -0.555473    27A     -0.545236  
      28A     -0.502483    29A     -0.493475    30A     -0.487430  
      31A     -0.478939    32A     -0.437478    33A     -0.430051  
      34A     -0.414613    35A     -0.404305    36A     -0.371571  
      37A     -0.356367    38A     -0.345979    39A     -0.312915  
      40A     -0.291685    41A     -0.253070    42A     -0.245876  
      43A     -0.206803    44A     -0.193841    45A     -0.104063  

    Virtual:                                                              

      46A      0.097453    47A      0.099301    48A      0.116457  
      49A      0.116757    50A      0.123997    51A      0.125523  
      52A      0.131356    53A      0.132444    54A      0.161633  
      55A      0.166680    56A      0.180231    57A      0.183947  
      58A      0.184780    59A      0.186536    60A      0.188392  
      61A      0.195631    62A      0.196334    63A      0.202340  
      64A      0.204727    65A      0.210729    66A      0.213306  
      67A      0.216025    68A      0.221848    69A      0.225917  
      70A      0.226417    71A      0.230385    72A      0.231390  
      73A      0.233840    74A      0.238345    75A      0.242103  
      76A      0.249068    77A      0.250614    78A      0.257424  
      79A      0.258227    80A      0.266418    81A      0.268157  
      82A      0.275659    83A      0.283380    84A      0.292253  
      85A      0.293438    86A      0.302198    87A      0.308408  
      88A      0.310569    89A      0.319473    90A      0.322110  
      91A      0.324856    92A      0.331249    93A      0.334686  
      94A      0.336028    95A      0.338635    96A      0.344791  
      97A      0.353505    98A      0.355227    99A      0.359562  
     100A      0.360741   101A      0.369544   102A      0.373272  
     103A      0.375683   104A      0.389421   105A      0.389687  
     106A      0.394728   107A      0.395123   108A      0.397783  
     109A      0.407549   110A      0.411085   111A      0.411376  
     112A      0.414512   113A      0.420002   114A      0.423216  
     115A      0.430300   116A      0.431381   117A      0.445092  
     118A      0.445727   119A      0.448899   120A      0.459826  
     121A      0.462664   122A      0.467458   123A      0.470103  
     124A      0.471193   125A      0.477859   126A      0.486382  
     127A      0.494844   128A      0.504648   129A      0.505354  
     130A      0.505824   131A      0.510760   132A      0.520550  
     133A      0.530569   134A      0.532962   135A      0.538402  
     136A      0.546266   137A      0.548281   138A      0.551090  
     139A      0.557975   140A      0.562595   141A      0.568854  
     142A      0.569808   143A      0.570753   144A      0.573047  
     145A      0.578884   146A      0.582052   147A      0.584622  
     148A      0.592159   149A      0.594227   150A      0.597384  
     151A      0.599167   152A      0.605644   153A      0.606203  
     154A      0.609650   155A      0.610377   156A      0.617386  
     157A      0.620755   158A      0.621799   159A      0.628829  
     160A      0.633249   161A      0.633769   162A      0.634964  
     163A      0.643417   164A      0.646722   165A      0.656114  
     166A      0.660356   167A      0.663925   168A      0.668979  
     169A      0.675674   170A      0.679371   171A      0.689327  
     172A      0.691392   173A      0.698883   174A      0.700883  
     175A      0.711187   176A      0.712657   177A      0.714931  
     178A      0.718895   179A      0.722387   180A      0.724409  
     181A      0.742576   182A      0.747373   183A      0.753927  
     184A      0.755773   185A      0.760613   186A      0.777266  
     187A      0.777753   188A      0.786984   189A      0.793025  
     190A      0.798001   191A      0.801677   192A      0.809047  
     193A      0.812852   194A      0.817385   195A      0.828227  
     196A      0.829442   197A      0.835330   198A      0.846830  
     199A      0.850454   200A      0.854351   201A      0.856597  
     202A      0.858234   203A      0.859277   204A      0.867590  
     205A      0.869893   206A      0.878979   207A      0.882864  
     208A      0.891175   209A      0.896902   210A      0.902052  
     211A      0.918816   212A      0.922784   213A      0.931190  
     214A      0.938752   215A      0.951127   216A      0.952868  
     217A      0.960513   218A      0.964614   219A      0.976770  
     220A      0.977104   221A      0.982727   222A      0.987362  
     223A      0.995377   224A      1.005524   225A      1.010789  
     226A      1.014702   227A      1.015245   228A      1.021730  
     229A      1.024441   230A      1.025218   231A      1.026163  
     232A      1.036356   233A      1.039983   234A      1.049529  
     235A      1.052303   236A      1.054571   237A      1.056050  
     238A      1.062998   239A      1.065063   240A      1.069234  
     241A      1.077956   242A      1.080618   243A      1.085806  
     244A      1.090190   245A      1.091138   246A      1.096885  
     247A      1.099618   248A      1.108366   249A      1.109972  
     250A      1.118163   251A      1.124793   252A      1.125370  
     253A      1.135023   254A      1.140316   255A      1.144368  
     256A      1.146579   257A      1.155422   258A      1.164400  
     259A      1.164836   260A      1.167590   261A      1.168516  
     262A      1.172069   263A      1.172292   264A      1.184541  
     265A      1.188463   266A      1.193746   267A      1.204109  
     268A      1.206800   269A      1.208521   270A      1.211739  
     271A      1.223391   272A      1.228942   273A      1.239292  
     274A      1.240675   275A      1.245634   276A      1.246018  
     277A      1.250089   278A      1.255146   279A      1.266867  
     280A      1.268617   281A      1.273235   282A      1.277121  
     283A      1.285843   284A      1.286104   285A      1.296844  
     286A      1.300096   287A      1.301605   288A      1.306102  
     289A      1.311821   290A      1.317463   291A      1.320536  
     292A      1.327326   293A      1.332820   294A      1.333921  
     295A      1.335707   296A      1.345763   297A      1.348935  
     298A      1.356509   299A      1.369736   300A      1.375979  
     301A      1.380990   302A      1.382304   303A      1.388995  
     304A      1.401637   305A      1.408419   306A      1.409192  
     307A      1.413868   308A      1.414484   309A      1.419455  
     310A      1.432326   311A      1.435591   312A      1.444035  
     313A      1.449892   314A      1.451738   315A      1.471881  
     316A      1.478877   317A      1.488313   318A      1.493297  
     319A      1.493901   320A      1.505926   321A      1.509617  
     322A      1.518633   323A      1.528890   324A      1.533880  
     325A      1.536116   326A      1.543178   327A      1.562127  
     328A      1.570810   329A      1.574954   330A      1.582465  
     331A      1.588240   332A      1.592167   333A      1.598499  
     334A      1.615702   335A      1.628793   336A      1.629055  
     337A      1.644101   338A      1.649026   339A      1.663760  
     340A      1.669824   341A      1.677935   342A      1.680233  
     343A      1.688415   344A      1.691775   345A      1.707540  
     346A      1.708470   347A      1.714370   348A      1.731812  
     349A      1.739286   350A      1.742320   351A      1.754390  
     352A      1.757966   353A      1.770052   354A      1.770183  
     355A      1.780879   356A      1.806996   357A      1.808813  
     358A      1.817170   359A      1.820666   360A      1.827203  
     361A      1.833908   362A      1.834551   363A      1.841852  
     364A      1.843690   365A      1.850478   366A      1.862860  
     367A      1.877685   368A      1.881137   369A      1.882997  
     370A      1.896715   371A      1.911602   372A      1.920991  
     373A      1.925376   374A      1.932365   375A      1.937902  
     376A      1.945464   377A      1.963580   378A      1.976111  
     379A      1.979913   380A      1.992301   381A      1.998417  
     382A      2.001639   383A      2.014571   384A      2.021144  
     385A      2.021487   386A      2.032051   387A      2.034192  
     388A      2.047211   389A      2.066456   390A      2.075845  
     391A      2.076633   392A      2.082314   393A      2.089559  
     394A      2.092664   395A      2.099372   396A      2.104972  
     397A      2.108426   398A      2.125694   399A      2.132377  
     400A      2.142455   401A      2.149895   402A      2.160888  
     403A      2.164243   404A      2.166441   405A      2.168927  
     406A      2.176370   407A      2.187493   408A      2.199539  
     409A      2.203830   410A      2.206927   411A      2.220308  
     412A      2.230841   413A      2.241720   414A      2.256338  
     415A      2.257562   416A      2.264155   417A      2.268664  
     418A      2.283052   419A      2.288279   420A      2.298897  
     421A      2.302447   422A      2.311722   423A      2.314535  
     424A      2.327757   425A      2.339041   426A      2.345090  
     427A      2.357727   428A      2.358484   429A      2.372113  
     430A      2.379560   431A      2.382326   432A      2.405741  
     433A      2.410008   434A      2.417082   435A      2.418601  
     436A      2.422788   437A      2.426457   438A      2.457234  
     439A      2.465384   440A      2.478882   441A      2.498447  
     442A      2.514818   443A      2.518678   444A      2.526481  
     445A      2.532871   446A      2.552928   447A      2.558576  
     448A      2.563644   449A      2.584769   450A      2.586489  
     451A      2.598299   452A      2.601307   453A      2.619053  
     454A      2.634198   455A      2.642573   456A      2.655400  
     457A      2.668398   458A      2.673287   459A      2.686503  
     460A      2.692381   461A      2.699524   462A      2.709329  
     463A      2.712893   464A      2.744462   465A      2.751894  
     466A      2.757052   467A      2.759564   468A      2.782889  
     469A      2.806583   470A      2.824418   471A      2.830347  
     472A      2.869349   473A      2.877844   474A      2.887768  
     475A      2.894834   476A      2.908616   477A      2.915542  
     478A      2.943056   479A      2.945418   480A      2.963643  
     481A      2.964529   482A      3.004501   483A      3.018776  
     484A      3.036436   485A      3.048523   486A      3.080627  
     487A      3.121499   488A      3.135518   489A      3.139438  
     490A      3.177841   491A      3.197110   492A      3.206793  
     493A      3.232751   494A      3.235123   495A      3.285519  
     496A      3.312418   497A      3.323313   498A      3.338280  
     499A      3.345624   500A      3.375782   501A      3.378190  
     502A      3.391871   503A      3.396078   504A      3.401649  
     505A      3.438659   506A      3.445362   507A      3.445881  
     508A      3.456711   509A      3.469446   510A      3.510712  
     511A      3.511632   512A      3.521749   513A      3.527794  
     514A      3.531598   515A      3.545102   516A      3.549632  
     517A      3.566363   518A      3.571193   519A      3.579167  
     520A      3.596911   521A      3.599139   522A      3.606364  
     523A      3.628934   524A      3.632013   525A      3.651815  
     526A      3.654255   527A      3.663189   528A      3.678555  
     529A      3.684608   530A      3.685080   531A      3.694274  
     532A      3.697447   533A      3.701884   534A      3.711038  
     535A      3.719114   536A      3.727437   537A      3.733174  
     538A      3.749003   539A      3.756923   540A      3.766140  
     541A      3.770754   542A      3.780817   543A      3.799118  
     544A      3.799953   545A      3.819384   546A      3.824384  
     547A      3.828901   548A      3.833685   549A      3.842833  
     550A      3.859406   551A      3.865971   552A      3.870889  
     553A      3.891538   554A      3.902278   555A      3.915961  
     556A      3.918394   557A      3.933020   558A      3.943086  
     559A      3.952784   560A      3.956402   561A      3.958922  
     562A      3.970350   563A      3.978792   564A      3.999200  
     565A      3.999992   566A      4.018276   567A      4.021527  
     568A      4.027354   569A      4.050774   570A      4.051659  
     571A      4.064528   572A      4.069854   573A      4.072909  
     574A      4.080609   575A      4.090512   576A      4.101210  
     577A      4.112290   578A      4.114004   579A      4.120087  
     580A      4.144947   581A      4.147521   582A      4.157571  
     583A      4.161993   584A      4.166449   585A      4.174477  
     586A      4.186806   587A      4.196163   588A      4.208618  
     589A      4.214124   590A      4.214511   591A      4.228098  
     592A      4.241019   593A      4.253008   594A      4.261906  
     595A      4.262402   596A      4.272339   597A      4.291518  
     598A      4.295675   599A      4.310418   600A      4.313512  
     601A      4.322446   602A      4.331313   603A      4.345272  
     604A      4.350593   605A      4.360197   606A      4.381897  
     607A      4.383848   608A      4.410124   609A      4.411238  
     610A      4.421891   611A      4.438168   612A      4.444966  
     613A      4.445716   614A      4.456208   615A      4.466650  
     616A      4.467287   617A      4.482364   618A      4.504028  
     619A      4.505620   620A      4.518078   621A      4.520238  
     622A      4.525281   623A      4.525320   624A      4.550611  
     625A      4.562491   626A      4.566249   627A      4.574224  
     628A      4.575903   629A      4.602222   630A      4.610328  
     631A      4.611992   632A      4.617605   633A      4.642450  
     634A      4.659157   635A      4.665346   636A      4.670186  
     637A      4.686094   638A      4.686820   639A      4.703152  
     640A      4.710291   641A      4.746021   642A      4.750387  
     643A      4.765075   644A      4.784373   645A      4.786900  
     646A      4.811711   647A      4.827670   648A      4.840306  
     649A      4.842544   650A      4.873622   651A      4.880547  
     652A      4.901654   653A      4.931784   654A      4.945107  
     655A      4.947462   656A      4.965031   657A      4.985172  
     658A      5.001464   659A      5.012848   660A      5.029340  
     661A      5.040983   662A      5.060918   663A      5.074923  
     664A      5.082825   665A      5.095574   666A      5.105006  
     667A      5.118223   668A      5.127993   669A      5.131834  
     670A      5.151151   671A      5.158343   672A      5.169158  
     673A      5.171489   674A      5.185432   675A      5.193057  
     676A      5.220108   677A      5.236696   678A      5.248349  
     679A      5.261308   680A      5.269848   681A      5.274972  
     682A      5.277567   683A      5.285583   684A      5.303562  
     685A      5.303839   686A      5.312280   687A      5.314527  
     688A      5.329354   689A      5.353519   690A      5.356567  
     691A      5.379144   692A      5.393424   693A      5.410128  
     694A      5.459758   695A      5.470922   696A      5.480966  
     697A      5.484655   698A      5.492331   699A      5.507061  
     700A      5.513571   701A      5.527781   702A      5.553518  
     703A      5.565317   704A      5.569169   705A      5.583459  
     706A      5.587251   707A      5.645376   708A      5.655329  
     709A      5.670891   710A      5.685055   711A      5.697109  
     712A      5.765010   713A      5.775610   714A      5.825000  
     715A      5.827385   716A      5.863884   717A      5.878777  
     718A      5.898710   719A      5.904013   720A      5.919836  
     721A      5.944102   722A      5.965329   723A      5.980706  
     724A      5.988141   725A      6.014739   726A      6.086002  
     727A      6.133964   728A      6.185165   729A      6.247658  
     730A      6.248742   731A      6.295935   732A      6.303274  
     733A      6.340717   734A      6.395778   735A      6.402183  
     736A      6.452437   737A      6.462547   738A      6.473138  
     739A      6.544021   740A      6.611318   741A      6.612592  
     742A      6.659201   743A      6.693948   744A      6.725074  
     745A      6.803680   746A      6.827279   747A      6.827642  
     748A      6.891373   749A      6.908192   750A      6.976960  
     751A      6.993379   752A      7.027224   753A      7.039485  
     754A      7.073745   755A      7.144244   756A      7.184238  
     757A      7.200128   758A      7.256390   759A      7.316055  
     760A      7.361358   761A      7.367773   762A      7.527584  
     763A      7.625423   764A      7.651698   765A      7.941983  
     766A      7.953399   767A      8.034667   768A      8.158812  
     769A      8.227173   770A     15.718356   771A     16.119930  
     772A     16.405362   773A     16.675380   774A     16.999164  
     775A     18.530855   776A     18.810057   777A     19.331196  
     778A     19.908623   779A     20.202717   780A     20.217101  
     781A     20.339560   782A     21.846067  

    Final Occupation by Irrep:
              A 
    DOCC [    45 ]

  Energy converged.

  @DF-RHF Final Energy:  -550.71177090936010

   => Energetics <=

    Nuclear Repulsion Energy =            685.9672609154970360
    One-Electron Energy =               -2122.0221774359524716
    Two-Electron Energy =                 885.3431456110953377
    DFT Exchange-Correlation Energy =       0.0000000000000000
    Empirical Dispersion Energy =           0.0000000000000000
    PCM Polarization Energy =               0.0000000000000000
    EFP Energy =                            0.0000000000000000
    Total Energy =                       -550.7117709093600979



Properties will be evaluated at   0.000000,   0.000000,   0.000000 Bohr

Properties computed using the SCF density matrix

  Nuclear Dipole Moment: (a.u.)
     X:     2.4661      Y:    -1.3112      Z:    -1.5383

  Electronic Dipole Moment: (a.u.)
     X:     0.6059      Y:    -0.3227      Z:    -0.3806

  Dipole Moment: (a.u.)
     X:     3.0720      Y:    -1.6339      Z:    -1.9189     Total:     3.9735

  Dipole Moment: (Debye)
     X:     7.8083      Y:    -4.1528      Z:    -4.8774     Total:    10.0997


*** tstop() called on gpu-1-6.local at Sun Nov 12 02:42:12 2017
Module time:
	user time   =    1155.00 seconds =      19.25 minutes
	system time =      55.53 seconds =       0.93 minutes
	total time  =        501 seconds =       8.35 minutes
Total time:
	user time   =    1155.01 seconds =      19.25 minutes
	system time =      55.53 seconds =       0.93 minutes
	total time  =        501 seconds =       8.35 minutes

  //>>>>>>>>>>>>>>>>>>>>>>>>>>>>>>>>>>>//
  //               DFMP2               //
  //<<<<<<<<<<<<<<<<<<<<<<<<<<<<<<<<<<<//

   => Loading Basis Set <=

    Name: (AUG-CC-PVTZ AUX)
    Role: RIFIT
    Keyword: DF_BASIS_MP2
    atoms 1-11  entry C          line   147 file /cbio/jclab/home/chayas/anaconda/envs/py35/share/psi4/basis/aug-cc-pvtz-ri.gbs 
    atoms 12    entry N          line   205 file /cbio/jclab/home/chayas/anaconda/envs/py35/share/psi4/basis/aug-cc-pvtz-ri.gbs 
    atoms 13    entry O          line   263 file /cbio/jclab/home/chayas/anaconda/envs/py35/share/psi4/basis/aug-cc-pvtz-ri.gbs 
    atoms 14-21 entry H          line    29 file /cbio/jclab/home/chayas/anaconda/envs/py35/share/psi4/basis/aug-cc-pvtz-ri.gbs 

	 --------------------------------------------------------
	                          DF-MP2                         
	      2nd-Order Density-Fitted Moller-Plesset Theory     
	              RMP2 Wavefunction,   8 Threads             
	                                                         
	        Rob Parrish, Justin Turney, Andy Simmonett,      
	           Ed Hohenstein, and C. David Sherrill          
	 --------------------------------------------------------

   => Auxiliary Basis Set <=

  Basis Set: (AUG-CC-PVTZ AUX)
    Blend: AUG-CC-PVTZ-RI
    Number of shells: 476
    Number of basis function: 1746
    Number of Cartesian functions: 2208
    Spherical Harmonics?: true
    Max angular momentum: 4

	 --------------------------------------------------------
	                 NBF =   782, NAUX =  1746
	 --------------------------------------------------------
	   CLASS    FOCC     OCC    AOCC    AVIR     VIR    FVIR
	   PAIRS       0      45      45     737     737       0
	 --------------------------------------------------------


         ------------------------------------------------------------
                                     CPHF                           
                                  Rob Parrish                       
         ------------------------------------------------------------

  ==> Geometry <==

    Molecular point group: c1
    Full point group: C1

    Geometry (in Angstrom), charge = -1, multiplicity = 1:

       Center              X                  Y                   Z               Mass       
    ------------   -----------------  -----------------  -----------------  -----------------
           C         -1.278955159874     0.724642302943    -0.569326128804    12.000000000000
           C         -0.285955159874     0.108642302943     1.544673871196    12.000000000000
           C         -2.356955159874     1.297642302943     0.103673871196    12.000000000000
           C         -1.363955159874     0.681642302943     2.218673871196    12.000000000000
           C          2.166044840126     0.005642302943    -0.329326128804    12.000000000000
           C          0.665044840126    -1.511357697057    -1.438326128804    12.000000000000
           C          3.203044840126    -0.598357697057    -1.021326128804    12.000000000000
           C          1.770044840126    -2.047357697057    -2.081326128804    12.000000000000
           C         -0.242955159874     0.129642302943     0.150673871196    12.000000000000
           C          0.876044840126    -0.465357697057    -0.547326128804    12.000000000000
           C         -2.399955159874     1.276642302943     1.497673871196    12.000000000000
           N          3.038044840126    -1.616357697057    -1.894326128804    14.003074004780
           O         -3.390955159874     1.802642302943     2.116673871196    15.994914619560
           H         -1.259955159874     0.749642302943    -1.656326128804     1.007825032070
           H          0.514044840126    -0.351357697057     2.119673871196     1.007825032070
           H         -3.152955159874     1.754642302943    -0.482326128804     1.007825032070
           H         -1.372955159874     0.652642302943     3.306673871196     1.007825032070
           H          2.369044840126     0.819642302943     0.359673871196     1.007825032070
           H         -0.326955159874    -1.905357697057    -1.634326128804     1.007825032070
           H          4.228044840126    -0.268357697057    -0.884326128804     1.007825032070
           H          1.659044840126    -2.864357697057    -2.786326128804     1.007825032070

  Nuclear repulsion =  685.967260915497036
  Reference energy  = -550.711770909360098

  ==> Basis Set <==

  Basis Set: AUG-CC-PVTZ
    Blend: AUG-CC-PVTZ
    Number of shells: 254
    Number of basis function: 782
    Number of Cartesian functions: 915
    Spherical Harmonics?: true
    Max angular momentum: 3

  ==> CGRSolver (by Rob Parrish) <==

   Number of roots    =         1
   Preconditioning    =    JACOBI
   Convergence cutoff =     1E-06
   Maximum iterations =       100

  ==> CPHFRHamiltonian (by Rob Parrish) <== 

  ==> DFJK: Density-Fitted J/K Matrices <==

    J tasked:                  Yes
    K tasked:                  Yes
    wK tasked:                  No
    OpenMP threads:              8
    Integrals threads:           8
    Memory (MB):              3576
    Algorithm:                Disk
    Integral Cache:           NONE
    Schwarz Cutoff:          1E-12
    Fitting Condition:       1E-12

   => Auxiliary Basis Set <=

  Basis Set: (AUG-CC-PVTZ AUX)
    Blend: AUG-CC-PVTZ-JKFIT
    Number of shells: 502
    Number of basis function: 1720
    Number of Cartesian functions: 2143
    Spherical Harmonics?: true
    Max angular momentum: 4

  ==> CPHF Iterations <==

  => Iterations <=

             Iter  Converged  Remaining    Residual
  CGR           1          0          1   1.311E-01
  CGR           2          0          1   4.943E-02
  CGR           3          0          1   2.918E-02
  CGR           4          0          1   1.055E-02
  CGR           5          0          1   4.762E-03
  CGR           6          0          1   2.533E-03
  CGR           7          0          1   7.377E-04
  CGR           8          0          1   2.322E-04
  CGR           9          0          1   8.832E-05
  CGR          10          0          1   2.675E-05
  CGR          11          0          1   9.957E-06
  CGR          12          0          1   2.691E-06
  CGR          13          1          0   8.946E-07

    CGRSolver converged.

  ==> DFCorrGrad: Density-Fitted Correlated Gradients <==

    OpenMP threads:              8
    Integrals threads:           8
    Memory (MB):              3576
    Schwarz Cutoff:          0E+00
    Fitting Condition:       1E-12

   => Auxiliary Basis Set <=

  Basis Set: (AUG-CC-PVTZ AUX)
    Blend: AUG-CC-PVTZ-JKFIT
    Number of shells: 502
    Number of basis function: 1720
    Number of Cartesian functions: 2143
    Spherical Harmonics?: true
    Max angular momentum: 4

	-----------------------------------------------------------
	 ==================> DF-MP2 Energies <==================== 
	-----------------------------------------------------------
	 Reference Energy          =    -550.7117709093600979 [Eh]
	 Singles Energy            =      -0.0000000000000001 [Eh]
	 Same-Spin Energy          =      -0.6134548682486949 [Eh]
	 Opposite-Spin Energy      =      -1.8375315633663474 [Eh]
	 Correlation Energy        =      -2.4509864316150423 [Eh]
	 Total Energy              =    -553.1627573409751903 [Eh]
	-----------------------------------------------------------
	 ================> DF-SCS-MP2 Energies <================== 
	-----------------------------------------------------------
	 SCS Same-Spin Scale       =       0.3333333333333333 [-]
	 SCS Opposite-Spin Scale   =       1.2000000000000000 [-]
	 SCS Same-Spin Energy      =      -0.2044849560828983 [Eh]
	 SCS Opposite-Spin Energy  =      -2.2050378760396168 [Eh]
	 SCS Correlation Energy    =      -2.4095228321225148 [Eh]
	 SCS Total Energy          =    -553.1212937414826456 [Eh]
	-----------------------------------------------------------


  -Total Gradient:
     Atom            X                  Y                   Z
    ------   -----------------  -----------------  -----------------
       1        0.015428574168    -0.002114936944    -0.005352930886
       2        0.008735220118    -0.010716051132    -0.009764118916
       3       -0.022012466351     0.010938789740     0.035859567370
       4       -0.038097583844     0.020871086667     0.002553617325
       5       -0.009178400511     0.009822553484     0.004658907231
       6       -0.012771199981     0.001518826470     0.008796534146
       7       -0.002271405219     0.009081555338     0.006013976299
       8       -0.010823167433    -0.002721334153     0.001303809862
       9       -0.005741999235     0.002888739618     0.003476971516
      10        0.013253133096    -0.007118989296    -0.008283858146
      11        0.047830293586    -0.025245611077    -0.030390985948
      12        0.009167709407    -0.004183557275    -0.004962082951
      13        0.002210282696    -0.001239403024    -0.001302560597
      14       -0.002929066311     0.001360049694    -0.002851264435
      15        0.000654525560    -0.000123131803     0.004140888516
      16       -0.002236762396     0.000658560347    -0.008838055827
      17        0.005723801451    -0.002492817614     0.006318237381
      18        0.004232852164     0.003051328246     0.002989526739
      19       -0.003149843956    -0.003454204863    -0.003457217438
      20        0.001954860778     0.000039887266     0.000448546842
      21        0.000020642206    -0.000821339697    -0.001357508070


*** tstop() called on gpu-1-6.local at Sun Nov 12 03:10:33 2017
Module time:
	user time   =    4714.28 seconds =      78.57 minutes
	system time =     113.81 seconds =       1.90 minutes
	total time  =       2202 seconds =      36.70 minutes
Total time:
	user time   =    4714.29 seconds =      78.57 minutes
	system time =     113.81 seconds =       1.90 minutes
	total time  =       2202 seconds =      36.70 minutes

			-----------------------------------------
			 OPTKING 2.0: for geometry optimizations 
			  - R.A. King,  Bethel University        
			-----------------------------------------

	Internal coordinates to be generated automatically.
	Detected frag 1 with atoms:  1 2 3 4 5 6 7 8 9 10 11 12 13 14 15 16 17 18 19 20
	 21
	---Fragment 1 Bond Connectivity---
	 1 : 3 9 14
	 2 : 4 9 15
	 3 : 1 11 16
	 4 : 2 11 17
	 5 : 7 10 18
	 6 : 8 10 19
	 7 : 5 12 20
	 8 : 6 12 21
	 9 : 1 2 10
	 10 : 5 6 9
	 11 : 3 4 13
	 12 : 7 8
	 13 : 11
	 14 : 1
	 15 : 2
	 16 : 3
	 17 : 4
	 18 : 5
	 19 : 6
	 20 : 7
	 21 : 8

	Assuming in current code that numbering for constraints corresponds to unified fragment.
	Fixed dihedral atom list: 
	     1     9    10     5
	---Fragment 1 Geometry and Gradient---
	 C          -2.4168749884        1.3693754969       -1.0758704637
	 C          -0.5403769384        0.2053041990        2.9190105812
	 C          -4.4539997597        2.4521885710        0.1959152237
	 C          -2.5775017097        1.2881172732        4.1926859947
	 C           4.0932315394        0.0106624073       -0.6223361918
	 C           1.2567526139       -2.8560521363       -2.7180424732
	 C           6.0528775392       -1.1307321769       -1.9300266758
	 C           3.3448999908       -3.8689453435       -3.9331363767
	 C          -0.4591187147        0.2449884478        0.2847323519
	 C           1.6554848280       -0.8793986013       -1.0342964888
	 C          -4.5352579834        2.4125043222        2.8301934529
	 N           5.7410727273       -3.0544733802       -3.5797575898
	 O          -6.4079765811        3.4065002681        3.9999339292
	 H          -2.3809701919        1.4166186502       -3.1300027702
	 H           0.9714039679       -0.6639698221        4.0056031076
	 H          -5.9582217614        3.3157934137       -0.9114642902
	 H          -2.5945092449        1.2333152153        6.2487080273
	 H           4.4768459444        1.5488994795        0.6796851137
	 H          -0.6178557099       -3.6006042326       -3.0884287953
	 H           7.9898468254       -0.5071225531       -1.6711341956
	 H           3.1351403900       -5.4128515941       -5.2653933003
	             0.0154285742       -0.0021149369       -0.0053529309
	             0.0087352201       -0.0107160511       -0.0097641189
	            -0.0220124664        0.0109387897        0.0358595674
	            -0.0380975838        0.0208710867        0.0025536173
	            -0.0091784005        0.0098225535        0.0046589072
	            -0.0127712000        0.0015188265        0.0087965341
	            -0.0022714052        0.0090815553        0.0060139763
	            -0.0108231674       -0.0027213342        0.0013038099
	            -0.0057419992        0.0028887396        0.0034769715
	             0.0132531331       -0.0071189893       -0.0082838581
	             0.0478302936       -0.0252456111       -0.0303909859
	             0.0091677094       -0.0041835573       -0.0049620830
	             0.0022102827       -0.0012394030       -0.0013025606
	            -0.0029290663        0.0013600497       -0.0028512644
	             0.0006545256       -0.0001231318        0.0041408885
	            -0.0022367624        0.0006585603       -0.0088380558
	             0.0057238015       -0.0024928176        0.0063182374
	             0.0042328522        0.0030513282        0.0029895267
	            -0.0031498440       -0.0034542049       -0.0034572174
	             0.0019548608        0.0000398873        0.0004485468
	             0.0000206422       -0.0008213397       -0.0013575081

	Previous optimization step data not found.  Starting new optimization.

	---Fragment 1 Intrafragment Coordinates---
	 - Coordinate -           - BOHR/RAD -       - ANG/DEG -
	 R(1,3)           =         2.634350	       1.394038
	 R(1,9)           =         2.635962	       1.394891
	 R(1,14)          =         2.054989	       1.087453
	 R(2,4)           =         2.635263	       1.394521
	 R(2,9)           =         2.635830	       1.394821
	 R(2,15)          =         2.054702	       1.087302
	 R(3,11)          =         2.635830	       1.394821
	 R(3,16)          =         2.057860	       1.088972
	 R(4,11)          =         2.636938	       1.395407
	 R(4,17)          =         2.056823	       1.088424
	 R(5,7)           =         2.617833	       1.385297
	 R(5,10)          =         2.627647	       1.390491
	 R(5,18)          =         2.051486	       1.085599
	 R(6,8)           =         2.619688	       1.386279
	 R(6,10)          =         2.627003	       1.390150
	 R(6,19)          =         2.050780	       1.085226
	 R(7,12)          =         2.553354	       1.351177
	 R(7,20)          =         2.051284	       1.085493
	 R(8,12)          =         2.555364	       1.352240
	 R(8,21)          =         2.050013	       1.084820
	 R(9,10)          =         2.734160	       1.446855
	 R(11,13)         =         2.421445	       1.281373
	 B(1,3,11)        =         2.094553	     120.009056
	 B(1,3,16)        =         2.069123	     118.552025
	 B(1,9,2)         =         2.093692	     119.959722
	 B(1,9,10)        =         2.095337	     120.053983
	 B(2,4,11)        =         2.093699	     119.960108
	 B(2,4,17)        =         2.069829	     118.592446
	 B(2,9,10)        =         2.094156	     119.986294
	 B(3,1,9)         =         2.094940	     120.031219
	 B(3,1,14)        =         2.079025	     119.119344
	 B(3,11,4)        =         2.094306	     119.994870
	 B(3,11,13)       =         2.094918	     120.029973
	 B(4,2,9)         =         2.095181	     120.045019
	 B(4,2,15)        =         2.079455	     119.143974
	 B(4,11,13)       =         2.093961	     119.975136
	 B(5,7,12)        =         2.164979	     124.044176
	 B(5,7,20)        =         2.107450	     120.747971
	 B(5,10,6)        =         2.089979	     119.746987
	 B(5,10,9)        =         2.097372	     120.170540
	 B(6,8,12)        =         2.165257	     124.060103
	 B(6,8,21)        =         2.107220	     120.734789
	 B(6,10,9)        =         2.095834	     120.082460
	 B(7,5,10)        =         2.058356	     117.935118
	 B(7,5,18)        =         2.099004	     120.264043
	 B(7,12,8)        =         2.030848	     116.359018
	 B(8,6,10)        =         2.056950	     117.854573
	 B(8,6,19)        =         2.099572	     120.296614
	 B(9,1,14)        =         2.109221	     120.849435
	 B(9,2,15)        =         2.108550	     120.811005
	 B(10,5,18)       =         2.125825	     121.800793
	 B(10,6,19)       =         2.126663	     121.848807
	 B(11,3,16)       =         2.119509	     121.438903
	 B(11,4,17)       =         2.119657	     121.447411
	 B(12,7,20)       =         2.010754	     115.207725
	 B(12,8,21)       =         2.010708	     115.205106
	 D(1,3,11,4)      =        -0.000325	      -0.018609
	 D(1,3,11,13)     =        -3.141004	    -179.966279
	 D(1,9,2,4)       =         0.000325	       0.018608
	 D(1,9,2,15)      =        -3.141527	    -179.996257
	 D(1,9,10,5)      =         2.093815	     119.966775
	 D(1,9,10,6)      =        -1.048502	     -60.074736
	 D(2,4,11,3)      =         0.000301	       0.017261
	 D(2,4,11,13)     =         3.140981	     179.964960
	 D(2,9,1,3)       =        -0.000348	      -0.019945
	 D(2,9,1,14)      =         3.141027	     179.967567
	 D(2,9,10,5)      =        -1.047560	     -60.020785
	 D(2,9,10,6)      =         2.093308	     119.937704
	 D(3,1,9,10)      =         3.141462	     179.992491
	 D(3,11,4,17)     =         3.140700	     179.948827
	 D(4,2,9,10)      =        -3.141485	    -179.993820
	 D(4,11,3,16)     =         3.140472	     179.935781
	 D(5,7,12,8)      =         0.000688	       0.039441
	 D(5,10,6,8)      =        -0.000268	      -0.015349
	 D(5,10,6,19)     =        -3.141363	    -179.986836
	 D(6,8,12,7)      =        -0.001097	      -0.062844
	 D(6,10,5,7)      =        -0.000098	      -0.005595
	 D(6,10,5,18)     =        -3.140325	    -179.927395
	 D(7,5,10,9)      =         3.140773	     179.953034
	 D(7,12,8,21)     =         3.140754	     179.951923
	 D(8,6,10,9)      =        -3.141139	    -179.974015
	 D(8,12,7,20)     =         3.140020	     179.909895
	 D(9,1,3,11)      =         0.000348	       0.019955
	 D(9,1,3,16)      =        -3.140471	    -179.935743
	 D(9,2,4,11)      =        -0.000301	      -0.017270
	 D(9,2,4,17)      =        -3.140734	    -179.950778
	 D(9,10,5,18)     =         0.000545	       0.031233
	 D(9,10,6,19)     =         0.000951	       0.054498
	 D(10,5,7,12)     =        -0.000119	      -0.006829
	 D(10,5,7,20)     =        -3.139332	    -179.870448
	 D(10,6,8,12)     =         0.000908	       0.052033
	 D(10,6,8,21)     =        -3.140956	    -179.963512
	 D(10,9,1,14)     =        -0.000349	      -0.019997
	 D(10,9,2,15)     =        -0.000152	      -0.008685
	 D(11,3,1,14)     =        -3.141030	    -179.967773
	 D(11,4,2,15)     =         3.141546	     179.997347
	 D(12,7,5,18)     =         3.140130	     179.916224
	 D(12,8,6,19)     =        -3.141174	    -179.976019
	 D(13,11,3,16)    =        -0.000207	      -0.011889
	 D(13,11,4,17)    =        -0.001806	      -0.103475
	 D(14,1,3,16)     =         0.001336	       0.076530
	 D(15,2,4,17)     =         0.001114	       0.063839
	 D(18,5,7,20)     =         0.000918	       0.052604
	 D(19,6,8,21)     =         0.000147	       0.008436

	Current energy   :      -553.1627573410

	Generating empirical Hessian (Schlegel '84) for each fragment.
	Adding user-defined constraint: Fragment 1; Coordinate 61:
		Value =     2.093815; Fixed value    =     2.094395
		Force =     0.000290; Force constant =     0.500000
	Removing off-diagonal coupling between coordinate 61 and others.
	Taking RFO optimization step.
	Going to follow RFO solution 1.
	Using RFO vector 1.

	Determining step-restricting scale parameter for RS-RFO.
	Maximum step size allowed    0.10000

	 Iter      |step|        alpha        rfo_root  
	------------------------------------------------
	    0     0.28767       1.00000           1
	    1     0.21206       4.07156           1
	    2     0.15712      13.80315           1
	    3     0.12163      31.73985           1
	    4     0.10488      48.60385           1
	    5     0.10035      54.88599           1
	    6     0.10000      55.40553           1
	------------------------------------------------
	Norm of target step-size    0.10000
	Projected energy change by RFO approximation:        -0.0064314454

	Back-transformation to cartesian coordinates...
	Could not converge backtransformation.
	Using first guess instead.

	--- Internal Coordinate Step in ANG or DEG, aJ/ANG or AJ/DEG ---
	 ---------------------------------------------------------------------------
	   Coordinate                Previous        Force       Change         New 
	   ----------                --------       ------       ------       ------
	    1 R(1,3)          =      1.394038    -0.033708    -0.002584     1.391454
	    2 R(1,9)          =      1.394891     0.024329     0.001593     1.396484
	    3 R(1,14)         =      1.087453    -0.023317    -0.002073     1.085380
	    4 R(2,4)          =      1.394521    -0.036756    -0.002841     1.391680
	    5 R(2,9)          =      1.394821     0.025328     0.001680     1.396501
	    6 R(2,15)         =      1.087302    -0.022438    -0.001999     1.085303
	    7 R(3,11)         =      1.394821     0.213406     0.017119     1.411940
	    8 R(3,16)         =      1.088972    -0.054930    -0.004930     1.084042
	    9 R(4,11)         =      1.395407     0.210073     0.016856     1.412264
	   10 R(4,17)         =      1.088424    -0.052191    -0.004677     1.083746
	   11 R(5,7)          =      1.385297     0.013696     0.001043     1.386340
	   12 R(5,10)         =      1.390491     0.015629     0.001527     1.392018
	   13 R(5,18)         =      1.085599    -0.041003    -0.003658     1.081941
	   14 R(6,8)          =      1.386279     0.007618     0.000557     1.386836
	   15 R(6,10)         =      1.390150     0.019284     0.001824     1.391974
	   16 R(6,19)         =      1.085226    -0.039198    -0.003495     1.081731
	   17 R(7,12)         =      1.351177    -0.099182    -0.007132     1.344045
	   18 R(7,20)         =      1.085493    -0.015774    -0.001405     1.084088
	   19 R(8,12)         =      1.352240    -0.106769    -0.007703     1.344537
	   20 R(8,21)         =      1.084820    -0.012347    -0.001095     1.083725
	   21 R(9,10)         =      1.446855     0.103059     0.008793     1.455648
	   22 R(11,13)        =      1.281373     0.023459     0.001380     1.282753
	   23 B(1,3,11)       =    120.009056     0.000741     0.962747   120.971803
	   24 B(1,3,16)       =    118.552025     0.000116     0.207100   118.759125
	   25 B(1,9,2)        =    119.959722    -0.000601    -0.856177   119.103545
	   26 B(1,9,10)       =    120.053983     0.000292     0.418373   120.472356
	   27 B(2,4,11)       =    119.960108     0.000755     0.978815   120.938923
	   28 B(2,4,17)       =    118.592446     0.000106     0.196092   118.788538
	   29 B(2,9,10)       =    119.986294     0.000308     0.437643   120.423937
	   30 B(3,1,9)        =    120.031219     0.000528     0.601291   120.632510
	   31 B(3,1,14)       =    119.119344    -0.000011     0.061114   119.180459
	   32 B(3,11,4)       =    119.994870    -0.001954    -2.288080   117.706790
	   33 B(3,11,13)      =    120.029973     0.000969     1.134267   121.164240
	   34 B(4,2,9)        =    120.045019     0.000531     0.601268   120.646287
	   35 B(4,2,15)       =    119.143974    -0.000017     0.053995   119.197970
	   36 B(4,11,13)      =    119.975136     0.000985     1.153828   121.128964
	   37 B(5,7,12)       =    124.044176     0.000099     0.090893   124.135069
	   38 B(5,7,20)       =    120.747971    -0.000072    -0.076939   120.671033
	   39 B(5,10,6)       =    119.746987    -0.001334    -1.577405   118.169582
	   40 B(5,10,9)       =    120.170540     0.000655     0.773591   120.944131
	   41 B(6,8,12)       =    124.060103     0.000098     0.082310   124.142413
	   42 B(6,8,21)       =    120.734789    -0.000067    -0.066780   120.668009
	   43 B(6,10,9)       =    120.082460     0.000680     0.803757   120.886217
	   44 B(7,5,10)       =    117.935118     0.000600     0.795136   118.730253
	   45 B(7,5,18)       =    120.264043    -0.000042    -0.029084   120.234959
	   46 B(7,12,8)       =    116.359018    -0.000098    -0.224489   116.134529
	   47 B(8,6,10)       =    117.854573     0.000635     0.833462   118.688035
	   48 B(8,6,19)       =    120.296614    -0.000062    -0.051894   120.244720
	   49 B(9,1,14)       =    120.849435    -0.000517    -0.662471   120.186964
	   50 B(9,2,15)       =    120.811005    -0.000513    -0.655357   120.155648
	   51 B(10,5,18)      =    121.800793    -0.000558    -0.766027   121.034766
	   52 B(10,6,19)      =    121.848807    -0.000573    -0.781562   121.067245
	   53 B(11,3,16)      =    121.438903    -0.000856    -1.169841   120.269063
	   54 B(11,4,17)      =    121.447411    -0.000861    -1.174910   120.272501
	   55 B(12,7,20)      =    115.207725    -0.000028    -0.013828   115.193897
	   56 B(12,8,21)      =    115.205106    -0.000031    -0.015599   115.189507
	   57 D(1,3,11,4)     =     -0.018609     0.000007     0.063889     0.045280
	   58 D(1,3,11,13)    =   -179.966279     0.000005     0.038178  -179.928101
	   59 D(1,9,2,4)      =      0.018608     0.000010     0.107373     0.125981
	   60 D(1,9,2,15)     =   -179.996257    -0.000001     0.009205  -179.987052
	   61 D(1,9,10,5)     =    119.966775     0.000044     0.252936   120.219711
	   62 D(1,9,10,6)     =    -60.074736     0.000054     0.392200   -59.682536
	   63 D(2,4,11,3)     =      0.017261     0.000004     0.027707     0.044969
	   64 D(2,4,11,13)    =    179.964960     0.000006     0.053400   180.018360
	   65 D(2,9,1,3)      =     -0.019945     0.000001    -0.015725    -0.035669
	   66 D(2,9,1,14)     =    179.967567    -0.000009    -0.097993   179.869574
	   67 D(2,9,10,5)     =    -60.020785     0.000054     0.388347   -59.632438
	   68 D(2,9,10,6)     =    119.937704     0.000064     0.527611   120.465315
	   69 D(3,1,9,10)     =    179.992491     0.000011     0.117754   180.110245
	   70 D(3,11,4,17)    =    179.948827     0.000004     0.024768   179.973594
	   71 D(4,2,9,10)     =   -179.993820    -0.000000    -0.026042  -180.019862
	   72 D(4,11,3,16)    =    179.935781     0.000008     0.072882   180.008663
	   73 D(5,7,12,8)     =      0.039441    -0.000003    -0.021483     0.017958
	   74 D(5,10,6,8)     =     -0.015349     0.000002     0.036395     0.021046
	   75 D(5,10,6,19)    =   -179.986836    -0.000002     0.000582  -179.986254
	   76 D(6,8,12,7)     =     -0.062844    -0.000004    -0.035705    -0.098549
	   77 D(6,10,5,7)     =     -0.005595    -0.000008    -0.088126    -0.093721
	   78 D(6,10,5,18)    =   -179.927395    -0.000011    -0.112561  -180.039957
	   79 D(7,5,10,9)     =    179.953034     0.000003     0.048407   180.001441
	   80 D(7,12,8,21)    =    179.951923     0.000006     0.045888   179.997811
	   81 D(8,6,10,9)     =   -179.974015    -0.000009    -0.100043  -180.074058
	   82 D(8,12,7,20)    =    179.909895     0.000010     0.094525   180.004420
	   83 D(9,1,3,11)     =      0.019955    -0.000009    -0.070035    -0.050081
	   84 D(9,1,3,16)     =   -179.935743    -0.000010    -0.078262  -180.014005
	   85 D(9,2,4,11)     =     -0.017270    -0.000012    -0.114555    -0.131825
	   86 D(9,2,4,17)     =   -179.950778    -0.000012    -0.110712  -180.061490
	   87 D(9,10,5,18)    =      0.031233    -0.000001     0.023972     0.055205
	   88 D(9,10,6,19)    =      0.054498    -0.000012    -0.135857    -0.081358
	   89 D(10,5,7,12)    =     -0.006829     0.000009     0.084263     0.077435
	   90 D(10,5,7,20)    =   -179.870448    -0.000005    -0.037875  -179.908323
	   91 D(10,6,8,12)    =      0.052033     0.000004     0.028045     0.080077
	   92 D(10,6,8,21)    =   -179.963512    -0.000006    -0.057786  -180.021298
	   93 D(10,9,1,14)    =     -0.019997     0.000001     0.035486     0.015489
	   94 D(10,9,2,15)    =     -0.008685    -0.000011    -0.124210    -0.132894
	   95 D(11,3,1,14)    =   -179.967773     0.000001     0.011504  -179.956268
	   96 D(11,4,2,15)    =    179.997347    -0.000001    -0.017211   179.980136
	   97 D(12,7,5,18)    =    179.916224     0.000012     0.107889   180.024113
	   98 D(12,8,6,19)    =   -179.976019     0.000008     0.063334  -179.912684
	   99 D(13,11,3,16)   =     -0.011889     0.000006     0.047170     0.035281
	  100 D(13,11,4,17)   =     -0.103475     0.000006     0.050460    -0.053014
	  101 D(14,1,3,16)    =      0.076530    -0.000000     0.003278     0.079807
	  102 D(15,2,4,17)    =      0.063839    -0.000001    -0.013368     0.050471
	  103 D(18,5,7,20)    =      0.052604    -0.000002    -0.014249     0.038356
	  104 D(19,6,8,21)    =      0.008436    -0.000002    -0.022496    -0.014060
	 ---------------------------------------------------------------------------
	Successfully symmetrized geometry.
	 Forces used to impose fixed constraints are not included.
	  Forces zeroed: 61 

  ==> Convergence Check <==

  Measures of convergence in internal coordinates in au.
  Criteria marked as inactive (o), active & met (*), and active & unmet ( ).
  --------------------------------------------------------------------------------------------- ~
   Step     Total Energy     Delta E     MAX Force     RMS Force      MAX Disp      RMS Disp    ~
  --------------------------------------------------------------------------------------------- ~
    Convergence Criteria    1.00e-06 *    3.00e-04 *             o    1.20e-03 *             o  ~
  --------------------------------------------------------------------------------------------- ~
      1    -553.16275734   -5.53e+02      2.59e-02      6.57e-03 o    3.99e-02      9.79e-03 o  ~
  ---------------------------------------------------------------------------------------------

	Writing optimization data to binary file.
	Structure for next step:
	Cartesian Geometry (in Angstrom)
	    C    -1.2906237150   0.7249947969  -0.5586181223
	    C    -0.2974732847   0.1189701701   1.5494317415
	    C    -2.3675923300   1.2999903865   0.1089608026
	    C    -1.3716949306   0.6900683973   2.2252044300
	    C     2.1768014248  -0.0110594272  -0.3398230531
	    C     0.6865321679  -1.5132111052  -1.4477073361
	    C     3.2151365977  -0.6142325243  -1.0326304476
	    C     1.7916503222  -2.0484172855  -2.0923646903
	    C    -0.2474300943   0.1297841837   0.1538692181
	    C     0.8787165696  -0.4686027485  -0.5480128012
	    C    -2.4343304941   1.2958883468   1.5193171971
	    N     3.0535364500  -1.6237111907  -1.9051520199
	    O    -3.4260614152   1.8236731918   2.1384849503
	    H    -1.2686613715   0.7451906431  -1.6435881099
	    H     0.5041252675  -0.3387934290   2.1201984799
	    H    -3.1606418809   1.7539134276  -0.4742837265
	    H    -1.3802253570   0.6638683027   3.3086004234
	    H     2.3791307562   0.7987267937   0.3485854811
	    H    -0.3021965967  -1.9050909277  -1.6451628151
	    H     4.2382494430  -0.2839230087  -0.8934123360
	    H     1.6789941137  -2.8625386316  -2.7987459709
			--------------------------
			 OPTKING Finished Execution 
			--------------------------

    Structure for next step:
    Molecular point group: c1
    Full point group: C1

    Geometry (in Angstrom), charge = -1, multiplicity = 1:

    C           -1.287950891086     0.723567062872    -0.560308609586
    C           -0.294800460759     0.117542436136     1.547741254296
    C           -2.364919506057     1.298562652495     0.107270315344
    C           -1.369022106688     0.688640663288     2.223513942743
    C            2.179474248722    -0.012487161173    -0.341513540375
    C            0.689204991814    -1.514638839143    -1.449397823348
    C            3.217809421611    -0.615660258279    -1.034320934814
    C            1.794323146099    -2.049845019439    -2.094055177525
    C           -0.244757270403     0.128356449751     0.152178730878
    C            0.881389393480    -0.470030482458    -0.549703288422
    C           -2.431657670150     1.294460612819     1.517626709875
    N            3.056209273928    -1.625138924642    -1.906842507139
    O           -3.423388591263     1.822245457772     2.136794463106
    H           -1.265988547590     0.743762909162    -1.645278597097
    H            0.506798091464    -0.340221163007     2.118507992676
    H           -3.157969056968     1.752485693667    -0.475974213741
    H           -1.377552533127     0.662440568699     3.306909936136
    H            2.381803580134     0.797299059721     0.346894993841
    H           -0.299523772731    -1.906518661712    -1.646853302327
    H            4.240922266955    -0.285350742724    -0.895102823271
    H            1.681666937599    -2.863966365598    -2.800436458152

gradient() will perform analytic gradient computation.

*** tstart() called on gpu-1-6.local
*** at Sun Nov 12 03:10:34 2017

    SCF Algorithm Type (re)set to DF.

*** tstart() called on gpu-1-6.local
*** at Sun Nov 12 03:10:34 2017

   => Loading Basis Set <=

    Name: AUG-CC-PVTZ
    Role: ORBITAL
    Keyword: BASIS
    atoms 1-11  entry C          line   221 file /cbio/jclab/home/chayas/anaconda/envs/py35/share/psi4/basis/aug-cc-pvtz.gbs 
    atoms 12    entry N          line   267 file /cbio/jclab/home/chayas/anaconda/envs/py35/share/psi4/basis/aug-cc-pvtz.gbs 
    atoms 13    entry O          line   313 file /cbio/jclab/home/chayas/anaconda/envs/py35/share/psi4/basis/aug-cc-pvtz.gbs 
    atoms 14-21 entry H          line    34 file /cbio/jclab/home/chayas/anaconda/envs/py35/share/psi4/basis/aug-cc-pvtz.gbs 


         ---------------------------------------------------------
                                   SCF
            by Justin Turney, Rob Parrish, and Andy Simmonett
                              RHF Reference
                        8 Threads,   4768 MiB Core
         ---------------------------------------------------------

  ==> Geometry <==

    Molecular point group: c1
    Full point group: C1

    Geometry (in Angstrom), charge = -1, multiplicity = 1:

       Center              X                  Y                   Z               Mass       
    ------------   -----------------  -----------------  -----------------  -----------------
           C         -1.287950891086     0.723567062872    -0.560308609586    12.000000000000
           C         -0.294800460759     0.117542436136     1.547741254296    12.000000000000
           C         -2.364919506057     1.298562652495     0.107270315344    12.000000000000
           C         -1.369022106688     0.688640663288     2.223513942743    12.000000000000
           C          2.179474248722    -0.012487161173    -0.341513540375    12.000000000000
           C          0.689204991814    -1.514638839143    -1.449397823348    12.000000000000
           C          3.217809421611    -0.615660258279    -1.034320934814    12.000000000000
           C          1.794323146099    -2.049845019439    -2.094055177525    12.000000000000
           C         -0.244757270403     0.128356449751     0.152178730878    12.000000000000
           C          0.881389393480    -0.470030482458    -0.549703288422    12.000000000000
           C         -2.431657670150     1.294460612819     1.517626709875    12.000000000000
           N          3.056209273928    -1.625138924642    -1.906842507139    14.003074004780
           O         -3.423388591263     1.822245457772     2.136794463106    15.994914619560
           H         -1.265988547590     0.743762909162    -1.645278597097     1.007825032070
           H          0.506798091464    -0.340221163007     2.118507992676     1.007825032070
           H         -3.157969056968     1.752485693667    -0.475974213741     1.007825032070
           H         -1.377552533127     0.662440568699     3.306909936136     1.007825032070
           H          2.381803580134     0.797299059721     0.346894993841     1.007825032070
           H         -0.299523772731    -1.906518661712    -1.646853302327     1.007825032070
           H          4.240922266955    -0.285350742724    -0.895102823271     1.007825032070
           H          1.681666937599    -2.863966365598    -2.800436458152     1.007825032070

  Running in c1 symmetry.

  Rotational constants: A =      0.09811  B =      0.01337  C =      0.01251 [cm^-1]
  Rotational constants: A =   2941.38457  B =    400.76188  C =    374.92566 [MHz]
  Nuclear repulsion =  683.671237407649983

  Charge       = -1
  Multiplicity = 1
  Electrons    = 90
  Nalpha       = 45
  Nbeta        = 45

  ==> Algorithm <==

  SCF Algorithm Type is DF.
  DIIS enabled.
  MOM disabled.
  Fractional occupation disabled.
  Guess Type is READ.
  Energy threshold   = 1.00e-10
  Density threshold  = 1.00e-10
  Integral threshold = 0.00e+00

  ==> Primary Basis <==

  Basis Set: AUG-CC-PVTZ
    Blend: AUG-CC-PVTZ
    Number of shells: 254
    Number of basis function: 782
    Number of Cartesian functions: 915
    Spherical Harmonics?: true
    Max angular momentum: 3

   => Loading Basis Set <=

    Name: (AUG-CC-PVTZ AUX)
    Role: JKFIT
    Keyword: DF_BASIS_SCF
    atoms 1-11  entry C          line   161 file /cbio/jclab/home/chayas/anaconda/envs/py35/share/psi4/basis/aug-cc-pvtz-jkfit.gbs 
    atoms 12    entry N          line   223 file /cbio/jclab/home/chayas/anaconda/envs/py35/share/psi4/basis/aug-cc-pvtz-jkfit.gbs 
    atoms 13    entry O          line   285 file /cbio/jclab/home/chayas/anaconda/envs/py35/share/psi4/basis/aug-cc-pvtz-jkfit.gbs 
    atoms 14-21 entry H          line    69 file /cbio/jclab/home/chayas/anaconda/envs/py35/share/psi4/basis/aug-cc-pvtz-jkfit.gbs 

  Reading orbitals from file 180, no projection.

  ==> Pre-Iterations <==

   -------------------------------------------------------
    Irrep   Nso     Nmo     Nalpha   Nbeta   Ndocc  Nsocc
   -------------------------------------------------------
     A        782     782       0       0       0       0
   -------------------------------------------------------
    Total     782     782      45      45      45       0
   -------------------------------------------------------

  ==> Integral Setup <==

  ==> DFJK: Density-Fitted J/K Matrices <==

    J tasked:                  Yes
    K tasked:                  Yes
    wK tasked:                  No
    OpenMP threads:              8
    Integrals threads:           8
    Memory (MB):              3576
    Algorithm:                Disk
    Integral Cache:           NONE
    Schwarz Cutoff:          1E-12
    Fitting Condition:       1E-12

   => Auxiliary Basis Set <=

  Basis Set: (AUG-CC-PVTZ AUX)
    Blend: AUG-CC-PVTZ-JKFIT
    Number of shells: 502
    Number of basis function: 1720
    Number of Cartesian functions: 2143
    Spherical Harmonics?: true
    Max angular momentum: 4

  Minimum eigenvalue in the overlap matrix is 7.6038310175E-07.
  Using Symmetric Orthogonalization.

  SCF Guess: Orbitals guess was supplied from a previous computation.

  ==> Iterations <==

                           Total Energy        Delta E     RMS |[F,P]|

   @DF-RHF iter   0:  -550.79974504320126   -5.50800e+02   4.25601e-04 
   @DF-RHF iter   1:  -550.71761671327897    8.21283e-02   8.90357e-05 
   @DF-RHF iter   2:  -550.71796302952725   -3.46316e-04   8.73001e-05 DIIS
   @DF-RHF iter   3:  -550.71821116745571   -2.48138e-04   5.27728e-06 DIIS
   @DF-RHF iter   4:  -550.71821635921526   -5.19176e-06   3.13989e-06 DIIS
   @DF-RHF iter   5:  -550.71821775679655   -1.39758e-06   8.12984e-07 DIIS
   @DF-RHF iter   6:  -550.71821801211354   -2.55317e-07   8.93619e-07 DIIS
   @DF-RHF iter   7:  -550.71821809433413   -8.22206e-08   3.47622e-07 DIIS
   @DF-RHF iter   8:  -550.71821812182634   -2.74922e-08   1.46083e-07 DIIS
   @DF-RHF iter   9:  -550.71821812575467   -3.92833e-09   5.33105e-08 DIIS
   @DF-RHF iter  10:  -550.71821812631822   -5.63546e-10   1.62610e-08 DIIS
   @DF-RHF iter  11:  -550.71821812635903   -4.08136e-11   7.24581e-09 DIIS
   @DF-RHF iter  12:  -550.71821812636506   -6.02540e-12   2.40751e-09 DIIS
   @DF-RHF iter  13:  -550.71821812636801   -2.95586e-12   7.91479e-10 DIIS
   @DF-RHF iter  14:  -550.71821812637199   -3.97904e-12   4.01649e-10 DIIS
   @DF-RHF iter  15:  -550.71821812637791   -5.91172e-12   1.68524e-10 DIIS
   @DF-RHF iter  16:  -550.71821812638382   -5.91172e-12   3.75372e-11 DIIS

  ==> Post-Iterations <==

    Orbital Energies (a.u.)
    -----------------------

    Doubly Occupied:                                                      

       1A    -20.294917     2A    -15.458361     3A    -11.170664  
       4A    -11.170584     5A    -11.146560     6A    -11.124725  
       7A    -11.124657     8A    -11.115261     9A    -11.096058  
      10A    -11.096020    11A    -11.073993    12A    -11.057175  
      13A    -11.057148    14A     -1.149238    15A     -1.122535  
      16A     -1.017134    17A     -0.957687    18A     -0.927367  
      19A     -0.862282    20A     -0.835369    21A     -0.750015  
      22A     -0.734443    23A     -0.676099    24A     -0.647244  
      25A     -0.595743    26A     -0.556501    27A     -0.545142  
      28A     -0.506004    29A     -0.491965    30A     -0.485536  
      31A     -0.479693    32A     -0.436891    33A     -0.432002  
      34A     -0.413146    35A     -0.407452    36A     -0.370217  
      37A     -0.353739    38A     -0.352057    39A     -0.314096  
      40A     -0.293552    41A     -0.255157    42A     -0.245181  
      43A     -0.210214    44A     -0.194409    45A     -0.105328  

    Virtual:                                                              

      46A      0.097396    47A      0.099260    48A      0.116471  
      49A      0.116836    50A      0.124085    51A      0.125662  
      52A      0.131416    53A      0.132484    54A      0.161328  
      55A      0.166532    56A      0.180147    57A      0.183602  
      58A      0.184606    59A      0.186654    60A      0.188255  
      61A      0.195765    62A      0.196283    63A      0.202314  
      64A      0.204671    65A      0.210717    66A      0.213515  
      67A      0.216051    68A      0.222039    69A      0.225868  
      70A      0.226302    71A      0.230133    72A      0.230694  
      73A      0.234046    74A      0.238398    75A      0.241871  
      76A      0.248878    77A      0.250102    78A      0.257162  
      79A      0.258150    80A      0.265980    81A      0.267920  
      82A      0.275270    83A      0.283339    84A      0.292225  
      85A      0.293956    86A      0.301819    87A      0.308542  
      88A      0.310825    89A      0.317895    90A      0.321203  
      91A      0.324659    92A      0.329157    93A      0.334320  
      94A      0.335840    95A      0.339041    96A      0.343490  
      97A      0.350515    98A      0.354763    99A      0.360064  
     100A      0.360580   101A      0.369599   102A      0.373570  
     103A      0.375943   104A      0.389767   105A      0.390587  
     106A      0.395240   107A      0.395279   108A      0.396769  
     109A      0.407809   110A      0.410754   111A      0.411513  
     112A      0.415166   113A      0.418741   114A      0.423405  
     115A      0.430099   116A      0.431319   117A      0.444924  
     118A      0.445246   119A      0.448636   120A      0.459704  
     121A      0.462372   122A      0.467370   123A      0.470736  
     124A      0.471459   125A      0.476795   126A      0.486515  
     127A      0.493952   128A      0.504194   129A      0.504504  
     130A      0.505612   131A      0.510416   132A      0.520165  
     133A      0.531035   134A      0.532639   135A      0.538149  
     136A      0.545997   137A      0.549087   138A      0.551837  
     139A      0.556411   140A      0.561811   141A      0.569000  
     142A      0.569617   143A      0.571278   144A      0.572072  
     145A      0.580393   146A      0.580941   147A      0.584312  
     148A      0.592306   149A      0.594495   150A      0.596743  
     151A      0.599362   152A      0.604780   153A      0.605017  
     154A      0.608850   155A      0.610125   156A      0.616917  
     157A      0.620947   158A      0.622708   159A      0.628489  
     160A      0.632500   161A      0.634410   162A      0.634585  
     163A      0.642787   164A      0.648344   165A      0.655622  
     166A      0.659497   167A      0.663161   168A      0.668084  
     169A      0.674004   170A      0.679355   171A      0.689662  
     172A      0.690920   173A      0.698530   174A      0.699020  
     175A      0.707048   176A      0.711663   177A      0.713052  
     178A      0.717296   179A      0.720384   180A      0.723183  
     181A      0.740515   182A      0.747047   183A      0.753508  
     184A      0.754172   185A      0.761841   186A      0.777103  
     187A      0.777875   188A      0.783441   189A      0.789815  
     190A      0.796433   191A      0.800157   192A      0.806374  
     193A      0.812112   194A      0.818598   195A      0.829331  
     196A      0.829587   197A      0.836539   198A      0.846826  
     199A      0.850352   200A      0.850510   201A      0.855976  
     202A      0.856019   203A      0.858489   204A      0.867250  
     205A      0.867943   206A      0.877727   207A      0.877910  
     208A      0.890130   209A      0.893739   210A      0.902436  
     211A      0.916980   212A      0.925121   213A      0.929147  
     214A      0.936575   215A      0.947271   216A      0.950484  
     217A      0.961550   218A      0.966666   219A      0.973773  
     220A      0.976916   221A      0.984839   222A      0.989448  
     223A      0.994237   224A      1.004835   225A      1.010711  
     226A      1.014269   227A      1.015675   228A      1.023111  
     229A      1.023982   230A      1.024782   231A      1.027946  
     232A      1.037541   233A      1.040078   234A      1.048495  
     235A      1.052531   236A      1.052791   237A      1.055475  
     238A      1.062885   239A      1.063890   240A      1.067881  
     241A      1.075845   242A      1.078592   243A      1.083186  
     244A      1.088717   245A      1.090564   246A      1.094907  
     247A      1.095667   248A      1.107675   249A      1.110816  
     250A      1.118658   251A      1.122711   252A      1.124611  
     253A      1.134372   254A      1.139268   255A      1.143449  
     256A      1.145836   257A      1.152471   258A      1.162205  
     259A      1.163593   260A      1.166172   261A      1.166492  
     262A      1.170812   263A      1.171156   264A      1.183662  
     265A      1.185150   266A      1.191970   267A      1.203922  
     268A      1.205186   269A      1.207710   270A      1.208419  
     271A      1.220467   272A      1.230380   273A      1.236867  
     274A      1.239340   275A      1.243331   276A      1.244725  
     277A      1.247828   278A      1.252780   279A      1.267119  
     280A      1.267320   281A      1.273176   282A      1.278251  
     283A      1.284484   284A      1.286764   285A      1.295267  
     286A      1.297857   287A      1.299089   288A      1.306969  
     289A      1.308386   290A      1.318113   291A      1.320798  
     292A      1.324747   293A      1.330020   294A      1.334227  
     295A      1.334970   296A      1.344227   297A      1.349144  
     298A      1.352145   299A      1.367495   300A      1.377436  
     301A      1.379918   302A      1.382524   303A      1.391109  
     304A      1.402591   305A      1.404626   306A      1.405053  
     307A      1.409972   308A      1.414093   309A      1.419566  
     310A      1.431021   311A      1.434151   312A      1.444414  
     313A      1.444731   314A      1.447027   315A      1.470989  
     316A      1.480496   317A      1.484942   318A      1.489984  
     319A      1.491815   320A      1.502849   321A      1.507234  
     322A      1.516445   323A      1.525756   324A      1.533069  
     325A      1.534729   326A      1.542140   327A      1.559583  
     328A      1.569804   329A      1.574461   330A      1.580238  
     331A      1.586621   332A      1.590794   333A      1.596786  
     334A      1.611556   335A      1.625076   336A      1.626090  
     337A      1.644318   338A      1.647149   339A      1.663199  
     340A      1.668917   341A      1.677237   342A      1.678507  
     343A      1.686536   344A      1.689913   345A      1.704424  
     346A      1.709399   347A      1.711038   348A      1.728357  
     349A      1.738755   350A      1.738846   351A      1.753104  
     352A      1.758428   353A      1.767347   354A      1.771440  
     355A      1.778639   356A      1.806283   357A      1.807524  
     358A      1.818096   359A      1.820855   360A      1.825741  
     361A      1.832893   362A      1.833658   363A      1.840031  
     364A      1.843266   365A      1.848473   366A      1.860882  
     367A      1.872600   368A      1.879976   369A      1.881527  
     370A      1.894217   371A      1.909763   372A      1.920595  
     373A      1.926194   374A      1.931342   375A      1.933481  
     376A      1.949693   377A      1.960864   378A      1.977401  
     379A      1.979926   380A      1.993207   381A      1.997918  
     382A      2.001367   383A      2.013663   384A      2.016421  
     385A      2.022931   386A      2.030574   387A      2.037080  
     388A      2.046974   389A      2.062344   390A      2.070708  
     391A      2.071139   392A      2.082557   393A      2.087103  
     394A      2.092475   395A      2.098439   396A      2.099428  
     397A      2.108634   398A      2.122024   399A      2.133934  
     400A      2.143489   401A      2.151190   402A      2.158381  
     403A      2.162291   404A      2.163394   405A      2.171365  
     406A      2.172175   407A      2.185460   408A      2.194787  
     409A      2.200171   410A      2.206644   411A      2.223612  
     412A      2.227071   413A      2.239742   414A      2.251116  
     415A      2.258379   416A      2.266817   417A      2.268693  
     418A      2.283006   419A      2.283353   420A      2.294759  
[...]
	 B(6,8,12)        =         2.165992	     124.102188
	 B(6,8,21)        =         2.092715	     119.903717
	 B(6,10,9)        =         2.133208	     122.223842
	 B(7,5,10)        =         2.101918	     120.431048
	 B(7,5,18)        =         2.097167	     120.158841
	 B(7,12,8)        =         2.018605	     115.657547
	 B(8,6,10)        =         2.102988	     120.492337
	 B(8,6,19)        =         2.096193	     120.103009
	 B(9,1,14)        =         2.073280	     118.790214
	 B(9,2,15)        =         2.072884	     118.767481
	 B(10,5,18)       =         2.084090	     119.409589
	 B(10,6,19)       =         2.083905	     119.398959
	 B(11,3,16)       =         2.040879	     116.933743
	 B(11,4,17)       =         2.040595	     116.917491
	 B(12,7,20)       =         2.024271	     115.982201
	 B(12,8,21)       =         2.024462	     115.993145
	 D(1,3,11,4)      =         0.026009	       1.490224
	 D(1,3,11,13)     =        -3.126458	    -179.132847
	 D(1,9,2,4)       =         0.068908	       3.948148
	 D(1,9,2,15)      =        -3.109045	    -178.135171
	 D(1,9,10,5)      =         2.104876	     120.600488
	 D(1,9,10,6)      =        -0.912167	     -52.263316
	 D(2,4,11,3)      =        -0.005776	      -0.330943
	 D(2,4,11,13)     =        -3.136501	    -179.708277
	 D(2,9,1,3)       =        -0.048799	      -2.796002
	 D(2,9,1,14)      =         3.072958	     176.067513
	 D(2,9,10,5)      =        -0.851595	     -48.792796
	 D(2,9,10,6)      =         2.414548	     138.343400
	 D(3,1,9,10)      =        -3.013495	    -172.660550
	 D(3,11,4,17)     =         3.134573	     179.597824
	 D(4,2,9,10)      =         3.032642	     173.757600
	 D(4,11,3,16)     =        -3.099630	    -177.595699
	 D(5,7,12,8)      =        -0.002077	      -0.118985
	 D(5,10,6,8)      =         0.034144	       1.956304
	 D(5,10,6,19)     =        -3.122584	    -178.910894
	 D(6,8,12,7)      =        -0.012648	      -0.724673
	 D(6,10,5,7)      =        -0.047699	      -2.732963
	 D(6,10,5,18)     =         3.089317	     177.004832
	 D(7,5,10,9)      =        -3.072952	    -176.067154
	 D(7,12,8,21)     =         3.135161	     179.631471
	 D(8,6,10,9)      =         3.059492	     175.295984
	 D(8,12,7,20)     =        -3.117447	    -178.616554
	 D(9,1,3,11)      =         0.001506	       0.086261
	 D(9,1,3,16)      =         3.126670	     179.145022
	 D(9,2,4,11)      =        -0.042699	      -2.446462
	 D(9,2,4,17)      =         3.100176	     177.626984
	 D(9,10,5,18)     =         0.064065	       3.670641
	 D(9,10,6,19)     =        -0.097236	      -5.571214
	 D(10,5,7,12)     =         0.033852	       1.939578
	 D(10,5,7,20)     =        -3.134922	    -179.617812
	 D(10,6,8,12)     =        -0.004429	      -0.253767
	 D(10,6,8,21)     =         3.130718	     179.376949
	 D(10,9,1,14)     =         0.108262	       6.202964
	 D(10,9,2,15)     =        -0.145311	      -8.325719
	 D(11,3,1,14)     =        -3.120126	    -178.770035
	 D(11,4,2,15)     =         3.135467	     179.649031
	 D(12,7,5,18)     =        -3.103130	    -177.796247
	 D(12,8,6,19)     =        -3.130780	    -179.380456
	 D(13,11,3,16)    =         0.031088	       1.781230
	 D(13,11,4,17)    =         0.003848	       0.220490
	 D(14,1,3,16)     =         0.005039	       0.288727
	 D(15,2,4,17)     =        -0.004844	      -0.277523
	 D(18,5,7,20)     =         0.011281	       0.646363
	 D(19,6,8,21)     =         0.004368	       0.250260

	Current energy   :      -553.1730105593

	Energy change for the previous step:
		Projected    :        -0.0000039242
		Actual       :         0.0000007815

	Performing BFGS update.
	Previous computed or guess Hessian on step 1.
	Steps to be used in Hessian update: 20 19
	Adding user-defined constraint: Fragment 1; Coordinate 61:
		Value =     2.104876; Fixed value    =     2.094400
		Force =    -0.010476; Force constant =     1.000000
	Removing off-diagonal coupling between coordinate 61 and others.
	Taking RFO optimization step.
	Going to follow RFO solution 1.
	Rejecting RFO root 1 because normalization gives large value.
	Using RFO vector 2.
	Norm of target step-size    0.02020
	Projected energy change by RFO approximation:        -0.0000025733

	Back-transformation to cartesian coordinates...
	Could not converge backtransformation.
	Using first guess instead.

	--- Internal Coordinate Step in ANG or DEG, aJ/ANG or AJ/DEG ---
	 ---------------------------------------------------------------------------
	   Coordinate                Previous        Force       Change         New 
	   ----------                --------       ------       ------       ------
	    1 R(1,3)          =      1.378945     0.001338     0.000394     1.379339
	    2 R(1,9)          =      1.401831     0.000341     0.000111     1.401942
	    3 R(1,14)         =      1.083992     0.000967     0.000372     1.084364
	    4 R(2,4)          =      1.378700     0.001310     0.000392     1.379092
	    5 R(2,9)          =      1.401855    -0.000623    -0.000258     1.401597
	    6 R(2,15)         =      1.084068     0.001225     0.000473     1.084540
	    7 R(3,11)         =      1.435016     0.000191     0.000039     1.435056
	    8 R(3,16)         =      1.081933    -0.000080    -0.000026     1.081907
	    9 R(4,11)         =      1.435392     0.000404     0.000112     1.435504
	   10 R(4,17)         =      1.082057    -0.000354    -0.000141     1.081916
	   11 R(5,7)          =      1.384303     0.001044     0.000330     1.384633
	   12 R(5,10)         =      1.398394     0.000626     0.000076     1.398470
	   13 R(5,18)         =      1.079949     0.000984     0.000359     1.080307
	   14 R(6,8)          =      1.384293     0.001065     0.000300     1.384593
	   15 R(6,10)         =      1.398281    -0.000453    -0.000216     1.398066
	   16 R(6,19)         =      1.080114     0.001349     0.000514     1.080628
	   17 R(7,12)         =      1.338790     0.000377     0.000064     1.338854
	   18 R(7,20)         =      1.082651     0.000093     0.000030     1.082681
	   19 R(8,12)         =      1.338359     0.000734     0.000210     1.338569
	   20 R(8,21)         =      1.082777    -0.000240    -0.000104     1.082673
	   21 R(9,10)         =      1.447978     0.000820     0.000401     1.448379
	   22 R(11,13)        =      1.265062     0.000767     0.000143     1.265205
	   23 B(1,3,11)       =    123.034799     0.000001     0.007635   123.042435
	   24 B(1,3,16)       =    120.025163    -0.000002    -0.032143   119.993019
	   25 B(1,9,2)        =    116.821982     0.000002     0.018022   116.840003
	   26 B(1,9,10)       =    120.932267    -0.000001    -0.020385   120.911882
	   27 B(2,4,11)       =    122.941321     0.000003     0.016525   122.957846
	   28 B(2,4,17)       =    120.141151    -0.000003    -0.034832   120.106318
	   29 B(2,9,10)       =    121.440036    -0.000003    -0.038235   121.401801
	   30 B(3,1,9)        =    121.758701    -0.000001    -0.010824   121.747877
	   31 B(3,1,14)       =    119.441440     0.000001    -0.001487   119.439953
	   32 B(3,11,4)       =    113.501093    -0.000003    -0.016687   113.484406
	   33 B(3,11,13)      =    123.276313     0.000001     0.007578   123.283891
	   34 B(4,2,9)        =    121.832326    -0.000001    -0.011432   121.820894
	   35 B(4,2,15)       =    119.367825     0.000002     0.018041   119.385866
	   36 B(4,11,13)      =    123.219488     0.000002     0.010607   123.230096
	   37 B(5,7,12)       =    124.137504    -0.000001    -0.004125   124.133379
	   38 B(5,7,20)       =    119.863395     0.000001     0.001837   119.865232
	   39 B(5,10,6)       =    115.126803     0.000002     0.031467   115.158270
	   40 B(5,10,9)       =    122.298299     0.000003     0.017735   122.316034
	   41 B(6,8,12)       =    124.102188     0.000002     0.008145   124.110333
	   42 B(6,8,21)       =    119.903717    -0.000002    -0.011261   119.892455
	   43 B(6,10,9)       =    122.223842    -0.000006    -0.022433   122.201409
	   44 B(7,5,10)       =    120.431048     0.000000    -0.012702   120.418346
	   45 B(7,5,18)       =    120.158841    -0.000000     0.001790   120.160631
	   46 B(7,12,8)       =    115.657547    -0.000002    -0.001922   115.655624
	   47 B(8,6,10)       =    120.492337    -0.000001    -0.019704   120.472634
	   48 B(8,6,19)       =    120.103009     0.000002     0.020384   120.123392
	   49 B(9,1,14)       =    118.790214     0.000000     0.007181   118.797395
	   50 B(9,2,15)       =    118.767481    -0.000001    -0.002355   118.765125
	   51 B(10,5,18)      =    119.409589     0.000000     0.010684   119.420273
	   52 B(10,6,19)      =    119.398959    -0.000000    -0.001203   119.397756
	   53 B(11,3,16)      =    116.933743     0.000001     0.023049   116.956792
	   54 B(11,4,17)      =    116.917491     0.000000     0.018194   116.935685
	   55 B(12,7,20)      =    115.982201     0.000001     0.005011   115.987211
	   56 B(12,8,21)      =    115.993145    -0.000000     0.001332   115.994477
	   57 D(1,3,11,4)     =      1.490224     0.000000     0.076113     1.566338
	   58 D(1,3,11,13)    =   -179.132847     0.000001     0.250929  -178.881918
	   59 D(1,9,2,4)      =      3.948148     0.000001    -0.080565     3.867583
	   60 D(1,9,2,15)     =   -178.135171     0.000001     0.061457  -178.073714
	   61 D(1,9,10,5)     =    120.600488    -0.000007    -0.007907   120.592582
	   62 D(1,9,10,6)     =    -52.263316    -0.000005    -0.286391   -52.549707
	   63 D(2,4,11,3)     =     -0.330943     0.000000    -0.043961    -0.374905
	   64 D(2,4,11,13)    =   -179.708277    -0.000000    -0.218647  -179.926924
	   65 D(2,9,1,3)      =     -2.796002    -0.000001     0.111965    -2.684036
	   66 D(2,9,1,14)     =    176.067513    -0.000001    -0.158138   175.909374
	   67 D(2,9,10,5)     =    -48.792796    -0.000003     0.251553   -48.541243
	   68 D(2,9,10,6)     =    138.343400    -0.000001    -0.026932   138.316468
	   69 D(3,1,9,10)     =   -172.660550     0.000003     0.365589  -172.294960
	   70 D(3,11,4,17)    =    179.597824    -0.000000    -0.114126   179.483698
	   71 D(4,2,9,10)     =    173.757600    -0.000003    -0.333544   173.424056
	   72 D(4,11,3,16)    =   -177.595699     0.000001     0.176839  -177.418860
	   73 D(5,7,12,8)     =     -0.118985     0.000000     0.062333    -0.056652
	   74 D(5,10,6,8)     =      1.956304     0.000001    -0.059379     1.896925
	   75 D(5,10,6,19)    =   -178.910894     0.000000    -0.098128  -179.009023
	   76 D(6,8,12,7)     =     -0.724673    -0.000001    -0.082233    -0.806906
	   77 D(6,10,5,7)     =     -2.732963    -0.000001     0.041014    -2.691949
	   78 D(6,10,5,18)    =    177.004832    -0.000001    -0.011199   176.993632
	   79 D(7,5,10,9)     =   -176.067154     0.000001    -0.215706  -176.282860
	   80 D(7,12,8,21)    =    179.631471     0.000000     0.165783   179.797254
	   81 D(8,6,10,9)     =    175.295984    -0.000001     0.199972   175.495957
	   82 D(8,12,7,20)    =   -178.616554     0.000000    -0.064023  -178.680577
	   83 D(9,1,3,11)     =      0.086261     0.000000    -0.116726    -0.030465
	   84 D(9,1,3,16)     =    179.145022    -0.000000    -0.219893   178.925130
	   85 D(9,2,4,11)     =     -2.446462    -0.000000     0.050882    -2.395581
	   86 D(9,2,4,17)     =    177.626984     0.000000     0.123151   177.750135
	   87 D(9,10,5,18)    =      3.670641     0.000001    -0.267919     3.402722
	   88 D(9,10,6,19)    =     -5.571214    -0.000001     0.161223    -5.409991
	   89 D(10,5,7,12)    =      1.939578     0.000000    -0.046294     1.893284
	   90 D(10,5,7,20)    =   -179.617812     0.000001     0.084720  -179.533091
	   91 D(10,6,8,12)    =     -0.253767    -0.000000     0.085685    -0.168082
	   92 D(10,6,8,21)    =    179.376949    -0.000001    -0.171404   179.205545
	   93 D(10,9,1,14)    =      6.202964     0.000002     0.095486     6.298450
	   94 D(10,9,2,15)    =     -8.325719    -0.000002    -0.191522    -8.517241
	   95 D(11,3,1,14)    =   -178.770035     0.000001     0.154975  -178.615060
	   96 D(11,4,2,15)    =    179.649031    -0.000001    -0.091580   179.557451
	   97 D(12,7,5,18)    =   -177.796247     0.000000     0.006284  -177.789963
	   98 D(12,8,6,19)    =   -179.380456     0.000000     0.124907  -179.255549
	   99 D(13,11,3,16)   =      1.781230     0.000001     0.351654     2.132883
	  100 D(13,11,4,17)   =      0.220490    -0.000001    -0.288812    -0.068322
	  101 D(14,1,3,16)    =      0.288727     0.000000     0.051809     0.340535
	  102 D(15,2,4,17)    =     -0.277523    -0.000000    -0.019310    -0.296833
	  103 D(18,5,7,20)    =      0.646363     0.000000     0.137298     0.783661
	  104 D(19,6,8,21)    =      0.250260    -0.000001    -0.132182     0.118078
	 ---------------------------------------------------------------------------
	Successfully symmetrized geometry.
	 Forces used to impose fixed constraints are not included.
	  Forces zeroed: 61 

  ==> Convergence Check <==

  Measures of convergence in internal coordinates in au.
  Criteria marked as inactive (o), active & met (*), and active & unmet ( ).
  ---------------------------------------------------------------------------------------------
   Step     Total Energy     Delta E     MAX Force     RMS Force      MAX Disp      RMS Disp   
  ---------------------------------------------------------------------------------------------
    Convergence Criteria    1.00e-06 *    3.00e-04 *             o    1.20e-03 *             o
  ---------------------------------------------------------------------------------------------
     21    -553.17301056    7.81e-07 *    2.76e-04 *    6.88e-05 o    6.38e-03      1.98e-03 o  ~
  ---------------------------------------------------------------------------------------------


  **** Optimization is complete! (in 21 steps) ****

  ==> Optimization Summary <==

  Measures of convergence in internal coordinates in au.
  --------------------------------------------------------------------------------------------------------------- ~
   Step         Total Energy             Delta E       MAX Force       RMS Force        MAX Disp        RMS Disp  ~
  --------------------------------------------------------------------------------------------------------------- ~
      1    -553.162757340975   -553.162757340975      0.02590274      0.00657849      0.03993453      0.00979209  ~
      2    -553.167988067003     -0.005230726028      0.01582411      0.00386027      0.03971131      0.00979469  ~
      3    -553.170859237421     -0.002871170418      0.00712858      0.00183281      0.04357201      0.00980380  ~
      4    -553.172000264260     -0.001141026840      0.00261575      0.00066981      0.05935642      0.00980568  ~
      5    -553.172460965507     -0.000460701247      0.00204792      0.00038081      0.06107633      0.00980489  ~
      6    -553.172800888655     -0.000339923148      0.00134136      0.00029645      0.06017717      0.00980441  ~
      7    -553.173053029127     -0.000252140472      0.00166093      0.00030883      0.05834248      0.00980238  ~
      8    -553.173195872511     -0.000142843384      0.00244784      0.00038697      0.00510891      0.00120630  ~
      9    -553.173139816213      0.000056056298      0.00152372      0.00023765      0.01382470      0.00274729  ~
     10    -553.173134637444      0.000005178769      0.00149063      0.00022724      0.00277281      0.00054152  ~
     11    -553.173118154060      0.000016483385      0.00136013      0.00020732      0.00135398      0.00040195  ~
     12    -553.173109364729      0.000008789331      0.00136550      0.00020793      0.00199587      0.00055263  ~
     13    -553.173098683955      0.000010680774      0.00132141      0.00020162      0.00356463      0.00089276  ~
     14    -553.173090182979      0.000008500976      0.00132204      0.00020267      0.01031144      0.00236249  ~
     15    -553.173073195397      0.000016987581      0.00125072      0.00020796      0.01978090      0.00459761  ~
     16    -553.173031631673      0.000041563724      0.00073040      0.00016888      0.01368875      0.00315805  ~
     17    -553.173036760613     -0.000005128941      0.00055122      0.00008636      0.00195217      0.00046787  ~
     18    -553.173031030397      0.000005730216      0.00053459      0.00008150      0.02944771      0.00980589  ~
     19    -553.172875961809      0.000155068588      0.00090151      0.00025486      0.02533215      0.00801092  ~
     20    -553.173011340786     -0.000135378977      0.00036605      0.00007348      0.00812227      0.00233520  ~
     21    -553.173010559313      0.000000781473      0.00038556      0.00007847      0.00638074      0.00198008  ~
  --------------------------------------------------------------------------------------------------------------- ~

	Writing optimization data to binary file.
	Final energy is   -553.1730105593127
	Final (previous) structure:
	Cartesian Geometry (in Angstrom)
	    C    -1.3537507790   0.5927598407  -0.4635101364
	    C    -0.2322193707   0.1419047710   1.5962629017
	    C    -2.3396128204   1.2755789075   0.2171695217
	    C    -1.2242853498   0.8022740687   2.2894665994
	    C     2.1396251117  -0.1664241887  -0.3551616539
	    C     0.6292388818  -1.5157023825  -1.5673703747
	    C     3.1569862447  -0.6865867774  -1.1366364581
	    C     1.7047929585  -1.9699532049  -2.3110817953
	    C    -0.2854953255  -0.0213267873   0.2049632809
	    C     0.8207966341  -0.5969152446  -0.5308730369
	    C    -2.3521695598   1.4134404636   1.6454932311
	    N     2.9704112015  -1.5815748381  -2.1146674567
	    O    -3.2625826163   2.0251876643   2.2758069920
	    H    -1.3909707768   0.5417610382  -1.5456623593
	    H     0.5973669626  -0.2938994742   2.1412984972
	    H    -3.1441506809   1.7508952128  -0.3281494541
	    H    -1.1747843009   0.8792076117   3.3676493615
	    H     2.3584555083   0.5800543615   0.3939528161
	    H    -0.3658844995  -1.8805907507  -1.7752929671
	    H     4.1756924342  -0.3512482746  -0.9885839141
	    H     1.5468729443  -2.6891200393  -3.1049743723
	Saving final (previous) structure.
			--------------------------
			 OPTKING Finished Execution 
			--------------------------

    Final optimized geometry and variables:
    Molecular point group: c1
    Full point group: C1

    Geometry (in Angstrom), charge = -1, multiplicity = 1:

    C           -1.353750778975     0.592759840706    -0.463510136386
    C           -0.232219370681     0.141904770995     1.596262901731
    C           -2.339612820371     1.275578907495     0.217169521699
    C           -1.224285349761     0.802274068655     2.289466599436
    C            2.139625111740    -0.166424188673    -0.355161653908
    C            0.629238881756    -1.515702382512    -1.567370374711
    C            3.156986244711    -0.686586777361    -1.136636458094
    C            1.704792958453    -1.969953204892    -2.311081795304
    C           -0.285495325547    -0.021326787293     0.204963280925
    C            0.820796634112    -0.596915244588    -0.530873036895
    C           -2.352169559821     1.413440463555     1.645493231129
    N            2.970411201456    -1.581574838148    -2.114667456721
    O           -3.262582616295     2.025187664295     2.275806992048
    H           -1.390970776777     0.541761038246    -1.545662359347
    H            0.597366962603    -0.293899474250     2.141298497155
    H           -3.144150680917     1.750895212836    -0.328149454106
    H           -1.174784300884     0.879207611708     3.367649361467
    H            2.358455508250     0.580054361517     0.393952816086
    H           -0.365884499473    -1.880590750703    -1.775292967133
    H            4.175692434181    -0.351248274557    -0.988583914065
    H            1.546872944311    -2.689120039255    -3.104974372250

	Cleaning optimization helper files.

*** Psi4 exiting successfully. Buy a developer a beer!
