
    -----------------------------------------------------------------------
          Psi4: An Open-Source Ab Initio Electronic Structure Package
                               Psi4 1.1 release

                         Git: Rev {HEAD} add49b9 


    R. M. Parrish, L. A. Burns, D. G. A. Smith, A. C. Simmonett,
    A. E. DePrince III, E. G. Hohenstein, U. Bozkaya, A. Yu. Sokolov,
    R. Di Remigio, R. M. Richard, J. F. Gonthier, A. M. James,
    H. R. McAlexander, A. Kumar, M. Saitow, X. Wang, B. P. Pritchard,
    P. Verma, H. F. Schaefer III, K. Patkowski, R. A. King, E. F. Valeev,
    F. A. Evangelista, J. M. Turney, T. D. Crawford, and C. D. Sherrill,
    J. Chem. Theory Comput. in press (2017).
    (doi: 10.1021/acs.jctc.7b00174)

    -----------------------------------------------------------------------


    Psi4 started on: Sunday, 12 November 2017 02:56AM

    Process ID:  28424
    PSIDATADIR: /cbio/jclab/home/chayas/anaconda/envs/py35/share/psi4
    Memory:     500.0 MiB
    Threads:    8
    
  ==> Input File <==

--------------------------------------------------------------------------

memory 5 Gb

molecule phepyrOH_anion {
  symmetry C1
  -1 1 
  C      1.885   -1.036   -0.112
  C      2.878   -1.652   2.002
  C      0.807   -0.463   0.561
  C      1.800   -1.079   2.676
  C      4.253   -1.945   -1.435
  C      4.907   -3.080   0.582
  C      5.339   -2.538   -2.058
  C      5.964   -3.623   -0.131
  C      2.921   -1.631   0.608
  C      4.040   -2.226   -0.090
  C      0.764   -0.484   1.955
  N      6.203   -3.373   -1.438
  O      -0.227   0.042   2.574
  H      1.904   -1.011   -1.199
  H      3.678   -2.112   2.577
  H      0.011   -0.006   -0.025
  H      1.791   -1.108   3.764
  H      3.598   -1.282   -1.993
  H      4.772   -3.323   1.631
  H      5.550   -2.350   -3.105
  H      6.668   -4.296   0.347
  units Angstrom
}

dih_string = "1 9 10 5 15"
set optking fixed_dihedral = $dih_string

optimize('MP2/aug-cc-PVTZ')
--------------------------------------------------------------------------

  Memory set to   4.657 GiB by Python driver.
gradient() will perform analytic gradient computation.

*** tstart() called on gpu-1-8.local
*** at Sun Nov 12 02:56:11 2017

    SCF Algorithm Type (re)set to DF.

*** tstart() called on gpu-1-8.local
*** at Sun Nov 12 02:56:11 2017

   => Loading Basis Set <=

    Name: AUG-CC-PVTZ
    Role: ORBITAL
    Keyword: BASIS
    atoms 1-11  entry C          line   221 file /cbio/jclab/home/chayas/anaconda/envs/py35/share/psi4/basis/aug-cc-pvtz.gbs 
    atoms 12    entry N          line   267 file /cbio/jclab/home/chayas/anaconda/envs/py35/share/psi4/basis/aug-cc-pvtz.gbs 
    atoms 13    entry O          line   313 file /cbio/jclab/home/chayas/anaconda/envs/py35/share/psi4/basis/aug-cc-pvtz.gbs 
    atoms 14-21 entry H          line    34 file /cbio/jclab/home/chayas/anaconda/envs/py35/share/psi4/basis/aug-cc-pvtz.gbs 


         ---------------------------------------------------------
                                   SCF
            by Justin Turney, Rob Parrish, and Andy Simmonett
                              RHF Reference
                        8 Threads,   4768 MiB Core
         ---------------------------------------------------------

  ==> Geometry <==

    Molecular point group: c1
    Full point group: C1

    Geometry (in Angstrom), charge = -1, multiplicity = 1:

       Center              X                  Y                   Z               Mass       
    ------------   -----------------  -----------------  -----------------  -----------------
           C         -1.279266969621     0.723689168843    -0.569149518960    12.000000000000
           C         -0.286266969621     0.107689168843     1.544850481040    12.000000000000
           C         -2.357266969621     1.296689168843     0.103850481040    12.000000000000
           C         -1.364266969621     0.680689168843     2.218850481040    12.000000000000
           C          1.088733030379    -0.185310831157    -1.892149518960    12.000000000000
           C          1.742733030379    -1.320310831157     0.124850481040    12.000000000000
           C          2.174733030379    -0.778310831157    -2.515149518960    12.000000000000
           C          2.799733030379    -1.863310831157    -0.588149518960    12.000000000000
           C         -0.243266969621     0.128689168843     0.150850481040    12.000000000000
           C          0.875733030379    -0.466310831157    -0.547149518960    12.000000000000
           C         -2.400266969621     1.275689168843     1.497850481040    12.000000000000
           N          3.038733030379    -1.613310831157    -1.895149518960    14.003074004780
           O         -3.391266969621     1.801689168843     2.116850481040    15.994914619560
           H         -1.260266969621     0.748689168843    -1.656149518960     1.007825032070
           H          0.513733030379    -0.352310831157     2.119850481040     1.007825032070
           H         -3.153266969621     1.753689168843    -0.482149518960     1.007825032070
           H         -1.373266969621     0.651689168843     3.306850481040     1.007825032070
           H          0.433733030379     0.477689168843    -2.450149518960     1.007825032070
           H          1.607733030379    -1.563310831157     1.173850481040     1.007825032070
           H          2.385733030379    -0.590310831157    -3.562149518960     1.007825032070
           H          3.503733030379    -2.536310831157    -0.110149518960     1.007825032070

  Running in c1 symmetry.

  Rotational constants: A =      0.09732  B =      0.01403  C =      0.01232 [cm^-1]
  Rotational constants: A =   2917.70594  B =    420.72590  C =    369.28224 [MHz]
  Nuclear repulsion =  687.403134065880181

  Charge       = -1
  Multiplicity = 1
  Electrons    = 90
  Nalpha       = 45
  Nbeta        = 45

  ==> Algorithm <==

  SCF Algorithm Type is DF.
  DIIS enabled.
  MOM disabled.
  Fractional occupation disabled.
  Guess Type is SAD.
  Energy threshold   = 1.00e-10
  Density threshold  = 1.00e-10
  Integral threshold = 0.00e+00

  ==> Primary Basis <==

  Basis Set: AUG-CC-PVTZ
    Blend: AUG-CC-PVTZ
    Number of shells: 254
    Number of basis function: 782
    Number of Cartesian functions: 915
    Spherical Harmonics?: true
    Max angular momentum: 3

   => Loading Basis Set <=

    Name: (AUG-CC-PVTZ AUX)
    Role: JKFIT
    Keyword: DF_BASIS_SCF
    atoms 1-11  entry C          line   161 file /cbio/jclab/home/chayas/anaconda/envs/py35/share/psi4/basis/aug-cc-pvtz-jkfit.gbs 
    atoms 12    entry N          line   223 file /cbio/jclab/home/chayas/anaconda/envs/py35/share/psi4/basis/aug-cc-pvtz-jkfit.gbs 
    atoms 13    entry O          line   285 file /cbio/jclab/home/chayas/anaconda/envs/py35/share/psi4/basis/aug-cc-pvtz-jkfit.gbs 
    atoms 14-21 entry H          line    69 file /cbio/jclab/home/chayas/anaconda/envs/py35/share/psi4/basis/aug-cc-pvtz-jkfit.gbs 

  ==> Pre-Iterations <==

   -------------------------------------------------------
    Irrep   Nso     Nmo     Nalpha   Nbeta   Ndocc  Nsocc
   -------------------------------------------------------
     A        782     782       0       0       0       0
   -------------------------------------------------------
    Total     782     782      45      45      45       0
   -------------------------------------------------------

  ==> Integral Setup <==

  ==> DFJK: Density-Fitted J/K Matrices <==

    J tasked:                  Yes
    K tasked:                  Yes
    wK tasked:                  No
    OpenMP threads:              8
    Integrals threads:           8
    Memory (MB):              3576
    Algorithm:                Disk
    Integral Cache:           NONE
    Schwarz Cutoff:          1E-12
    Fitting Condition:       1E-12

   => Auxiliary Basis Set <=

  Basis Set: (AUG-CC-PVTZ AUX)
    Blend: AUG-CC-PVTZ-JKFIT
    Number of shells: 502
    Number of basis function: 1720
    Number of Cartesian functions: 2143
    Spherical Harmonics?: true
    Max angular momentum: 4

  Minimum eigenvalue in the overlap matrix is 6.3243271891E-07.
  Using Symmetric Orthogonalization.

  SCF Guess: Superposition of Atomic Densities via on-the-fly atomic UHF.

  ==> Iterations <==

                           Total Energy        Delta E     RMS |[F,P]|

   @DF-RHF iter   0:  -560.65069526490277   -5.60651e+02   1.55595e-02 
   @DF-RHF iter   1:  -550.25670309114253    1.03940e+01   2.61596e-03 
   @DF-RHF iter   2:  -550.58089176772182   -3.24189e-01   1.69300e-03 DIIS
   @DF-RHF iter   3:  -550.68486039688310   -1.03969e-01   6.26170e-04 DIIS
   @DF-RHF iter   4:  -550.71012481962657   -2.52644e-02   1.73906e-04 DIIS
   @DF-RHF iter   5:  -550.71304099647739   -2.91618e-03   7.48563e-05 DIIS
   @DF-RHF iter   6:  -550.71363692439024   -5.95928e-04   2.74224e-05 DIIS
   @DF-RHF iter   7:  -550.71375576742616   -1.18843e-04   9.24163e-06 DIIS
   @DF-RHF iter   8:  -550.71377668049570   -2.09131e-05   4.37679e-06 DIIS
   @DF-RHF iter   9:  -550.71378372344691   -7.04295e-06   2.94214e-06 DIIS
   @DF-RHF iter  10:  -550.71378602826428   -2.30482e-06   1.08677e-06 DIIS
   @DF-RHF iter  11:  -550.71378638065232   -3.52388e-07   2.86348e-07 DIIS
   @DF-RHF iter  12:  -550.71378640746343   -2.68111e-08   1.42219e-07 DIIS
   @DF-RHF iter  13:  -550.71378641045214   -2.98871e-09   5.09432e-08 DIIS
   @DF-RHF iter  14:  -550.71378641112551   -6.73367e-10   2.84127e-08 DIIS
   @DF-RHF iter  15:  -550.71378641124318   -1.17666e-10   8.17841e-09 DIIS
   @DF-RHF iter  16:  -550.71378641127455   -3.13776e-11   5.03498e-09 DIIS
   @DF-RHF iter  17:  -550.71378641128467   -1.01181e-11   2.06587e-09 DIIS
   @DF-RHF iter  18:  -550.71378641128342    1.25056e-12   7.46227e-10 DIIS
   @DF-RHF iter  19:  -550.71378641127546    7.95808e-12   2.60270e-10 DIIS
   @DF-RHF iter  20:  -550.71378641128138   -5.91172e-12   9.23405e-11 DIIS

  ==> Post-Iterations <==

    Orbital Energies (a.u.)
    -----------------------

    Doubly Occupied:                                                      

       1A    -20.302130     2A    -15.443695     3A    -11.164912  
       4A    -11.164799     5A    -11.142517     6A    -11.119499  
       7A    -11.114807     8A    -11.114692     9A    -11.102246  
      10A    -11.102220    11A    -11.076176    12A    -11.063915  
      13A    -11.063868    14A     -1.134694    15A     -1.132834  
      16A     -1.020338    17A     -0.956950    18A     -0.921149  
      19A     -0.870608    20A     -0.838479    21A     -0.747471  
      22A     -0.731948    23A     -0.679837    24A     -0.649140  
      25A     -0.599238    26A     -0.548474    27A     -0.545560  
      28A     -0.499363    29A     -0.492427    30A     -0.481542  
      31A     -0.481119    32A     -0.442529    33A     -0.431372  
      34A     -0.409296    35A     -0.407933    36A     -0.382779  
      37A     -0.355088    38A     -0.353225    39A     -0.316421  
      40A     -0.303985    41A     -0.242823    42A     -0.241003  
      43A     -0.218738    44A     -0.200574    45A     -0.106543  

    Virtual:                                                              

      46A      0.099124    47A      0.099806    48A      0.116319  
      49A      0.116449    50A      0.128331    51A      0.129952  
      52A      0.135359    53A      0.139239    54A      0.164158  
      55A      0.165965    56A      0.176869    57A      0.183797  
      58A      0.185580    59A      0.188594    60A      0.191108  
      61A      0.196182    62A      0.200204    63A      0.206499  
      64A      0.209207    65A      0.212822    66A      0.214664  
      67A      0.217684    68A      0.219379    69A      0.229405  
      70A      0.230340    71A      0.234485    72A      0.238569  
      73A      0.239911    74A      0.240631    75A      0.248734  
      76A      0.250097    77A      0.254503    78A      0.264017  
      79A      0.265336    80A      0.269125    81A      0.271550  
      82A      0.279159    83A      0.283849    84A      0.290361  
      85A      0.293693    86A      0.301218    87A      0.311488  
      88A      0.315210    89A      0.316676    90A      0.323050  
      91A      0.328769    92A      0.330031    93A      0.332040  
      94A      0.335135    95A      0.342346    96A      0.344924  
      97A      0.349232    98A      0.357632    99A      0.364384  
     100A      0.365383   101A      0.376234   102A      0.382675  
     103A      0.384460   104A      0.384875   105A      0.389594  
     106A      0.391147   107A      0.400909   108A      0.402407  
     109A      0.404861   110A      0.416249   111A      0.416934  
     112A      0.424064   113A      0.428146   114A      0.428959  
     115A      0.432116   116A      0.436570   117A      0.442167  
     118A      0.443998   119A      0.457670   120A      0.461067  
     121A      0.462110   122A      0.477535   123A      0.478565  
     124A      0.482151   125A      0.490297   126A      0.496614  
     127A      0.500018   128A      0.502448   129A      0.519044  
     130A      0.521594   131A      0.522108   132A      0.522310  
     133A      0.530499   134A      0.540435   135A      0.541882  
     136A      0.542571   137A      0.554745   138A      0.560665  
     139A      0.561086   140A      0.562026   141A      0.568024  
     142A      0.572987   143A      0.575851   144A      0.577884  
     145A      0.578656   146A      0.589968   147A      0.594300  
     148A      0.596366   149A      0.598612   150A      0.599575  
     151A      0.606063   152A      0.607053   153A      0.611410  
     154A      0.615025   155A      0.616020   156A      0.617172  
     157A      0.624546   158A      0.628735   159A      0.634540  
     160A      0.637116   161A      0.639791   162A      0.644240  
     163A      0.651056   164A      0.652802   165A      0.660934  
     166A      0.662456   167A      0.670914   168A      0.671169  
     169A      0.675216   170A      0.680610   171A      0.693505  
     172A      0.694963   173A      0.699652   174A      0.703485  
     175A      0.716510   176A      0.716735   177A      0.723369  
     178A      0.724367   179A      0.733689   180A      0.738268  
     181A      0.742401   182A      0.755166   183A      0.762901  
     184A      0.763339   185A      0.773503   186A      0.778860  
     187A      0.789595   188A      0.795134   189A      0.807610  
     190A      0.811171   191A      0.813059   192A      0.815167  
     193A      0.817823   194A      0.824210   195A      0.826899  
     196A      0.827293   197A      0.836302   198A      0.838925  
     199A      0.848390   200A      0.858266   201A      0.866302  
     202A      0.867033   203A      0.873557   204A      0.878784  
     205A      0.882451   206A      0.886488   207A      0.901653  
     208A      0.906873   209A      0.914316   210A      0.918435  
     211A      0.920643   212A      0.934234   213A      0.936296  
     214A      0.954219   215A      0.956683   216A      0.962495  
     217A      0.965386   218A      0.976506   219A      0.985616  
     220A      0.990014   221A      0.992632   222A      1.001523  
     223A      1.001640   224A      1.006115   225A      1.009407  
     226A      1.010123   227A      1.013167   228A      1.022515  
     229A      1.024350   230A      1.034492   231A      1.035671  
     232A      1.037474   233A      1.047110   234A      1.048322  
     235A      1.059950   236A      1.060445   237A      1.061119  
     238A      1.064670   239A      1.069952   240A      1.078046  
     241A      1.087367   242A      1.090350   243A      1.094531  
     244A      1.104132   245A      1.106222   246A      1.109134  
     247A      1.111644   248A      1.116728   249A      1.119608  
     250A      1.122595   251A      1.126232   252A      1.129744  
     253A      1.132393   254A      1.137693   255A      1.139467  
     256A      1.144847   257A      1.145583   258A      1.147300  
     259A      1.162609   260A      1.162821   261A      1.162952  
     262A      1.169636   263A      1.171652   264A      1.175082  
     265A      1.189427   266A      1.192975   267A      1.195510  
     268A      1.204335   269A      1.212652   270A      1.220577  
     271A      1.226656   272A      1.231245   273A      1.240607  
     274A      1.243115   275A      1.246459   276A      1.255319  
     277A      1.261458   278A      1.261627   279A      1.270040  
     280A      1.274155   281A      1.278279   282A      1.280547  
     283A      1.292774   284A      1.295465   285A      1.299535  
     286A      1.301835   287A      1.309849   288A      1.316346  
     289A      1.316909   290A      1.322023   291A      1.325256  
     292A      1.325529   293A      1.330554   294A      1.339498  
     295A      1.346675   296A      1.349668   297A      1.351723  
     298A      1.354010   299A      1.359650   300A      1.373453  
     301A      1.373597   302A      1.380152   303A      1.386457  
     304A      1.398532   305A      1.399368   306A      1.407114  
     307A      1.411754   308A      1.427119   309A      1.431101  
     310A      1.436356   311A      1.438809   312A      1.443475  
     313A      1.454372   314A      1.467007   315A      1.472178  
     316A      1.479262   317A      1.483630   318A      1.484249  
     319A      1.498846   320A      1.510022   321A      1.514743  
     322A      1.523401   323A      1.525218   324A      1.531197  
     325A      1.549960   326A      1.551555   327A      1.560257  
     328A      1.567978   329A      1.581715   330A      1.591464  
     331A      1.600298   332A      1.610053   333A      1.619676  
     334A      1.622616   335A      1.633040   336A      1.637095  
     337A      1.644071   338A      1.652253   339A      1.656762  
     340A      1.673774   341A      1.688914   342A      1.689438  
     343A      1.704975   344A      1.711681   345A      1.720870  
     346A      1.739372   347A      1.749525   348A      1.752081  
     349A      1.765587   350A      1.769492   351A      1.779113  
     352A      1.788024   353A      1.788380   354A      1.802109  
     355A      1.802906   356A      1.807305   357A      1.820073  
     358A      1.830143   359A      1.831737   360A      1.839068  
     361A      1.840091   362A      1.845202   363A      1.850443  
     364A      1.869912   365A      1.871959   366A      1.877056  
     367A      1.896451   368A      1.901866   369A      1.919773  
     370A      1.933500   371A      1.938618   372A      1.946591  
     373A      1.948234   374A      1.948502   375A      1.965527  
     376A      1.966263   377A      1.983604   378A      1.985810  
     379A      1.998733   380A      2.008633   381A      2.015796  
     382A      2.024467   383A      2.031112   384A      2.037884  
     385A      2.046741   386A      2.060906   387A      2.066890  
     388A      2.076990   389A      2.082184   390A      2.095608  
     391A      2.099405   392A      2.103686   393A      2.116201  
     394A      2.116420   395A      2.120469   396A      2.133466  
     397A      2.140236   398A      2.142902   399A      2.148948  
     400A      2.162780   401A      2.163112   402A      2.172957  
     403A      2.174407   404A      2.179403   405A      2.181589  
     406A      2.192656   407A      2.194730   408A      2.202710  
     409A      2.215530   410A      2.222711   411A      2.232366  
     412A      2.234960   413A      2.248742   414A      2.250314  
     415A      2.263642   416A      2.263918   417A      2.285309  
     418A      2.297543   419A      2.303784   420A      2.311289  
     421A      2.313571   422A      2.319749   423A      2.324555  
     424A      2.326407   425A      2.330774   426A      2.349021  
     427A      2.354559   428A      2.380791   429A      2.384844  
     430A      2.391342   431A      2.403445   432A      2.418204  
     433A      2.419499   434A      2.430208   435A      2.443563  
     436A      2.444631   437A      2.456059   438A      2.473701  
     439A      2.490417   440A      2.492824   441A      2.506284  
     442A      2.509163   443A      2.516686   444A      2.534039  
     445A      2.558079   446A      2.563734   447A      2.564744  
     448A      2.571626   449A      2.580738   450A      2.588100  
     451A      2.588513   452A      2.615661   453A      2.626000  
     454A      2.628307   455A      2.646748   456A      2.655647  
     457A      2.664977   458A      2.680892   459A      2.683366  
     460A      2.707816   461A      2.713853   462A      2.726598  
     463A      2.740456   464A      2.740703   465A      2.760189  
     466A      2.774108   467A      2.790814   468A      2.819288  
     469A      2.839720   470A      2.855031   471A      2.858196  
     472A      2.869825   473A      2.896795   474A      2.911036  
     475A      2.926464   476A      2.933263   477A      2.949312  
     478A      2.961404   479A      2.962779   480A      2.981994  
     481A      3.008084   482A      3.023105   483A      3.046195  
     484A      3.056967   485A      3.110259   486A      3.121134  
     487A      3.144402   488A      3.157796   489A      3.174333  
     490A      3.187901   491A      3.210189   492A      3.213235  
     493A      3.252417   494A      3.256486   495A      3.269385  
     496A      3.296143   497A      3.319565   498A      3.343897  
     499A      3.352703   500A      3.358771   501A      3.377404  
     502A      3.403871   503A      3.423849   504A      3.431888  
     505A      3.443172   506A      3.453244   507A      3.465784  
     508A      3.492489   509A      3.495809   510A      3.505741  
     511A      3.507322   512A      3.513695   513A      3.515466  
     514A      3.532273   515A      3.541496   516A      3.558157  
     517A      3.559596   518A      3.562099   519A      3.567611  
     520A      3.586724   521A      3.593575   522A      3.628488  
     523A      3.633297   524A      3.638225   525A      3.657155  
     526A      3.664353   527A      3.664659   528A      3.678189  
     529A      3.683958   530A      3.684721   531A      3.696463  
     532A      3.697296   533A      3.713013   534A      3.714616  
     535A      3.738179   536A      3.748277   537A      3.756248  
     538A      3.761082   539A      3.766544   540A      3.785259  
     541A      3.798323   542A      3.799591   543A      3.803607  
     544A      3.816498   545A      3.817302   546A      3.834348  
     547A      3.838358   548A      3.845777   549A      3.861281  
     550A      3.871787   551A      3.890044   552A      3.899090  
     553A      3.913069   554A      3.919674   555A      3.926973  
     556A      3.928512   557A      3.940092   558A      3.948615  
     559A      3.957758   560A      3.958402   561A      3.982269  
     562A      3.984859   563A      4.012350   564A      4.016374  
     565A      4.016870   566A      4.030529   567A      4.034121  
     568A      4.044024   569A      4.054399   570A      4.062989  
     571A      4.065472   572A      4.069851   573A      4.084452  
     574A      4.089173   575A      4.100294   576A      4.110981  
     577A      4.116152   578A      4.137224   579A      4.140653  
     580A      4.149333   581A      4.151401   582A      4.158859  
     583A      4.164624   584A      4.174627   585A      4.185941  
     586A      4.194157   587A      4.194721   588A      4.199192  
     589A      4.232211   590A      4.245583   591A      4.255784  
     592A      4.266047   593A      4.275939   594A      4.287157  
     595A      4.288260   596A      4.295668   597A      4.310341  
     598A      4.315263   599A      4.335196   600A      4.342978  
     601A      4.355211   602A      4.361484   603A      4.361566  
     604A      4.366188   605A      4.369230   606A      4.376077  
     607A      4.397790   608A      4.405293   609A      4.415520  
     610A      4.427374   611A      4.432425   612A      4.448843  
     613A      4.465608   614A      4.475321   615A      4.478993  
     616A      4.486039   617A      4.492679   618A      4.505148  
     619A      4.513527   620A      4.519162   621A      4.531280  
     622A      4.542264   623A      4.552696   624A      4.557539  
     625A      4.571454   626A      4.579520   627A      4.585884  
     628A      4.604258   629A      4.606509   630A      4.609403  
     631A      4.609791   632A      4.630928   633A      4.662632  
     634A      4.669685   635A      4.676141   636A      4.681916  
     637A      4.687230   638A      4.696928   639A      4.723613  
     640A      4.735829   641A      4.749394   642A      4.769685  
     643A      4.770441   644A      4.779301   645A      4.792045  
     646A      4.796720   647A      4.832306   648A      4.864423  
     649A      4.871856   650A      4.877605   651A      4.879563  
     652A      4.889449   653A      4.906636   654A      4.935229  
     655A      4.940250   656A      4.960601   657A      4.980624  
     658A      4.989220   659A      5.004877   660A      5.005141  
     661A      5.035267   662A      5.051449   663A      5.060232  
     664A      5.067506   665A      5.078552   666A      5.100945  
     667A      5.112799   668A      5.115331   669A      5.136975  
     670A      5.156251   671A      5.168552   672A      5.169069  
     673A      5.177188   674A      5.185868   675A      5.216507  
     676A      5.229414   677A      5.239229   678A      5.252187  
     679A      5.269273   680A      5.274026   681A      5.278891  
     682A      5.280247   683A      5.287297   684A      5.292237  
     685A      5.295579   686A      5.299970   687A      5.321572  
     688A      5.339273   689A      5.365729   690A      5.366025  
     691A      5.399177   692A      5.403865   693A      5.417180  
     694A      5.440297   695A      5.470910   696A      5.474707  
     697A      5.487690   698A      5.504877   699A      5.554703  
     700A      5.555871   701A      5.570712   702A      5.578197  
     703A      5.597664   704A      5.626704   705A      5.648084  
     706A      5.652874   707A      5.664180   708A      5.675987  
     709A      5.685560   710A      5.731361   711A      5.732384  
     712A      5.821804   713A      5.842737   714A      5.856879  
     715A      5.868209   716A      5.880142   717A      5.896366  
     718A      5.912300   719A      5.938561   720A      5.954394  
     721A      5.964626   722A      5.981679   723A      6.011948  
     724A      6.027561   725A      6.033542   726A      6.100261  
     727A      6.114629   728A      6.199611   729A      6.260368  
     730A      6.301556   731A      6.310071   732A      6.317631  
     733A      6.371623   734A      6.391687   735A      6.430909  
     736A      6.450034   737A      6.536640   738A      6.566680  
     739A      6.608690   740A      6.611472   741A      6.677229  
     742A      6.713620   743A      6.770843   744A      6.781224  
     745A      6.839570   746A      6.853964   747A      6.860808  
     748A      6.863297   749A      6.896211   750A      6.986672  
     751A      7.008550   752A      7.056472   753A      7.083056  
     754A      7.084823   755A      7.106373   756A      7.184858  
     757A      7.216342   758A      7.261003   759A      7.316800  
     760A      7.355442   761A      7.364892   762A      7.563999  
     763A      7.613437   764A      7.641263   765A      7.927728  
     766A      7.947008   767A      8.025488   768A      8.147781  
     769A      8.219685   770A     15.741071   771A     16.144310  
     772A     16.528989   773A     17.215591   774A     17.374918  
     775A     18.680697   776A     19.054470   777A     19.701620  
     778A     20.036887   779A     20.448582   780A     20.611549  
     781A     20.877560   782A     21.502831  

    Final Occupation by Irrep:
              A 
    DOCC [    45 ]

  Energy converged.

  @DF-RHF Final Energy:  -550.71378641128138

   => Energetics <=

    Nuclear Repulsion Energy =            687.4031340658801810
    One-Electron Energy =               -2124.7959297946063089
    Two-Electron Energy =                 886.6790093174446383
    DFT Exchange-Correlation Energy =       0.0000000000000000
    Empirical Dispersion Energy =           0.0000000000000000
    PCM Polarization Energy =               0.0000000000000000
    EFP Energy =                            0.0000000000000000
    Total Energy =                       -550.7137864112813759



Properties will be evaluated at   0.000000,   0.000000,   0.000000 Bohr

Properties computed using the SCF density matrix

  Nuclear Dipole Moment: (a.u.)
     X:     2.4665      Y:    -1.3089      Z:    -1.5407

  Electronic Dipole Moment: (a.u.)
     X:     0.1308      Y:    -0.0709      Z:    -0.0814

  Dipole Moment: (a.u.)
     X:     2.5974      Y:    -1.3799      Z:    -1.6221     Total:     3.3588

  Dipole Moment: (Debye)
     X:     6.6019      Y:    -3.5073      Z:    -4.1229     Total:     8.5373


*** tstop() called on gpu-1-8.local at Sun Nov 12 03:05:33 2017
Module time:
	user time   =    1162.38 seconds =      19.37 minutes
	system time =      49.91 seconds =       0.83 minutes
	total time  =        562 seconds =       9.37 minutes
Total time:
	user time   =    1162.39 seconds =      19.37 minutes
	system time =      49.91 seconds =       0.83 minutes
	total time  =        562 seconds =       9.37 minutes

  //>>>>>>>>>>>>>>>>>>>>>>>>>>>>>>>>>>>//
  //               DFMP2               //
  //<<<<<<<<<<<<<<<<<<<<<<<<<<<<<<<<<<<//

   => Loading Basis Set <=

    Name: (AUG-CC-PVTZ AUX)
    Role: RIFIT
    Keyword: DF_BASIS_MP2
    atoms 1-11  entry C          line   147 file /cbio/jclab/home/chayas/anaconda/envs/py35/share/psi4/basis/aug-cc-pvtz-ri.gbs 
    atoms 12    entry N          line   205 file /cbio/jclab/home/chayas/anaconda/envs/py35/share/psi4/basis/aug-cc-pvtz-ri.gbs 
    atoms 13    entry O          line   263 file /cbio/jclab/home/chayas/anaconda/envs/py35/share/psi4/basis/aug-cc-pvtz-ri.gbs 
    atoms 14-21 entry H          line    29 file /cbio/jclab/home/chayas/anaconda/envs/py35/share/psi4/basis/aug-cc-pvtz-ri.gbs 

	 --------------------------------------------------------
	                          DF-MP2                         
	      2nd-Order Density-Fitted Moller-Plesset Theory     
	              RMP2 Wavefunction,   8 Threads             
	                                                         
	        Rob Parrish, Justin Turney, Andy Simmonett,      
	           Ed Hohenstein, and C. David Sherrill          
	 --------------------------------------------------------

   => Auxiliary Basis Set <=

  Basis Set: (AUG-CC-PVTZ AUX)
    Blend: AUG-CC-PVTZ-RI
    Number of shells: 476
    Number of basis function: 1746
    Number of Cartesian functions: 2208
    Spherical Harmonics?: true
    Max angular momentum: 4

	 --------------------------------------------------------
	                 NBF =   782, NAUX =  1746
	 --------------------------------------------------------
	   CLASS    FOCC     OCC    AOCC    AVIR     VIR    FVIR
	   PAIRS       0      45      45     737     737       0
	 --------------------------------------------------------


         ------------------------------------------------------------
                                     CPHF                           
                                  Rob Parrish                       
         ------------------------------------------------------------

  ==> Geometry <==

    Molecular point group: c1
    Full point group: C1

    Geometry (in Angstrom), charge = -1, multiplicity = 1:

       Center              X                  Y                   Z               Mass       
    ------------   -----------------  -----------------  -----------------  -----------------
           C         -1.279266969621     0.723689168843    -0.569149518960    12.000000000000
           C         -0.286266969621     0.107689168843     1.544850481040    12.000000000000
           C         -2.357266969621     1.296689168843     0.103850481040    12.000000000000
           C         -1.364266969621     0.680689168843     2.218850481040    12.000000000000
           C          1.088733030379    -0.185310831157    -1.892149518960    12.000000000000
           C          1.742733030379    -1.320310831157     0.124850481040    12.000000000000
           C          2.174733030379    -0.778310831157    -2.515149518960    12.000000000000
           C          2.799733030379    -1.863310831157    -0.588149518960    12.000000000000
           C         -0.243266969621     0.128689168843     0.150850481040    12.000000000000
           C          0.875733030379    -0.466310831157    -0.547149518960    12.000000000000
           C         -2.400266969621     1.275689168843     1.497850481040    12.000000000000
           N          3.038733030379    -1.613310831157    -1.895149518960    14.003074004780
           O         -3.391266969621     1.801689168843     2.116850481040    15.994914619560
           H         -1.260266969621     0.748689168843    -1.656149518960     1.007825032070
           H          0.513733030379    -0.352310831157     2.119850481040     1.007825032070
           H         -3.153266969621     1.753689168843    -0.482149518960     1.007825032070
           H         -1.373266969621     0.651689168843     3.306850481040     1.007825032070
           H          0.433733030379     0.477689168843    -2.450149518960     1.007825032070
           H          1.607733030379    -1.563310831157     1.173850481040     1.007825032070
           H          2.385733030379    -0.590310831157    -3.562149518960     1.007825032070
           H          3.503733030379    -2.536310831157    -0.110149518960     1.007825032070

  Nuclear repulsion =  687.403134065880181
  Reference energy  = -550.713786411281376

  ==> Basis Set <==

  Basis Set: AUG-CC-PVTZ
    Blend: AUG-CC-PVTZ
    Number of shells: 254
    Number of basis function: 782
    Number of Cartesian functions: 915
    Spherical Harmonics?: true
    Max angular momentum: 3

  ==> CGRSolver (by Rob Parrish) <==

   Number of roots    =         1
   Preconditioning    =    JACOBI
   Convergence cutoff =     1E-06
   Maximum iterations =       100

  ==> CPHFRHamiltonian (by Rob Parrish) <== 

  ==> DFJK: Density-Fitted J/K Matrices <==

    J tasked:                  Yes
    K tasked:                  Yes
    wK tasked:                  No
    OpenMP threads:              8
    Integrals threads:           8
    Memory (MB):              3576
    Algorithm:                Disk
    Integral Cache:           NONE
    Schwarz Cutoff:          1E-12
    Fitting Condition:       1E-12

   => Auxiliary Basis Set <=

  Basis Set: (AUG-CC-PVTZ AUX)
    Blend: AUG-CC-PVTZ-JKFIT
    Number of shells: 502
    Number of basis function: 1720
    Number of Cartesian functions: 2143
    Spherical Harmonics?: true
    Max angular momentum: 4

  ==> CPHF Iterations <==

  => Iterations <=

             Iter  Converged  Remaining    Residual
  CGR           1          0          1   1.423E-01
  CGR           2          0          1   5.631E-02
  CGR           3          0          1   3.332E-02
  CGR           4          0          1   1.182E-02
  CGR           5          0          1   5.806E-03
  CGR           6          0          1   3.187E-03
  CGR           7          0          1   9.341E-04
  CGR           8          0          1   3.113E-04
  CGR           9          0          1   1.226E-04
  CGR          10          0          1   3.705E-05
  CGR          11          0          1   1.421E-05
  CGR          12          0          1   6.151E-06
  CGR          13          0          1   2.699E-06
  CGR          14          0          1   1.068E-06
  CGR          15          1          0   3.244E-07

    CGRSolver converged.

  ==> DFCorrGrad: Density-Fitted Correlated Gradients <==

    OpenMP threads:              8
    Integrals threads:           8
    Memory (MB):              3576
    Schwarz Cutoff:          0E+00
    Fitting Condition:       1E-12

   => Auxiliary Basis Set <=

  Basis Set: (AUG-CC-PVTZ AUX)
    Blend: AUG-CC-PVTZ-JKFIT
    Number of shells: 502
    Number of basis function: 1720
    Number of Cartesian functions: 2143
    Spherical Harmonics?: true
    Max angular momentum: 4

	-----------------------------------------------------------
	 ==================> DF-MP2 Energies <==================== 
	-----------------------------------------------------------
	 Reference Energy          =    -550.7137864112813759 [Eh]
	 Singles Energy            =      -0.0000000000000002 [Eh]
	 Same-Spin Energy          =      -0.6143419211062164 [Eh]
	 Opposite-Spin Energy      =      -1.8396736345699818 [Eh]
	 Correlation Energy        =      -2.4540155556761989 [Eh]
	 Total Energy              =    -553.1678019669575406 [Eh]
	-----------------------------------------------------------
	 ================> DF-SCS-MP2 Energies <================== 
	-----------------------------------------------------------
	 SCS Same-Spin Scale       =       0.3333333333333333 [-]
	 SCS Opposite-Spin Scale   =       1.2000000000000000 [-]
	 SCS Same-Spin Energy      =      -0.2047806403687388 [Eh]
	 SCS Opposite-Spin Energy  =      -2.2076083614839779 [Eh]
	 SCS Correlation Energy    =      -2.4123890018527172 [Eh]
	 SCS Total Energy          =    -553.1261754131340922 [Eh]
	-----------------------------------------------------------


  -Total Gradient:
     Atom            X                  Y                   Z
    ------   -----------------  -----------------  -----------------
       1        0.017578033840    -0.012021560098    -0.008565014670
       2        0.017870737008    -0.006797377074    -0.013599156524
       3       -0.023995575872     0.011837001534     0.040199105653
       4       -0.042297835702     0.023253782792     0.002083392040
       5       -0.014774506994     0.009025806353     0.010320434904
       6       -0.016718615187     0.007433944545     0.010099460956
       7       -0.005177529255     0.006279725838    -0.005273339025
       8       -0.001094650467    -0.002746798351     0.008665806680
       9       -0.015832605070     0.008421532830     0.009917607351
      10        0.024752518952    -0.013284985260    -0.015234697793
      11        0.050678975243    -0.026751873372    -0.032165889193
      12        0.005581421777    -0.002948254790    -0.003564330673
      13       -0.001132078954     0.000533968812     0.000782697918
      14        0.001187236822     0.001266177280    -0.005833029978
      15        0.003792396797    -0.003901328322     0.002601661636
      16       -0.001660076661     0.001644298257    -0.008954665723
      17        0.005292179121    -0.003564427875     0.006339356384
      18       -0.005575203676     0.003609330144    -0.004135076936
      19       -0.000376010022    -0.000207345908     0.007202155014
      20        0.000657258396    -0.000323507709    -0.001043770896
      21        0.001243929902    -0.000758109623     0.000157292878


*** tstop() called on gpu-1-8.local at Sun Nov 12 03:47:36 2017
Module time:
	user time   =    5720.37 seconds =      95.34 minutes
	system time =     111.33 seconds =       1.86 minutes
	total time  =       3085 seconds =      51.42 minutes
Total time:
	user time   =    5720.38 seconds =      95.34 minutes
	system time =     111.33 seconds =       1.86 minutes
	total time  =       3085 seconds =      51.42 minutes

			-----------------------------------------
			 OPTKING 2.0: for geometry optimizations 
			  - R.A. King,  Bethel University        
			-----------------------------------------

	Internal coordinates to be generated automatically.
	Detected frag 1 with atoms:  1 2 3 4 5 6 7 8 9 10 11 12 13 14 15 16 17 18 19 20
	 21
	---Fragment 1 Bond Connectivity---
	 1 : 3 9 14
	 2 : 4 9 15
	 3 : 1 11 16
	 4 : 2 11 17
	 5 : 7 10 18
	 6 : 8 10 19
	 7 : 5 12 20
	 8 : 6 12 21
	 9 : 1 2 10
	 10 : 5 6 9
	 11 : 3 4 13
	 12 : 7 8
	 13 : 11
	 14 : 1
	 15 : 2
	 16 : 3
	 17 : 4
	 18 : 5
	 19 : 6
	 20 : 7
	 21 : 8

	Assuming in current code that numbering for constraints corresponds to unified fragment.
	Fixed dihedral atom list: 
	     1     9    10     5
	---Fragment 1 Geometry and Gradient---
	 C          -2.4174642234        1.3675743344       -1.0755367195
	 C          -0.5409661735        0.2035030366        2.9193443254
	 C          -4.4545889947        2.4503874086        0.1962489679
	 C          -2.5780909447        1.2863161107        4.1930197390
	 C           2.0574072592       -0.3501867203       -3.5756443933
	 C           3.2932881502       -2.4950258812        0.2359332167
	 C           4.1096498396       -1.4707943171       -4.7529437741
	 C           5.2907286726       -3.5211471713       -1.1114415160
	 C          -0.4597079498        0.2431872854        0.2850660962
	 C           1.6548955929       -0.8811997637       -1.0339627446
	 C          -4.5358472184        2.4107031598        2.8305271972
	 N           5.7423732184       -3.0487156381       -3.5813135717
	 O          -6.4085658161        3.4046991057        4.0002676734
	 H          -2.3815594269        1.4148174878       -3.1296690259
	 H           0.9708147328       -0.6657709845        4.0059368518
	 H          -5.9588109965        3.3139922513       -0.9111305459
	 H          -2.5950984799        1.2315140529        6.2490417716
	 H           0.8196366422        0.9027017058       -4.6301115755
	 H           3.0381751222       -2.9542293315        2.2182559301
	 H           4.5083820536       -1.1155258042       -6.7314870352
	 H           6.6210958702       -4.7929328588       -0.2081524245
	             0.0175780338       -0.0120215601       -0.0085650147
	             0.0178707370       -0.0067973771       -0.0135991565
	            -0.0239955759        0.0118370015        0.0401991057
	            -0.0422978357        0.0232537828        0.0020833920
	            -0.0147745070        0.0090258064        0.0103204349
	            -0.0167186152        0.0074339445        0.0100994610
	            -0.0051775293        0.0062797258       -0.0052733390
	            -0.0010946505       -0.0027467984        0.0086658067
	            -0.0158326051        0.0084215328        0.0099176074
	             0.0247525190       -0.0132849853       -0.0152346978
	             0.0506789752       -0.0267518734       -0.0321658892
	             0.0055814218       -0.0029482548       -0.0035643307
	            -0.0011320790        0.0005339688        0.0007826979
	             0.0011872368        0.0012661773       -0.0058330300
	             0.0037923968       -0.0039013283        0.0026016616
	            -0.0016600767        0.0016442983       -0.0089546657
	             0.0052921791       -0.0035644279        0.0063393564
	            -0.0055752037        0.0036093301       -0.0041350769
	            -0.0003760100       -0.0002073459        0.0072021550
	             0.0006572584       -0.0003235077       -0.0010437709
	             0.0012439299       -0.0007581096        0.0001572929

	Previous optimization step data not found.  Starting new optimization.

	---Fragment 1 Intrafragment Coordinates---
	 - Coordinate -           - BOHR/RAD -       - ANG/DEG -
	 R(1,3)           =         2.634350	       1.394038
	 R(1,9)           =         2.635962	       1.394891
	 R(1,14)          =         2.054989	       1.087453
	 R(2,4)           =         2.635263	       1.394521
	 R(2,9)           =         2.635830	       1.394821
	 R(2,15)          =         2.054702	       1.087302
	 R(3,11)          =         2.635830	       1.394821
	 R(3,16)          =         2.057860	       1.088972
	 R(4,11)          =         2.636938	       1.395407
	 R(4,17)          =         2.056823	       1.088424
	 R(5,7)           =         2.617918	       1.385343
	 R(5,10)          =         2.627572	       1.390451
	 R(5,18)          =         2.052731	       1.086259
	 R(6,8)           =         2.618800	       1.385809
	 R(6,10)          =         2.627052	       1.390176
	 R(6,19)          =         2.050745	       1.085207
	 R(7,12)          =         2.555061	       1.352080
	 R(7,20)          =         2.049350	       1.084469
	 R(8,12)          =         2.554886	       1.351987
	 R(8,21)          =         2.050182	       1.084910
	 R(9,10)          =         2.734160	       1.446855
	 R(11,13)         =         2.421445	       1.281373
	 B(1,3,11)        =         2.094553	     120.009056
	 B(1,3,16)        =         2.069123	     118.552025
	 B(1,9,2)         =         2.093692	     119.959722
	 B(1,9,10)        =         2.095337	     120.053983
	 B(2,4,11)        =         2.093699	     119.960108
	 B(2,4,17)        =         2.069829	     118.592446
	 B(2,9,10)        =         2.094156	     119.986294
	 B(3,1,9)         =         2.094940	     120.031219
	 B(3,1,14)        =         2.079025	     119.119344
	 B(3,11,4)        =         2.094306	     119.994870
	 B(3,11,13)       =         2.094918	     120.029973
	 B(4,2,9)         =         2.095181	     120.045019
	 B(4,2,15)        =         2.079455	     119.143974
	 B(4,11,13)       =         2.093961	     119.975136
	 B(5,7,12)        =         2.164065	     123.991808
	 B(5,7,20)        =         2.108877	     120.829726
	 B(5,10,6)        =         2.090014	     119.748990
	 B(5,10,9)        =         2.096733	     120.133973
	 B(6,8,12)        =         2.164892	     124.039187
	 B(6,8,21)        =         2.107512	     120.751562
	 B(6,10,9)        =         2.096437	     120.117015
	 B(7,5,10)        =         2.058489	     117.942736
	 B(7,5,18)        =         2.097801	     120.195165
	 B(7,12,8)        =         2.031443	     116.393103
	 B(8,6,10)        =         2.057467	     117.884170
	 B(8,6,19)        =         2.099576	     120.296859
	 B(9,1,14)        =         2.109221	     120.849435
	 B(9,2,15)        =         2.108550	     120.811005
	 B(10,5,18)       =         2.126894	     121.862030
	 B(10,6,19)       =         2.126142	     121.818956
	 B(11,3,16)       =         2.119509	     121.438903
	 B(11,4,17)       =         2.119657	     121.447411
	 B(12,7,20)       =         2.010243	     115.178418
	 B(12,8,21)       =         2.010780	     115.209224
	 D(1,3,11,4)      =        -0.000325	      -0.018609
	 D(1,3,11,13)     =        -3.141004	    -179.966279
	 D(1,9,2,4)       =         0.000325	       0.018608
	 D(1,9,2,15)      =        -3.141527	    -179.996257
	 D(1,9,10,5)      =         0.261400	      14.977095
	 D(1,9,10,6)      =        -2.881154	    -165.077939
	 D(2,4,11,3)      =         0.000301	       0.017261
	 D(2,4,11,13)     =         3.140981	     179.964960
	 D(2,9,1,3)       =        -0.000348	      -0.019945
	 D(2,9,1,14)      =         3.141027	     179.967567
	 D(2,9,10,5)      =        -2.879976	    -165.010466
	 D(2,9,10,6)      =         0.260656	      14.934501
	 D(3,1,9,10)      =         3.141462	     179.992491
	 D(3,11,4,17)     =         3.140700	     179.948827
	 D(4,2,9,10)      =        -3.141485	    -179.993820
	 D(4,11,3,16)     =         3.140472	     179.935781
	 D(5,7,12,8)      =        -0.000244	      -0.013979
	 D(5,10,6,8)      =         0.000088	       0.005045
	 D(5,10,6,19)     =        -3.140726	    -179.950358
	 D(6,8,12,7)      =        -0.000119	      -0.006843
	 D(6,10,5,7)      =        -0.000414	      -0.023718
	 D(6,10,5,18)     =        -3.140352	    -179.928929
	 D(7,5,10,9)      =         3.140222	     179.921452
	 D(7,12,8,21)     =         3.140422	     179.932908
	 D(8,6,10,9)      =        -3.140548	    -179.940134
	 D(8,12,7,20)     =         3.139957	     179.906279
	 D(9,1,3,11)      =         0.000348	       0.019955
	 D(9,1,3,16)      =        -3.140471	    -179.935743
	 D(9,2,4,11)      =        -0.000301	      -0.017270
	 D(9,2,4,17)      =        -3.140734	    -179.950778
	 D(9,10,5,18)     =         0.000283	       0.016241
	 D(9,10,6,19)     =         0.001823	       0.104463
	 D(10,5,7,12)     =         0.000510	       0.029236
	 D(10,5,7,20)     =        -3.139616	    -179.886723
	 D(10,6,8,12)     =         0.000192	       0.011025
	 D(10,6,8,21)     =        -3.140293	    -179.925546
	 D(10,9,1,14)     =        -0.000349	      -0.019997
	 D(10,9,2,15)     =        -0.000152	      -0.008685
	 D(11,3,1,14)     =        -3.141030	    -179.967773
	 D(11,4,2,15)     =         3.141546	     179.997347
	 D(12,7,5,18)     =         3.140477	     179.936092
	 D(12,8,6,19)     =         3.141019	     179.967136
	 D(13,11,3,16)    =        -0.000207	      -0.011889
	 D(13,11,4,17)    =        -0.001806	      -0.103475
	 D(14,1,3,16)     =         0.001336	       0.076530
	 D(15,2,4,17)     =         0.001114	       0.063839
	 D(18,5,7,20)     =         0.000351	       0.020133
	 D(19,6,8,21)     =         0.000533	       0.030565

	Current energy   :      -553.1678019670

	Generating empirical Hessian (Schlegel '84) for each fragment.
	Adding user-defined constraint: Fragment 1; Coordinate 61:
		Value =     0.261400; Fixed value    =     0.261799
		Force =     0.000200; Force constant =     0.500000
	Removing off-diagonal coupling between coordinate 61 and others.
	Taking RFO optimization step.
	Going to follow RFO solution 1.
	Using RFO vector 1.

	Determining step-restricting scale parameter for RS-RFO.
	Maximum step size allowed    0.10000

	 Iter      |step|        alpha        rfo_root  
	------------------------------------------------
	    0     0.27557       1.00000           1
	    1     0.20251       6.65371           1
	    2     0.14651      21.28696           1
	    3     0.11561      42.14586           1
	    4     0.10277      57.60945           1
	    5     0.10012      61.64846           1
	    6     0.10000      61.83243           1
	------------------------------------------------
	Norm of target step-size    0.10000
	Projected energy change by RFO approximation:        -0.0077859472

	Back-transformation to cartesian coordinates...
	Could not converge backtransformation.
	Using first guess instead.

	--- Internal Coordinate Step in ANG or DEG, aJ/ANG or AJ/DEG ---
	 ---------------------------------------------------------------------------
	   Coordinate                Previous        Force       Change         New 
	   ----------                --------       ------       ------       ------
	    1 R(1,3)          =      1.394038    -0.068514    -0.004612     1.389426
	    2 R(1,9)          =      1.394891     0.078231     0.005198     1.400089
	    3 R(1,14)         =      1.087453    -0.048447    -0.003705     1.083748
	    4 R(2,4)          =      1.394521    -0.071516    -0.004831     1.389691
	    5 R(2,9)          =      1.394821     0.079449     0.005285     1.400106
	    6 R(2,15)         =      1.087302    -0.047922    -0.003659     1.083642
	    7 R(3,11)         =      1.394821     0.206706     0.014354     1.409175
	    8 R(3,16)         =      1.088972    -0.055382    -0.004259     1.084713
	    9 R(4,11)         =      1.395407     0.203407     0.014132     1.409540
	   10 R(4,17)         =      1.088424    -0.052630    -0.004044     1.084380
	   11 R(5,7)          =      1.385343    -0.006837    -0.000462     1.384880
	   12 R(5,10)         =      1.390451     0.078566     0.005712     1.396164
	   13 R(5,18)         =      1.086259    -0.063347    -0.004805     1.081454
	   14 R(6,8)          =      1.385809    -0.009310    -0.000631     1.385179
	   15 R(6,10)         =      1.390176     0.081267     0.005906     1.396082
	   16 R(6,19)         =      1.085207    -0.058125    -0.004389     1.080819
	   17 R(7,12)         =      1.352080    -0.107911    -0.006925     1.345155
	   18 R(7,20)         =      1.084469    -0.008894    -0.000675     1.083795
	   19 R(8,12)         =      1.351987    -0.108839    -0.006987     1.345000
	   20 R(8,21)         =      1.084910    -0.011096    -0.000845     1.084065
	   21 R(9,10)         =      1.446855     0.122349     0.009010     1.455865
	   22 R(11,13)        =      1.281373    -0.012134    -0.000643     1.280731
	   23 B(1,3,11)       =    120.009056     0.000761     0.805676   120.814732
	   24 B(1,3,16)       =    118.552025     0.000116     0.172108   118.724133
	   25 B(1,9,2)        =    119.959722    -0.001209    -1.304709   118.655012
	   26 B(1,9,10)       =    120.053983     0.000585     0.632622   120.686605
	   27 B(2,4,11)       =    119.960108     0.000777     0.820665   120.780773
	   28 B(2,4,17)       =    118.592446     0.000106     0.161926   118.754372
	   29 B(2,9,10)       =    119.986294     0.000624     0.672076   120.658370
	   30 B(3,1,9)        =    120.031219     0.000805     0.808442   120.839661
	   31 B(3,1,14)       =    119.119344    -0.000434    -0.443456   118.675888
	   32 B(3,11,4)       =    119.994870    -0.001939    -1.936899   118.057972
	   33 B(3,11,13)      =    120.029973     0.000962     0.960437   120.990410
	   34 B(4,2,9)        =    120.045019     0.000805     0.806797   120.851816
	   35 B(4,2,15)       =    119.143974    -0.000442    -0.452477   118.691498
	   36 B(4,11,13)      =    119.975136     0.000977     0.976467   120.951603
	   37 B(5,7,12)       =    123.991808     0.000319     0.296530   124.288337
	   38 B(5,7,20)       =    120.829726    -0.000211    -0.208129   120.621598
	   39 B(5,10,6)       =    119.748990    -0.002014    -1.994272   117.754717
	   40 B(5,10,9)       =    120.133973     0.000992     0.982234   121.116206
	   41 B(6,8,12)       =    124.039187     0.000310     0.284983   124.324170
	   42 B(6,8,21)       =    120.751562    -0.000198    -0.192512   120.559049
	   43 B(6,10,9)       =    120.117015     0.001022     1.012057   121.129072
	   44 B(7,5,10)       =    117.942736     0.000850     0.929226   118.871962
	   45 B(7,5,18)       =    120.195165    -0.000442    -0.488845   119.706320
	   46 B(7,12,8)       =    116.393103    -0.000332    -0.461759   115.931344
	   47 B(8,6,10)       =    117.884170     0.000867     0.945291   118.829461
	   48 B(8,6,19)       =    120.296859    -0.000465    -0.514288   119.782570
	   49 B(9,1,14)       =    120.849435    -0.000371    -0.365064   120.484372
	   50 B(9,2,15)       =    120.811005    -0.000363    -0.354390   120.456615
	   51 B(10,5,18)      =    121.862030    -0.000408    -0.440537   121.421493
	   52 B(10,6,19)      =    121.818956    -0.000402    -0.431101   121.387855
	   53 B(11,3,16)      =    121.438903    -0.000878    -0.977793   120.461110
	   54 B(11,4,17)      =    121.447411    -0.000883    -0.982608   120.464804
	   55 B(12,7,20)      =    115.178418    -0.000108    -0.088455   115.089963
	   56 B(12,8,21)      =    115.209224    -0.000112    -0.092523   115.116700
	   57 D(1,3,11,4)     =     -0.018609    -0.000003    -0.017424    -0.036033
	   58 D(1,3,11,13)    =   -179.966279    -0.000004    -0.026367  -179.992645
	   59 D(1,9,2,4)      =      0.018608    -0.000002    -0.010342     0.008265
	   60 D(1,9,2,15)     =   -179.996257     0.000015     0.102990  -179.893267
	   61 D(1,9,10,5)     =     14.977095     0.000014     0.066334    15.043429
	   62 D(1,9,10,6)     =   -165.077939     0.000017     0.097729  -164.980210
	   63 D(2,4,11,3)     =      0.017261    -0.000004    -0.027854    -0.010593
	   64 D(2,4,11,13)    =    179.964960    -0.000003    -0.018923   179.946038
	   65 D(2,9,1,3)      =     -0.019945    -0.000005    -0.035124    -0.055068
	   66 D(2,9,1,14)     =    179.967567     0.000013     0.080775   180.048342
	   67 D(2,9,10,5)     =   -165.010466     0.000017     0.094553  -164.915913
	   68 D(2,9,10,6)     =     14.934501     0.000020     0.125948    15.060449
	   69 D(3,1,9,10)     =    179.992491    -0.000002    -0.007703   179.984789
	   70 D(3,11,4,17)    =    179.948827    -0.000006    -0.042577   179.906250
	   71 D(4,2,9,10)     =   -179.993820    -0.000005    -0.037760  -180.031580
	   72 D(4,11,3,16)    =    179.935781    -0.000005    -0.029759   179.906022
	   73 D(5,7,12,8)     =     -0.013979     0.000001     0.006250    -0.007728
	   74 D(5,10,6,8)     =      0.005045     0.000002     0.015802     0.020847
	   75 D(5,10,6,19)    =   -179.950358     0.000014     0.093985  -179.856372
	   76 D(6,8,12,7)     =     -0.006843     0.000000    -0.000431    -0.007274
	   77 D(6,10,5,7)     =     -0.023718    -0.000001    -0.010640    -0.034358
	   78 D(6,10,5,18)    =   -179.928929     0.000011     0.067626  -179.861303
	   79 D(7,5,10,9)     =    179.921452     0.000002     0.021325   179.942776
	   80 D(7,12,8,21)    =    179.932908    -0.000006    -0.042879   179.890029
	   81 D(8,6,10,9)     =   -179.940134    -0.000002    -0.016150  -179.956284
	   82 D(8,12,7,20)    =    179.906279    -0.000005    -0.029962   179.876317
	   83 D(9,1,3,11)     =      0.019955     0.000007     0.049790     0.069745
	   84 D(9,1,3,16)     =   -179.935743     0.000009     0.062444  -179.873299
	   85 D(9,2,4,11)     =     -0.017270     0.000007     0.041607     0.024337
	   86 D(9,2,4,17)     =   -179.950778     0.000009     0.056874  -179.893904
	   87 D(9,10,5,18)    =      0.016241     0.000014     0.099590     0.115831
	   88 D(9,10,6,19)    =      0.104463     0.000011     0.062033     0.166496
	   89 D(10,5,7,12)    =      0.029236    -0.000000    -0.000175     0.029061
	   90 D(10,5,7,20)    =   -179.886723     0.000006     0.037815  -179.848908
	   91 D(10,6,8,12)    =      0.011025    -0.000001    -0.011025     0.000000
	   92 D(10,6,8,21)    =   -179.925546     0.000005     0.033794  -179.891752
	   93 D(10,9,1,14)    =     -0.019997     0.000016     0.108196     0.088199
	   94 D(10,9,2,15)    =     -0.008685     0.000013     0.075573     0.066888
	   95 D(11,3,1,14)    =   -179.967773    -0.000010    -0.064057  -180.031829
	   96 D(11,4,2,15)    =    179.997347    -0.000011    -0.069771   179.927576
	   97 D(12,7,5,18)    =    179.936092    -0.000012    -0.077053   179.859039
	   98 D(12,8,6,19)    =    179.967136    -0.000013    -0.087637   179.879499
	   99 D(13,11,3,16)   =     -0.011889    -0.000006    -0.038702    -0.050591
	  100 D(13,11,4,17)   =     -0.103475    -0.000005    -0.033645    -0.137120
	  101 D(14,1,3,16)    =      0.076530    -0.000008    -0.051403     0.025127
	  102 D(15,2,4,17)    =      0.063839    -0.000008    -0.054505     0.009334
	  103 D(18,5,7,20)    =      0.020133    -0.000006    -0.039063    -0.018930
	  104 D(19,6,8,21)    =      0.030565    -0.000007    -0.043081    -0.012516
	 ---------------------------------------------------------------------------
	Successfully symmetrized geometry.
	 Forces used to impose fixed constraints are not included.
	  Forces zeroed: 61 

  ==> Convergence Check <==

  Measures of convergence in internal coordinates in au.
  Criteria marked as inactive (o), active & met (*), and active & unmet ( ).
  --------------------------------------------------------------------------------------------- ~
   Step     Total Energy     Delta E     MAX Force     RMS Force      MAX Disp      RMS Disp    ~
  --------------------------------------------------------------------------------------------- ~
    Convergence Criteria    1.00e-06 *    3.00e-04 *             o    1.20e-03 *             o  ~
  --------------------------------------------------------------------------------------------- ~
      1    -553.16780197   -5.53e+02      2.65e-02      7.77e-03 o    3.48e-02      9.79e-03 o  ~
  ---------------------------------------------------------------------------------------------

	Writing optimization data to binary file.
	Structure for next step:
	Cartesian Geometry (in Angstrom)
	    C    -1.2949303373   0.7309409080  -0.5554014189
	    C    -0.3046137516   0.1185006616   1.5528619648
	    C    -2.3713059204   1.3027148188   0.1116774312
	    C    -1.3772676182   0.6890992926   2.2274511806
	    C     1.1120655445  -0.1988196432  -1.8984111887
	    C     1.7614471089  -1.3291150210   0.1051982171
	    C     2.1978457167  -0.7923293954  -2.5202805744
	    C     2.8174288331  -1.8710269207  -0.6089121367
	    C    -0.2476050912   0.1308159963   0.1539712011
	    C     0.8784863921  -0.4676016897  -0.5484224294
	    C    -2.4352041459   1.2942468679   1.5193773152
	    N     3.0597886809  -1.6244911383  -1.9087226108
	    O    -3.4258305496   1.8201734442   2.1377067227
	    H    -1.2814675423   0.7565117220  -1.6387645017
	    H     0.4909272682  -0.3365928683   2.1310361465
	    H    -3.1649330625   1.7565560942  -0.4720919894
	    H    -1.3858246725   0.6619188829   3.3114562122
	    H     0.4668685213   0.4614987015  -2.4616540217
	    H     1.6346438717  -1.5793940718   1.1489655123
	    H     2.4070620305  -0.6015705194  -3.5664404485
	    H     3.5188123617  -2.5445635766  -0.1297404816
			--------------------------
			 OPTKING Finished Execution 
			--------------------------

    Structure for next step:
    Molecular point group: c1
    Full point group: C1

    Geometry (in Angstrom), charge = -1, multiplicity = 1:

    C           -1.292542061869     0.729659197550    -0.556832728181
    C           -0.302225476103     0.117218951227     1.551430655514
    C           -2.368917644983     1.301433108437     0.110246121908
    C           -1.374879342778     0.687817582233     2.226019871351
    C            1.114453819913    -0.200101353581    -1.899842497996
    C            1.763835384330    -1.330396731382     0.103766907832
    C            2.200233992103    -0.793611105824    -2.521711883704
    C            2.819817108578    -1.872308631106    -0.610343446034
    C           -0.245216815715     0.129534285879     0.152539891828
    C            0.880874667531    -0.468883400110    -0.549853738721
    C           -2.432815870448     1.292965157502     1.517946005893
    N            3.062176956384    -1.625772848733    -1.910153920138
    O           -3.423442274132     1.818891733823     2.136275413382
    H           -1.279079266882     0.755230011614    -1.640195810953
    H            0.493315543618    -0.337874578728     2.129604837214
    H           -3.162544787008     1.755274383782    -0.473523298642
    H           -1.383436397073     0.660637172472     3.310024902951
    H            0.469256796706     0.460216991049    -2.463085331026
    H            1.637032147186    -1.580675782220     1.147534202982
    H            2.409450305920    -0.602852229836    -3.567871757806
    H            3.521200637107    -2.545845287012    -0.131171790898

gradient() will perform analytic gradient computation.

*** tstart() called on gpu-1-8.local
*** at Sun Nov 12 03:47:38 2017

    SCF Algorithm Type (re)set to DF.

*** tstart() called on gpu-1-8.local
*** at Sun Nov 12 03:47:38 2017

   => Loading Basis Set <=

    Name: AUG-CC-PVTZ
    Role: ORBITAL
    Keyword: BASIS
    atoms 1-11  entry C          line   221 file /cbio/jclab/home/chayas/anaconda/envs/py35/share/psi4/basis/aug-cc-pvtz.gbs 
    atoms 12    entry N          line   267 file /cbio/jclab/home/chayas/anaconda/envs/py35/share/psi4/basis/aug-cc-pvtz.gbs 
    atoms 13    entry O          line   313 file /cbio/jclab/home/chayas/anaconda/envs/py35/share/psi4/basis/aug-cc-pvtz.gbs 
    atoms 14-21 entry H          line    34 file /cbio/jclab/home/chayas/anaconda/envs/py35/share/psi4/basis/aug-cc-pvtz.gbs 


         ---------------------------------------------------------
                                   SCF
            by Justin Turney, Rob Parrish, and Andy Simmonett
                              RHF Reference
                        8 Threads,   4768 MiB Core
         ---------------------------------------------------------

  ==> Geometry <==

    Molecular point group: c1
    Full point group: C1

    Geometry (in Angstrom), charge = -1, multiplicity = 1:

       Center              X                  Y                   Z               Mass       
    ------------   -----------------  -----------------  -----------------  -----------------
           C         -1.292542061869     0.729659197550    -0.556832728181    12.000000000000
           C         -0.302225476103     0.117218951227     1.551430655514    12.000000000000
           C         -2.368917644983     1.301433108437     0.110246121908    12.000000000000
           C         -1.374879342778     0.687817582233     2.226019871351    12.000000000000
           C          1.114453819913    -0.200101353581    -1.899842497996    12.000000000000
           C          1.763835384330    -1.330396731382     0.103766907832    12.000000000000
           C          2.200233992103    -0.793611105824    -2.521711883704    12.000000000000
           C          2.819817108578    -1.872308631106    -0.610343446034    12.000000000000
           C         -0.245216815715     0.129534285879     0.152539891828    12.000000000000
           C          0.880874667531    -0.468883400110    -0.549853738721    12.000000000000
           C         -2.432815870448     1.292965157502     1.517946005893    12.000000000000
           N          3.062176956384    -1.625772848733    -1.910153920138    14.003074004780
           O         -3.423442274132     1.818891733823     2.136275413382    15.994914619560
           H         -1.279079266882     0.755230011614    -1.640195810953     1.007825032070
           H          0.493315543618    -0.337874578728     2.129604837214     1.007825032070
           H         -3.162544787008     1.755274383782    -0.473523298642     1.007825032070
           H         -1.383436397073     0.660637172472     3.310024902951     1.007825032070
           H          0.469256796706     0.460216991049    -2.463085331026     1.007825032070
           H          1.637032147186    -1.580675782220     1.147534202982     1.007825032070
           H          2.409450305920    -0.602852229836    -3.567871757806     1.007825032070
           H          3.521200637107    -2.545845287012    -0.131171790898     1.007825032070

  Running in c1 symmetry.

  Rotational constants: A =      0.09805  B =      0.01377  C =      0.01212 [cm^-1]
  Rotational constants: A =   2939.47107  B =    412.73918  C =    363.46198 [MHz]
  Nuclear repulsion =  684.587442894029778

  Charge       = -1
  Multiplicity = 1
  Electrons    = 90
  Nalpha       = 45
  Nbeta        = 45

  ==> Algorithm <==

  SCF Algorithm Type is DF.
  DIIS enabled.
  MOM disabled.
  Fractional occupation disabled.
  Guess Type is READ.
  Energy threshold   = 1.00e-10
  Density threshold  = 1.00e-10
  Integral threshold = 0.00e+00

  ==> Primary Basis <==

  Basis Set: AUG-CC-PVTZ
    Blend: AUG-CC-PVTZ
    Number of shells: 254
    Number of basis function: 782
    Number of Cartesian functions: 915
    Spherical Harmonics?: true
    Max angular momentum: 3

   => Loading Basis Set <=

    Name: (AUG-CC-PVTZ AUX)
    Role: JKFIT
    Keyword: DF_BASIS_SCF
    atoms 1-11  entry C          line   161 file /cbio/jclab/home/chayas/anaconda/envs/py35/share/psi4/basis/aug-cc-pvtz-jkfit.gbs 
    atoms 12    entry N          line   223 file /cbio/jclab/home/chayas/anaconda/envs/py35/share/psi4/basis/aug-cc-pvtz-jkfit.gbs 
    atoms 13    entry O          line   285 file /cbio/jclab/home/chayas/anaconda/envs/py35/share/psi4/basis/aug-cc-pvtz-jkfit.gbs 
    atoms 14-21 entry H          line    69 file /cbio/jclab/home/chayas/anaconda/envs/py35/share/psi4/basis/aug-cc-pvtz-jkfit.gbs 

  Reading orbitals from file 180, no projection.

  ==> Pre-Iterations <==

   -------------------------------------------------------
    Irrep   Nso     Nmo     Nalpha   Nbeta   Ndocc  Nsocc
   -------------------------------------------------------
     A        782     782       0       0       0       0
   -------------------------------------------------------
    Total     782     782      45      45      45       0
   -------------------------------------------------------

  ==> Integral Setup <==

  ==> DFJK: Density-Fitted J/K Matrices <==

    J tasked:                  Yes
    K tasked:                  Yes
    wK tasked:                  No
    OpenMP threads:              8
    Integrals threads:           8
    Memory (MB):              3576
    Algorithm:                Disk
    Integral Cache:           NONE
    Schwarz Cutoff:          1E-12
    Fitting Condition:       1E-12

   => Auxiliary Basis Set <=

  Basis Set: (AUG-CC-PVTZ AUX)
    Blend: AUG-CC-PVTZ-JKFIT
    Number of shells: 502
    Number of basis function: 1720
    Number of Cartesian functions: 2143
    Spherical Harmonics?: true
    Max angular momentum: 4

  Minimum eigenvalue in the overlap matrix is 6.4763988048E-07.
  Using Symmetric Orthogonalization.

  SCF Guess: Orbitals guess was supplied from a previous computation.

  ==> Iterations <==

                           Total Energy        Delta E     RMS |[F,P]|

   @DF-RHF iter   0:  -550.84184179691738   -5.50842e+02   6.09954e-04 
   @DF-RHF iter   1:  -550.72084047478165    1.21001e-01   1.59174e-04 
   @DF-RHF iter   2:  -550.72160868227525   -7.68207e-04   1.17694e-04 DIIS
   @DF-RHF iter   3:  -550.72226300563830   -6.54323e-04   1.49750e-05 DIIS
   @DF-RHF iter   4:  -550.72227527691302   -1.22713e-05   4.88306e-06 DIIS
   @DF-RHF iter   5:  -550.72227761624254   -2.33933e-06   1.59820e-06 DIIS
   @DF-RHF iter   6:  -550.72227803067324   -4.14431e-07   9.38208e-07 DIIS
   @DF-RHF iter   7:  -550.72227817305850   -1.42385e-07   4.25274e-07 DIIS
   @DF-RHF iter   8:  -550.72227822112825   -4.80698e-08   1.92207e-07 DIIS
   @DF-RHF iter   9:  -550.72227822865784   -7.52959e-09   5.78126e-08 DIIS
   @DF-RHF iter  10:  -550.72227822976924   -1.11140e-09   2.28737e-08 DIIS
   @DF-RHF iter  11:  -550.72227822997104   -2.01794e-10   1.38756e-08 DIIS
   @DF-RHF iter  12:  -550.72227822999139   -2.03499e-11   7.62829e-09 DIIS
   @DF-RHF iter  13:  -550.72227823001845   -2.70575e-11   2.29320e-09 DIIS
   @DF-RHF iter  14:  -550.72227823001788    5.68434e-13   1.17139e-09 DIIS
   @DF-RHF iter  15:  -550.72227823000094    1.69393e-11   3.86891e-10 DIIS
   @DF-RHF iter  16:  -550.72227823001481   -1.38698e-11   1.10773e-10 DIIS
   @DF-RHF iter  17:  -550.72227823002368   -8.86757e-12   5.28673e-11 DIIS

  ==> Post-Iterations <==

    Orbital Energies (a.u.)
    -----------------------

    Doubly Occupied:                                                      

       1A    -20.308419     2A    -15.443302     3A    -11.163741  
       4A    -11.163676     5A    -11.146070     6A    -11.125833  
       7A    -11.115057     8A    -11.115000     9A    -11.102968  
      10A    -11.102951    11A    -11.079116    12A    -11.064748  
      13A    -11.064715    14A     -1.138530    15A     -1.135655  
      16A     -1.017667    17A     -0.957375    18A     -0.920328  
      19A     -0.870693    20A     -0.838282    21A     -0.746515  
      22A     -0.732871    23A     -0.678612    24A     -0.650582  
      25A     -0.599067    26A     -0.548601    27A     -0.544187  
      28A     -0.503676    29A     -0.489671    30A     -0.483004  
      31A     -0.479654    32A     -0.442762    33A     -0.432422  
      34A     -0.413348    35A     -0.405622    36A     -0.382162  
      37A     -0.359660    38A     -0.353240    39A     -0.317162  
      40A     -0.305399    41A     -0.244960    42A     -0.240348  
      43A     -0.222080    44A     -0.201764    45A     -0.107706  

    Virtual:                                                              

      46A      0.099109    47A      0.099901    48A      0.116294  
      49A      0.116444    50A      0.128273    51A      0.130280  
      52A      0.135407    53A      0.139454    54A      0.164023  
      55A      0.166107    56A      0.176832    57A      0.183660  
      58A      0.185573    59A      0.188622    60A      0.190909  
      61A      0.196216    62A      0.199891    63A      0.206448  
      64A      0.209179    65A      0.213055    66A      0.214808  
      67A      0.217736    68A      0.219616    69A      0.229175  
      70A      0.229863    71A      0.234154    72A      0.238236  
      73A      0.240285    74A      0.240364    75A      0.247965  
      76A      0.249805    77A      0.254332    78A      0.263814  
      79A      0.265169    80A      0.268900    81A      0.270932  
      82A      0.278739    83A      0.282605    84A      0.289554  
      85A      0.294406    86A      0.301249    87A      0.311044  
      88A      0.315699    89A      0.316449    90A      0.322805  
      91A      0.326959    92A      0.330054    93A      0.330120  
      94A      0.333836    95A      0.342006    96A      0.344520  
      97A      0.350020    98A      0.357515    99A      0.364235  
     100A      0.365760   101A      0.376569   102A      0.382665  
     103A      0.384794   104A      0.385381   105A      0.388604  
     106A      0.390052   107A      0.400552   108A      0.402521  
     109A      0.405039   110A      0.415154   111A      0.416282  
     112A      0.423448   113A      0.427609   114A      0.428892  
     115A      0.432381   116A      0.436049   117A      0.441032  
     118A      0.445005   119A      0.457084   120A      0.460892  
     121A      0.461213   122A      0.477226   123A      0.479069  
     124A      0.480359   125A      0.489862   126A      0.496920  
     127A      0.497881   128A      0.502808   129A      0.518037  
     130A      0.520799   131A      0.521096   132A      0.522203  
     133A      0.530376   134A      0.540360   135A      0.541918  
     136A      0.543395   137A      0.554818   138A      0.559962  
     139A      0.560014   140A      0.563511   141A      0.565112  
     142A      0.573219   143A      0.574723   144A      0.576728  
     145A      0.577994   146A      0.589943   147A      0.594628  
     148A      0.595057   149A      0.598173   150A      0.599020  
     151A      0.605368   152A      0.607027   153A      0.610366  
     154A      0.614851   155A      0.615809   156A      0.617097  
     157A      0.624026   158A      0.628064   159A      0.634695  
     160A      0.637692   161A      0.639763   162A      0.644241  
     163A      0.650335   164A      0.651576   165A      0.658091  
     166A      0.661068   167A      0.669335   168A      0.670425  
     169A      0.673972   170A      0.679884   171A      0.690520  
     172A      0.694186   173A      0.698242   174A      0.699426  
     175A      0.714960   176A      0.714999   177A      0.721730  
     178A      0.722109   179A      0.733874   180A      0.736866  
     181A      0.737198   182A      0.756805   183A      0.760168  
     184A      0.764229   185A      0.771551   186A      0.778606  
     187A      0.790209   188A      0.793175   189A      0.804135  
     190A      0.809869   191A      0.811158   192A      0.814424  
     193A      0.817857   194A      0.823699   195A      0.825421  
     196A      0.827448   197A      0.836203   198A      0.839230  
     199A      0.842906   200A      0.857770   201A      0.862251  
     202A      0.863959   203A      0.873634   204A      0.877913  
     205A      0.879296   206A      0.885253   207A      0.899445  
     208A      0.905063   209A      0.912367   210A      0.917424  
     211A      0.919006   212A      0.934173   213A      0.935141  
     214A      0.949854   215A      0.955029   216A      0.962648  
     217A      0.965379   218A      0.975404   219A      0.988202  
     220A      0.989808   221A      0.993971   222A      1.000736  
     223A      1.000773   224A      1.006880   225A      1.008274  
     226A      1.010195   227A      1.012173   228A      1.021400  
     229A      1.022292   230A      1.032552   231A      1.034686  
     232A      1.036896   233A      1.047237   234A      1.048184  
     235A      1.057958   236A      1.058847   237A      1.059900  
     238A      1.061745   239A      1.068410   240A      1.076352  
     241A      1.086451   242A      1.087653   243A      1.092012  
     244A      1.100927   245A      1.104666   246A      1.106192  
     247A      1.108884   248A      1.114985   249A      1.115964  
     250A      1.120942   251A      1.124476   252A      1.128162  
     253A      1.129944   254A      1.135898   255A      1.137605  
     256A      1.143058   257A      1.143825   258A      1.147971  
     259A      1.160287   260A      1.160586   261A      1.163546  
     262A      1.168215   263A      1.169334   264A      1.174201  
     265A      1.188681   266A      1.192370   267A      1.194742  
     268A      1.201269   269A      1.212120   270A      1.219045  
     271A      1.224695   272A      1.228931   273A      1.237273  
     274A      1.239352   275A      1.245815   276A      1.253999  
     277A      1.258801   278A      1.259957   279A      1.269122  
     280A      1.271717   281A      1.277045   282A      1.280210  
     283A      1.291489   284A      1.294826   285A      1.299338  
     286A      1.299455   287A      1.307674   288A      1.314222  
     289A      1.315695   290A      1.321049   291A      1.322402  
     292A      1.323183   293A      1.328865   294A      1.337755  
     295A      1.341738   296A      1.345157   297A      1.347606  
     298A      1.351206   299A      1.357490   300A      1.371943  
     301A      1.376314   302A      1.379387   303A      1.382940  
     304A      1.396411   305A      1.396672   306A      1.407001  
     307A      1.408875   308A      1.422462   309A      1.427730  
     310A      1.435978   311A      1.437778   312A      1.441793  
     313A      1.449347   314A      1.460367   315A      1.470655  
     316A      1.474339   317A      1.477648   318A      1.480820  
     319A      1.495432   320A      1.507834   321A      1.512129  
     322A      1.519986   323A      1.524467   324A      1.533132  
     325A      1.548266   326A      1.549246   327A      1.557940  
     328A      1.568443   329A      1.576959   330A      1.588553  
     331A      1.594330   332A      1.606078   333A      1.614483  
     334A      1.615347   335A      1.629068   336A      1.630053  
     337A      1.643342   338A      1.643487   339A      1.651421  
     340A      1.671882   341A      1.683083   342A      1.688499  
     343A      1.698600   344A      1.707669   345A      1.718576  
     346A      1.737204   347A      1.742234   348A      1.749679  
     349A      1.761788   350A      1.770338   351A      1.774196  
     352A      1.781265   353A      1.782324   354A      1.798417  
     355A      1.802536   356A      1.804463   357A      1.816583  
     358A      1.828811   359A      1.831901   360A      1.837023  
     361A      1.840832   362A      1.844478   363A      1.852961  
     364A      1.862329   365A      1.867249   366A      1.872591  
     367A      1.894035   368A      1.897871   369A      1.922362  
     370A      1.929134   371A      1.936755   372A      1.943867  
     373A      1.947308   374A      1.952596   375A      1.962155  
     376A      1.963536   377A      1.978473   378A      1.982927  
     379A      1.995793   380A      2.005624   381A      2.016265  
     382A      2.025318   383A      2.026488   384A      2.032450  
     385A      2.042686   386A      2.061977   387A      2.067721  
     388A      2.069601   389A      2.082037   390A      2.093932  
     391A      2.095151   392A      2.100355   393A      2.106452  
     394A      2.116958   395A      2.120891   396A      2.131039  
     397A      2.135678   398A      2.146259   399A      2.149650  
     400A      2.161483   401A      2.162326   402A      2.171346  
     403A      2.175052   404A      2.179830   405A      2.179961  
     406A      2.188859   407A      2.194842   408A      2.198792  
     409A      2.207103   410A      2.225017   411A      2.229758  
     412A      2.235430   413A      2.244070   414A      2.247762  
[...]
	 R(4,11)          =         2.713679	       1.436017
	 R(4,17)          =         2.044527	       1.081917
	 R(5,7)           =         2.611963	       1.382191
	 R(5,10)          =         2.653636	       1.404244
	 R(5,18)          =         2.038980	       1.078982
	 R(6,8)           =         2.611986	       1.382203
	 R(6,10)          =         2.653590	       1.404219
	 R(6,19)          =         2.038978	       1.078981
	 R(7,12)          =         2.531357	       1.339536
	 R(7,20)          =         2.046846	       1.083144
	 R(8,12)          =         2.531330	       1.339522
	 R(8,21)          =         2.046843	       1.083143
	 R(9,10)          =         2.721389	       1.440097
	 R(11,13)         =         2.384705	       1.261932
	 B(1,3,11)        =         2.146516	     122.986287
	 B(1,3,16)        =         2.095195	     120.045804
	 B(1,9,2)         =         2.024202	     115.978245
	 B(1,9,10)        =         2.129358	     122.003227
	 B(2,4,11)        =         2.146567	     122.989231
	 B(2,4,17)        =         2.095175	     120.044707
	 B(2,9,10)        =         2.129620	     122.018211
	 B(3,1,9)         =         2.135251	     122.340843
	 B(3,1,14)        =         2.061761	     118.130232
	 B(3,11,4)        =         1.978590	     113.364845
	 B(3,11,13)       =         2.152321	     123.318896
	 B(4,2,9)         =         2.135200	     122.337952
	 B(4,2,15)        =         2.061752	     118.129717
	 B(4,11,13)       =         2.152275	     123.316258
	 B(5,7,12)        =         2.175003	     124.618469
	 B(5,7,20)        =         2.083326	     119.365761
	 B(5,10,6)        =         1.986911	     113.841608
	 B(5,10,9)        =         2.148026	     123.072847
	 B(6,8,12)        =         2.175042	     124.620719
	 B(6,8,21)        =         2.083307	     119.364685
	 B(6,10,9)        =         2.148245	     123.085394
	 B(7,5,10)        =         2.113167	     121.075533
	 B(7,5,18)        =         2.069332	     118.564010
	 B(7,12,8)        =         2.003088	     114.768495
	 B(8,6,10)        =         2.113139	     121.073929
	 B(8,6,19)        =         2.069313	     118.562874
	 B(9,1,14)        =         2.085727	     119.503370
	 B(9,2,15)        =         2.085770	     119.505792
	 B(10,5,18)       =         2.100501	     120.349837
	 B(10,6,19)       =         2.100541	     120.352122
	 B(11,3,16)       =         2.041435	     116.965625
	 B(11,4,17)       =         2.041407	     116.963982
	 B(12,7,20)       =         2.024824	     116.013867
	 B(12,8,21)       =         2.024806	     116.012866
	 D(1,3,11,4)      =        -0.004548	      -0.260553
	 D(1,3,11,13)     =         3.137166	     179.746377
	 D(1,9,2,4)       =        -0.005492	      -0.314681
	 D(1,9,2,15)      =        -3.113753	    -178.404917
	 D(1,9,10,5)      =         0.261489	      14.982197
	 D(1,9,10,6)      =        -2.882724	    -165.167910
	 D(2,4,11,3)      =        -0.003829	      -0.219385
	 D(2,4,11,13)     =         3.137643	     179.773686
	 D(2,9,1,3)       =        -0.002879	      -0.164944
	 D(2,9,1,14)      =        -3.111764	    -178.290947
	 D(2,9,10,5)      =        -2.883823	    -165.230861
	 D(2,9,10,6)      =         0.255150	      14.619032
	 D(3,1,9,10)      =         3.135207	     179.634104
	 D(3,11,4,17)     =         3.128593	     179.255179
	 D(4,2,9,10)      =         3.139608	     179.886304
	 D(4,11,3,16)     =         3.127438	     179.189019
	 D(5,7,12,8)      =         0.002818	       0.161485
	 D(5,10,6,8)      =         0.001738	       0.099590
	 D(5,10,6,19)     =        -3.118422	    -178.672391
	 D(6,8,12,7)      =         0.003134	       0.179581
	 D(6,10,5,7)      =         0.003746	       0.214652
	 D(6,10,5,18)     =        -3.116858	    -178.582821
	 D(7,5,10,9)      =        -3.140246	    -179.922849
	 D(7,12,8,21)     =         3.136290	     179.696171
	 D(8,6,10,9)      =        -3.137454	    -179.762889
	 D(8,12,7,20)     =         3.135563	     179.654547
	 D(9,1,3,11)      =         0.008077	       0.462786
	 D(9,1,3,16)      =        -3.123624	    -178.970473
	 D(9,2,4,11)      =         0.009068	       0.519547
	 D(9,2,4,17)      =        -3.123082	    -178.939443
	 D(9,10,5,18)     =         0.022335	       1.279677
	 D(9,10,6,19)     =         0.025571	       1.465130
	 D(10,5,7,12)     =        -0.006445	      -0.369278
	 D(10,5,7,20)     =        -3.138914	    -179.846529
	 D(10,6,8,12)     =        -0.005519	      -0.316201
	 D(10,6,8,21)     =        -3.138411	    -179.817715
	 D(10,9,1,14)     =         0.026321	       1.508101
	 D(10,9,2,15)     =         0.031347	       1.796067
	 D(11,3,1,14)     =         3.117391	     178.613345
	 D(11,4,2,15)     =         3.117767	     178.634863
	 D(12,7,5,18)     =         3.114526	     178.449184
	 D(12,8,6,19)     =         3.115016	     178.477255
	 D(13,11,3,16)    =        -0.014033	      -0.804051
	 D(13,11,4,17)    =        -0.013121	      -0.751751
	 D(14,1,3,16)     =        -0.014310	      -0.819914
	 D(15,2,4,17)     =        -0.014384	      -0.824127
	 D(18,5,7,20)     =        -0.017943	      -1.028067
	 D(19,6,8,21)     =        -0.017877	      -1.024259

	Current energy   :      -553.1793060565

	Energy change for the previous step:
		Projected    :        -0.0000008485
		Actual       :        -0.0000007604

	Performing BFGS update.
	Previous computed or guess Hessian on step 1.
	Steps to be used in Hessian update: 6 5
	Adding user-defined constraint: Fragment 1; Coordinate 61:
		Value =     0.261489; Fixed value    =     0.261800
		Force =     0.000202; Force constant =     0.650000
	Removing off-diagonal coupling between coordinate 61 and others.
	Taking RFO optimization step.
	Going to follow RFO solution 1.
	Using RFO vector 1.
	Norm of target step-size    0.00232
	Projected energy change by RFO approximation:        -0.0000002430

	Back-transformation to cartesian coordinates...
	Successfully converged to displaced geometry.

	--- Internal Coordinate Step in ANG or DEG, aJ/ANG or AJ/DEG ---
	 ---------------------------------------------------------------------------
	   Coordinate                Previous        Force       Change         New 
	   ----------                --------       ------       ------       ------
	    1 R(1,3)          =      1.375374    -0.000068    -0.000010     1.375364
	    2 R(1,9)          =      1.405858    -0.000074    -0.000006     1.405852
	    3 R(1,14)         =      1.082208     0.000003    -0.000001     1.082207
	    4 R(2,4)          =      1.375373    -0.000072    -0.000010     1.375363
	    5 R(2,9)          =      1.405839    -0.000011    -0.000002     1.405837
	    6 R(2,15)         =      1.082208    -0.000038    -0.000005     1.082203
	    7 R(3,11)         =      1.436007    -0.000131    -0.000023     1.435983
	    8 R(3,16)         =      1.081914    -0.000029    -0.000007     1.081907
	    9 R(4,11)         =      1.436017    -0.000150    -0.000026     1.435991
	   10 R(4,17)         =      1.081917    -0.000036    -0.000008     1.081909
	   11 R(5,7)          =      1.382191    -0.000051    -0.000008     1.382183
	   12 R(5,10)         =      1.404244     0.000056     0.000007     1.404251
	   13 R(5,18)         =      1.078982     0.000057     0.000008     1.078990
	   14 R(6,8)          =      1.382203    -0.000056    -0.000008     1.382196
	   15 R(6,10)         =      1.404219     0.000136     0.000014     1.404233
	   16 R(6,19)         =      1.078981     0.000022     0.000005     1.078986
	   17 R(7,12)         =      1.339536     0.000022     0.000014     1.339550
	   18 R(7,20)         =      1.083144     0.000048     0.000008     1.083152
	   19 R(8,12)         =      1.339522     0.000024     0.000014     1.339536
	   20 R(8,21)         =      1.083143     0.000054     0.000008     1.083151
	   21 R(9,10)         =      1.440097     0.000294     0.000027     1.440124
	   22 R(11,13)        =      1.261932     0.000223     0.000026     1.261958
	   23 B(1,3,11)       =    122.986287    -0.000001    -0.004176   122.982111
	   24 B(1,3,16)       =    120.045804     0.000001     0.008380   120.054184
	   25 B(1,9,2)        =    115.978245     0.000001     0.005070   115.983315
	   26 B(1,9,10)       =    122.003227    -0.000001    -0.002147   122.001080
	   27 B(2,4,11)       =    122.989231    -0.000001    -0.004781   122.984450
	   28 B(2,4,17)       =    120.044707     0.000002     0.008669   120.053376
	   29 B(2,9,10)       =    122.018211    -0.000000    -0.002913   122.015298
	   30 B(3,1,9)        =    122.340843    -0.000000    -0.002644   122.338199
	   31 B(3,1,14)       =    118.130232     0.000002     0.009457   118.139689
	   32 B(3,11,4)       =    113.364845     0.000002     0.008204   113.373050
	   33 B(3,11,13)      =    123.318896    -0.000001    -0.004340   123.314556
	   34 B(4,2,9)        =    122.337952    -0.000000    -0.002118   122.335834
	   35 B(4,2,15)       =    118.129717     0.000002     0.008717   118.138434
	   36 B(4,11,13)      =    123.316258    -0.000001    -0.003865   123.312393
	   37 B(5,7,12)       =    124.618469    -0.000000     0.000221   124.618689
	   38 B(5,7,20)       =    119.365761     0.000000     0.001305   119.367066
	   39 B(5,10,6)       =    113.841608    -0.000001    -0.001347   113.840261
	   40 B(5,10,9)       =    123.072847     0.000000     0.001448   123.074295
	   41 B(6,8,12)       =    124.620719    -0.000000    -0.000209   124.620510
	   42 B(6,8,21)       =    119.364685     0.000000     0.001396   119.366081
	   43 B(6,10,9)       =    123.085394     0.000000    -0.000108   123.085286
	   44 B(7,5,10)       =    121.075533     0.000000     0.000960   121.076493
	   45 B(7,5,18)       =    118.564010    -0.000001    -0.004030   118.559980
	   46 B(7,12,8)       =    114.768495     0.000000    -0.000547   114.767948
	   47 B(8,6,10)       =    121.073929     0.000000     0.001179   121.075109
	   48 B(8,6,19)       =    118.562874    -0.000001    -0.004049   118.558826
	   49 B(9,1,14)       =    119.503370    -0.000001    -0.007641   119.495730
	   50 B(9,2,15)       =    119.505792    -0.000001    -0.007494   119.498299
	   51 B(10,5,18)      =    120.349837     0.000000     0.002745   120.352582
	   52 B(10,6,19)      =    120.352122     0.000000     0.002489   120.354610
	   53 B(11,3,16)      =    116.965625    -0.000001    -0.004088   116.961538
	   54 B(11,4,17)      =    116.963982    -0.000001    -0.003805   116.960177
	   55 B(12,7,20)      =    116.013867    -0.000000    -0.001234   116.012633
	   56 B(12,8,21)      =    116.012866    -0.000000    -0.000917   116.011949
	   57 D(1,3,11,4)     =     -0.260553    -0.000000    -0.021407    -0.281960
	   58 D(1,3,11,13)    =    179.746377    -0.000000    -0.015472   179.730906
	   59 D(1,9,2,4)      =     -0.314681    -0.000000    -0.023215    -0.337896
	   60 D(1,9,2,15)     =   -178.404917     0.000000     0.008522  -178.396395
	   61 D(1,9,10,5)     =     14.982197    -0.000000     0.000746    14.982943
	   62 D(1,9,10,6)     =   -165.167910    -0.000000    -0.002757  -165.170667
	   63 D(2,4,11,3)     =     -0.219385    -0.000000    -0.018364    -0.237749
	   64 D(2,4,11,13)    =    179.773686    -0.000000    -0.024299   179.749387
	   65 D(2,9,1,3)      =     -0.164944    -0.000000    -0.016545    -0.181490
	   66 D(2,9,1,14)     =   -178.290947     0.000000     0.013376  -178.277571
	   67 D(2,9,10,5)     =   -165.230861    -0.000000     0.004213  -165.226648
	   68 D(2,9,10,6)     =     14.619032    -0.000000     0.000709    14.619742
	   69 D(3,1,9,10)     =    179.634104    -0.000000    -0.013290   179.620814
	   70 D(3,11,4,17)    =    179.255179    -0.000000    -0.007649   179.247530
	   71 D(4,2,9,10)     =    179.886304    -0.000000    -0.026472   179.859831
	   72 D(4,11,3,16)    =    179.189019    -0.000000    -0.007212   179.181808
	   73 D(5,7,12,8)     =      0.161485    -0.000000    -0.018439     0.143046
	   74 D(5,10,6,8)     =      0.099590    -0.000000    -0.020191     0.079400
	   75 D(5,10,6,19)    =   -178.672391    -0.000000     0.000782  -178.671609
	   76 D(6,8,12,7)     =      0.179581    -0.000000    -0.019919     0.159661
	   77 D(6,10,5,7)     =      0.214652    -0.000000    -0.015146     0.199506
	   78 D(6,10,5,18)    =   -178.582821    -0.000000     0.003177  -178.579644
	   79 D(7,5,10,9)     =   -179.922849    -0.000000    -0.018354  -179.941203
	   80 D(7,12,8,21)    =    179.696171     0.000000     0.019472   179.715643
	   81 D(8,6,10,9)     =   -179.762889    -0.000000    -0.016985  -179.779874
	   82 D(8,12,7,20)    =    179.654547     0.000000     0.021939   179.676486
	   83 D(9,1,3,11)     =      0.462786     0.000000     0.039754     0.502540
	   84 D(9,1,3,16)     =   -178.970473     0.000000     0.025205  -178.945268
	   85 D(9,2,4,11)     =      0.519547     0.000000     0.041615     0.561162
	   86 D(9,2,4,17)     =   -178.939443     0.000000     0.030646  -178.908796
	   87 D(9,10,5,18)    =      1.279677    -0.000000    -0.000031     1.279647
	   88 D(9,10,6,19)    =      1.465130    -0.000000     0.003988     1.469118
	   89 D(10,5,7,12)    =     -0.369278     0.000000     0.036766    -0.332512
	   90 D(10,5,7,20)    =   -179.846529    -0.000000    -0.004860  -179.851389
	   91 D(10,6,8,12)    =     -0.316201     0.000000     0.040322    -0.275879
	   92 D(10,6,8,21)    =   -179.817715    -0.000000    -0.000289  -179.818004
	   93 D(10,9,1,14)    =      1.508101     0.000000     0.016631     1.524732
	   94 D(10,9,2,15)    =      1.796067     0.000000     0.005265     1.801332
	   95 D(11,3,1,14)    =    178.613345     0.000000     0.009917   178.623262
	   96 D(11,4,2,15)    =    178.634863     0.000000     0.009997   178.644859
	   97 D(12,7,5,18)    =    178.449184     0.000000     0.018843   178.468027
	   98 D(12,8,6,19)    =    178.477255     0.000000     0.019795   178.497050
	   99 D(13,11,3,16)   =     -0.804051    -0.000000    -0.001277    -0.805327
	  100 D(13,11,4,17)   =     -0.751751    -0.000000    -0.013584    -0.765335
	  101 D(14,1,3,16)    =     -0.819914    -0.000000    -0.004632    -0.824546
	  102 D(15,2,4,17)    =     -0.824127    -0.000000    -0.000972    -0.825099
	  103 D(18,5,7,20)    =     -1.028067    -0.000000    -0.022783    -1.050851
	  104 D(19,6,8,21)    =     -1.024259    -0.000000    -0.020815    -1.045075
	 ---------------------------------------------------------------------------
	Successfully symmetrized geometry.
	 Forces used to impose fixed constraints are not included.
	  Forces zeroed: 61 

  ==> Convergence Check <==

  Measures of convergence in internal coordinates in au.
  Criteria marked as inactive (o), active & met (*), and active & unmet ( ).
  ---------------------------------------------------------------------------------------------
   Step     Total Energy     Delta E     MAX Force     RMS Force      MAX Disp      RMS Disp   
  ---------------------------------------------------------------------------------------------
    Convergence Criteria    1.00e-06 *    3.00e-04 *             o    1.20e-03 *             o
  ---------------------------------------------------------------------------------------------
      7    -553.17930606   -7.60e-07 *    3.57e-05 *    1.05e-05 o    7.26e-04 *    2.27e-04 o  ~
  ---------------------------------------------------------------------------------------------


  **** Optimization is complete! (in 7 steps) ****

  ==> Optimization Summary <==

  Measures of convergence in internal coordinates in au.
  --------------------------------------------------------------------------------------------------------------- ~
   Step         Total Energy             Delta E       MAX Force       RMS Force        MAX Disp        RMS Disp  ~
  --------------------------------------------------------------------------------------------------------------- ~
      1    -553.167801966958   -553.167801966958      0.02646495      0.00776800      0.03480662      0.00979239  ~
      2    -553.174062632512     -0.006260665554      0.01759424      0.00475654      0.03849423      0.00979297  ~
      3    -553.177686231231     -0.003623598719      0.00918904      0.00246394      0.03592084      0.00979518  ~
      4    -553.179170986708     -0.001484755477      0.00250505      0.00060830      0.02080937      0.00718263  ~
      5    -553.179302305142     -0.000131318434      0.00049001      0.00008663      0.00591971      0.00180483  ~
      6    -553.179305296075     -0.000002990933      0.00008552      0.00003299      0.00252816      0.00067287  ~
      7    -553.179306056490     -0.000000760414      0.00003571      0.00001051      0.00072632      0.00022732  ~
  --------------------------------------------------------------------------------------------------------------- ~

	Writing optimization data to binary file.
	Final energy is   -553.1793060564896
	Final (previous) structure:
	Cartesian Geometry (in Angstrom)
	    C    -1.3008709787   0.7422514693  -0.5351258695
	    C    -0.3268017133   0.1246501970   1.5515056199
	    C    -2.3702230693   1.3051386726   0.1216065128
	    C    -1.3849903952   0.6919514058   2.2223677646
	    C     1.1494479918  -0.2235935857  -1.9025335760
	    C     1.7871958323  -1.3381988895   0.0694600594
	    C     2.2286240611  -0.8174617763  -2.5295519203
	    C     2.8439005619  -1.8812209688  -0.6369308371
	    C    -0.2370503963   0.1279830299   0.1485385018
	    C     0.8754079454  -0.4660133034  -0.5467920945
	    C    -2.4875678498   1.3228359764   1.5527014153
	    N     3.0944102803  -1.6465418075  -1.9317243066
	    O    -3.4634729757   1.8415384042   2.1618224480
	    H    -1.3037663438   0.7525980012  -1.6172802122
	    H     0.4736437576  -0.3102016421   2.1357700332
	    H    -3.1772030937   1.7537189507  -0.4423944560
	    H    -1.4079314328   0.6833455496   3.3040074652
	    H     0.5279615654   0.4495436057  -2.4724835824
	    H     1.6631583100  -1.6138366388   1.1052388206
	    H     2.4157039129  -0.6090211300  -3.5758572371
	    H     3.5289794616  -2.5532922268  -0.1347498635
	Saving final (previous) structure.
			--------------------------
			 OPTKING Finished Execution 
			--------------------------

    Final optimized geometry and variables:
    Molecular point group: c1
    Full point group: C1

    Geometry (in Angstrom), charge = -1, multiplicity = 1:

    C           -1.300870978678     0.742251469303    -0.535125869504
    C           -0.326801713345     0.124650197033     1.551505619898
    C           -2.370223069349     1.305138672593     0.121606512807
    C           -1.384990395190     0.691951405766     2.222367764603
    C            1.149447991845    -0.223593585699    -1.902533576046
    C            1.787195832309    -1.338198889465     0.069460059428
    C            2.228624061144    -0.817461776317    -2.529551920300
    C            2.843900561899    -1.881220968770    -0.636930837138
    C           -0.237050396277     0.127983029914     0.148538501769
    C            0.875407945369    -0.466013303372    -0.546792094522
    C           -2.487567849778     1.322835976443     1.552701415321
    N            3.094410280263    -1.646541807484    -1.931724306564
    O           -3.463472975676     1.841538404196     2.161822448023
    H           -1.303766343785     0.752598001170    -1.617280212216
    H            0.473643757571    -0.310201642095     2.135770033209
    H           -3.177203093694     1.753718950684    -0.442394455987
    H           -1.407931432781     0.683345549646     3.304007465218
    H            0.527961565413     0.449543605681    -2.472483582446
    H            1.663158310016    -1.613836638823     1.105238820580
    H            2.415703912906    -0.609021130016    -3.575857237133
    H            3.528979461604    -2.553292226809    -0.134749863525

	Cleaning optimization helper files.

*** Psi4 exiting successfully. Buy a developer a beer!
