
    -----------------------------------------------------------------------
          Psi4: An Open-Source Ab Initio Electronic Structure Package
                               Psi4 1.1 release

                         Git: Rev {HEAD} add49b9 


    R. M. Parrish, L. A. Burns, D. G. A. Smith, A. C. Simmonett,
    A. E. DePrince III, E. G. Hohenstein, U. Bozkaya, A. Yu. Sokolov,
    R. Di Remigio, R. M. Richard, J. F. Gonthier, A. M. James,
    H. R. McAlexander, A. Kumar, M. Saitow, X. Wang, B. P. Pritchard,
    P. Verma, H. F. Schaefer III, K. Patkowski, R. A. King, E. F. Valeev,
    F. A. Evangelista, J. M. Turney, T. D. Crawford, and C. D. Sherrill,
    J. Chem. Theory Comput. in press (2017).
    (doi: 10.1021/acs.jctc.7b00174)

    -----------------------------------------------------------------------


    Psi4 started on: Saturday, 11 November 2017 06:14PM

    Process ID:  18635
    PSIDATADIR: /cbio/jclab/home/chayas/anaconda/envs/py35/share/psi4
    Memory:     500.0 MiB
    Threads:    8
    
  ==> Input File <==

--------------------------------------------------------------------------

memory 5 Gb

molecule phepyrFOH_anion {
  symmetry C1
  -1 1 
  C      1.885   -1.036   -0.112
  C      0.807   -0.463   0.561
  C      5.157   -1.458   -0.400
  C      3.996   -3.563   -0.467
  C      1.800   -1.079   2.676
  C      6.201   -2.073   -1.073
  C      5.092   -4.084   -1.137
  C      2.921   -1.631   0.608
  C      4.038   -2.224   -0.095
  C      0.764   -0.484   1.955
  C      2.878   -1.652   2.002
  N      6.196   -3.371   -1.451
  O      -0.227   0.043   2.574
  F      3.866   -2.220   2.709
  H      1.904   -1.013   -1.200
  H      0.011   -0.007   -0.025
  H      5.227   -0.410   -0.125
  H      3.140   -4.192   -0.246
  H      1.791   -1.109   3.764
  H      7.097   -1.520   -1.333
  H      5.108   -5.123   -1.450
  units Angstrom
}

dih_string = "1 8 9 3 90"
set optking fixed_dihedral = $dih_string

optimize('MP2/aug-cc-PVTZ')
--------------------------------------------------------------------------

  Memory set to   4.657 GiB by Python driver.
gradient() will perform analytic gradient computation.

*** tstart() called on gpu-2-9.local
*** at Sat Nov 11 18:14:51 2017

    SCF Algorithm Type (re)set to DF.

*** tstart() called on gpu-2-9.local
*** at Sat Nov 11 18:14:51 2017

   => Loading Basis Set <=

    Name: AUG-CC-PVTZ
    Role: ORBITAL
    Keyword: BASIS
    atoms 1-11  entry C          line   221 file /cbio/jclab/home/chayas/anaconda/envs/py35/share/psi4/basis/aug-cc-pvtz.gbs 
    atoms 12    entry N          line   267 file /cbio/jclab/home/chayas/anaconda/envs/py35/share/psi4/basis/aug-cc-pvtz.gbs 
    atoms 13    entry O          line   313 file /cbio/jclab/home/chayas/anaconda/envs/py35/share/psi4/basis/aug-cc-pvtz.gbs 
    atoms 14    entry F          line   359 file /cbio/jclab/home/chayas/anaconda/envs/py35/share/psi4/basis/aug-cc-pvtz.gbs 
    atoms 15-21 entry H          line    34 file /cbio/jclab/home/chayas/anaconda/envs/py35/share/psi4/basis/aug-cc-pvtz.gbs 


         ---------------------------------------------------------
                                   SCF
            by Justin Turney, Rob Parrish, and Andy Simmonett
                              RHF Reference
                        8 Threads,   4768 MiB Core
         ---------------------------------------------------------

  ==> Geometry <==

    Molecular point group: c1
    Full point group: C1

    Geometry (in Angstrom), charge = -1, multiplicity = 1:

       Center              X                  Y                   Z               Mass       
    ------------   -----------------  -----------------  -----------------  -----------------
           C         -1.345588851769     0.767422406553    -0.781580060304    12.000000000000
           C         -2.423588851769     1.340422406553    -0.108580060304    12.000000000000
           C          1.926411148231     0.345422406553    -1.069580060304    12.000000000000
           C          0.765411148231    -1.759577593447    -1.136580060304    12.000000000000
           C         -1.430588851769     0.724422406553     2.006419939696    12.000000000000
           C          2.970411148231    -0.269577593447    -1.742580060304    12.000000000000
           C          1.861411148231    -2.280577593447    -1.806580060304    12.000000000000
           C         -0.309588851769     0.172422406553    -0.061580060304    12.000000000000
           C          0.807411148231    -0.420577593447    -0.764580060304    12.000000000000
           C         -2.466588851769     1.319422406553     1.285419939696    12.000000000000
           C         -0.352588851769     0.151422406553     1.332419939696    12.000000000000
           N          2.965411148231    -1.567577593447    -2.120580060304    14.003074004780
           O         -3.457588851769     1.846422406553     1.904419939696    15.994914619560
           F          0.635411148231    -0.416577593447     2.039419939696    18.998403224000
           H         -1.326588851769     0.790422406553    -1.869580060304     1.007825032070
           H         -3.219588851769     1.796422406553    -0.694580060304     1.007825032070
           H          1.996411148231     1.393422406553    -0.794580060304     1.007825032070
           H         -0.090588851769    -2.388577593447    -0.915580060304     1.007825032070
           H         -1.439588851769     0.694422406553     3.094419939696     1.007825032070
           H          3.866411148231     0.283422406553    -2.002580060304     1.007825032070
           H          1.877411148231    -3.319577593447    -2.119580060304     1.007825032070

  Running in c1 symmetry.

  Rotational constants: A =      0.06335  B =      0.01312  C =      0.01219 [cm^-1]
  Rotational constants: A =   1899.03797  B =    393.32211  C =    365.58619 [MHz]
  Nuclear repulsion =  800.640172851116404

  Charge       = -1
  Multiplicity = 1
  Electrons    = 98
  Nalpha       = 49
  Nbeta        = 49

  ==> Algorithm <==

  SCF Algorithm Type is DF.
  DIIS enabled.
  MOM disabled.
  Fractional occupation disabled.
  Guess Type is SAD.
  Energy threshold   = 1.00e-10
  Density threshold  = 1.00e-10
  Integral threshold = 0.00e+00

  ==> Primary Basis <==

  Basis Set: AUG-CC-PVTZ
    Blend: AUG-CC-PVTZ
    Number of shells: 259
    Number of basis function: 805
    Number of Cartesian functions: 945
    Spherical Harmonics?: true
    Max angular momentum: 3

   => Loading Basis Set <=

    Name: (AUG-CC-PVTZ AUX)
    Role: JKFIT
    Keyword: DF_BASIS_SCF
    atoms 1-11  entry C          line   161 file /cbio/jclab/home/chayas/anaconda/envs/py35/share/psi4/basis/aug-cc-pvtz-jkfit.gbs 
    atoms 12    entry N          line   223 file /cbio/jclab/home/chayas/anaconda/envs/py35/share/psi4/basis/aug-cc-pvtz-jkfit.gbs 
    atoms 13    entry O          line   285 file /cbio/jclab/home/chayas/anaconda/envs/py35/share/psi4/basis/aug-cc-pvtz-jkfit.gbs 
    atoms 14    entry F          line   347 file /cbio/jclab/home/chayas/anaconda/envs/py35/share/psi4/basis/aug-cc-pvtz-jkfit.gbs 
    atoms 15-21 entry H          line    69 file /cbio/jclab/home/chayas/anaconda/envs/py35/share/psi4/basis/aug-cc-pvtz-jkfit.gbs 

  ==> Pre-Iterations <==

   -------------------------------------------------------
    Irrep   Nso     Nmo     Nalpha   Nbeta   Ndocc  Nsocc
   -------------------------------------------------------
     A        805     805       0       0       0       0
   -------------------------------------------------------
    Total     805     805      49      49      49       0
   -------------------------------------------------------

  ==> Integral Setup <==

  ==> DFJK: Density-Fitted J/K Matrices <==

    J tasked:                  Yes
    K tasked:                  Yes
    wK tasked:                  No
    OpenMP threads:              8
    Integrals threads:           8
    Memory (MB):              3576
    Algorithm:                Disk
    Integral Cache:           NONE
    Schwarz Cutoff:          1E-12
    Fitting Condition:       1E-12

   => Auxiliary Basis Set <=

  Basis Set: (AUG-CC-PVTZ AUX)
    Blend: AUG-CC-PVTZ-JKFIT
    Number of shells: 518
    Number of basis function: 1778
    Number of Cartesian functions: 2219
    Spherical Harmonics?: true
    Max angular momentum: 4

  Minimum eigenvalue in the overlap matrix is 8.3049367514E-07.
  Using Symmetric Orthogonalization.

  SCF Guess: Superposition of Atomic Densities via on-the-fly atomic UHF.

  ==> Iterations <==

                           Total Energy        Delta E     RMS |[F,P]|

   @DF-RHF iter   0:  -660.75035869188480   -6.60750e+02   2.40634e-02 
   @DF-RHF iter   1:  -649.10778956131537    1.16426e+01   2.41426e-03 
   @DF-RHF iter   2:  -649.43996591968062   -3.32176e-01   1.60959e-03 DIIS
   @DF-RHF iter   3:  -649.57989516002783   -1.39929e-01   4.89061e-04 DIIS
   @DF-RHF iter   4:  -649.60117310210467   -2.12779e-02   1.59990e-04 DIIS
   @DF-RHF iter   5:  -649.60398508625201   -2.81198e-03   5.21818e-05 DIIS
   @DF-RHF iter   6:  -649.60441975573838   -4.34669e-04   2.46102e-05 DIIS
   @DF-RHF iter   7:  -649.60451129092144   -9.15352e-05   1.16659e-05 DIIS
   @DF-RHF iter   8:  -649.60452740641790   -1.61155e-05   3.60709e-06 DIIS
   @DF-RHF iter   9:  -649.60453164454918   -4.23813e-06   2.29798e-06 DIIS
   @DF-RHF iter  10:  -649.60453266856018   -1.02401e-06   7.56061e-07 DIIS
   @DF-RHF iter  11:  -649.60453289630800   -2.27748e-07   2.50128e-07 DIIS
   @DF-RHF iter  12:  -649.60453291089868   -1.45907e-08   6.75070e-08 DIIS
   @DF-RHF iter  13:  -649.60453291229408   -1.39539e-09   3.48270e-08 DIIS
   @DF-RHF iter  14:  -649.60453291259512   -3.01043e-10   1.68960e-08 DIIS
   @DF-RHF iter  15:  -649.60453291264639   -5.12728e-11   7.96860e-09 DIIS
   @DF-RHF iter  16:  -649.60453291266742   -2.10321e-11   3.47345e-09 DIIS
   @DF-RHF iter  17:  -649.60453291266754   -1.13687e-13   1.11393e-09 DIIS
   @DF-RHF iter  18:  -649.60453291265651    1.10276e-11   6.18650e-10 DIIS
   @DF-RHF iter  19:  -649.60453291266754   -1.10276e-11   2.67760e-10 DIIS
   @DF-RHF iter  20:  -649.60453291266526    2.27374e-12   9.49255e-11 DIIS

  ==> Post-Iterations <==

    Orbital Energies (a.u.)
    -----------------------

    Doubly Occupied:                                                      

       1A    -26.183278     2A    -20.292492     3A    -15.466676  
       4A    -11.185649     5A    -11.175592     6A    -11.175572  
       7A    -11.150289     8A    -11.131236     9A    -11.131163  
      10A    -11.115597    11A    -11.104740    12A    -11.079299  
      13A    -11.059092    14A    -11.058620    15A     -1.502377  
      16A     -1.150486    17A     -1.125620    18A     -1.024319  
      19A     -0.964699    20A     -0.932653    21A     -0.868442  
      22A     -0.846395    23A     -0.752898    24A     -0.741535  
      25A     -0.700510    26A     -0.673388    27A     -0.610041  
      28A     -0.577114    29A     -0.571845    30A     -0.557376  
      31A     -0.555984    32A     -0.547998    33A     -0.501586  
      34A     -0.497673    35A     -0.468082    36A     -0.457306  
      37A     -0.435375    38A     -0.421188    39A     -0.411265  
      40A     -0.378337    41A     -0.372972    42A     -0.352178  
      43A     -0.318712    44A     -0.283507    45A     -0.266419  
      46A     -0.249214    47A     -0.212764    48A     -0.195215  
      49A     -0.114227  

    Virtual:                                                              

      50A      0.096348    51A      0.099259    52A      0.113309  
      53A      0.119278    54A      0.124668    55A      0.127174  
      56A      0.130108    57A      0.151760    58A      0.164725  
      59A      0.173696    60A      0.182110    61A      0.183551  
      62A      0.184168    63A      0.186277    64A      0.188664  
      65A      0.192089    66A      0.196031    67A      0.197952  
      68A      0.208139    69A      0.208209    70A      0.213229  
      71A      0.216511    72A      0.220412    73A      0.223084  
      74A      0.226010    75A      0.227975    76A      0.231529  
      77A      0.234642    78A      0.240978    79A      0.244045  
      80A      0.254012    81A      0.254540    82A      0.257605  
      83A      0.265062    84A      0.268058    85A      0.275768  
      86A      0.282762    87A      0.292354    88A      0.294936  
      89A      0.295114    90A      0.298768    91A      0.305296  
      92A      0.315540    93A      0.318844    94A      0.319140  
      95A      0.328389    96A      0.332983    97A      0.335047  
      98A      0.337451    99A      0.340530   100A      0.345447  
     101A      0.348635   102A      0.353149   103A      0.356691  
     104A      0.365479   105A      0.366328   106A      0.371672  
     107A      0.383864   108A      0.389973   109A      0.391120  
     110A      0.394332   111A      0.397918   112A      0.402598  
     113A      0.407330   114A      0.407947   115A      0.407999  
     116A      0.412109   117A      0.417776   118A      0.425213  
     119A      0.429606   120A      0.431106   121A      0.448289  
     122A      0.451458   123A      0.453580   124A      0.458559  
     125A      0.463891   126A      0.471487   127A      0.472402  
     128A      0.479883   129A      0.486411   130A      0.486737  
     131A      0.493931   132A      0.495046   133A      0.508839  
     134A      0.510386   135A      0.513166   136A      0.514933  
     137A      0.521702   138A      0.524004   139A      0.531431  
     140A      0.536659   141A      0.544135   142A      0.551007  
     143A      0.555190   144A      0.558666   145A      0.558821  
     146A      0.573858   147A      0.574705   148A      0.576425  
     149A      0.579000   150A      0.581787   151A      0.584210  
     152A      0.586211   153A      0.591407   154A      0.592046  
     155A      0.598947   156A      0.599526   157A      0.602531  
     158A      0.609395   159A      0.614175   160A      0.620073  
     161A      0.621846   162A      0.622285   163A      0.624828  
     164A      0.626147   165A      0.637150   166A      0.641856  
     167A      0.646514   168A      0.651045   169A      0.657698  
     170A      0.660228   171A      0.666924   172A      0.671926  
     173A      0.676993   174A      0.687796   175A      0.690029  
     176A      0.693387   177A      0.699304   178A      0.699848  
     179A      0.707826   180A      0.711006   181A      0.714707  
     182A      0.727073   183A      0.730748   184A      0.734776  
     185A      0.736279   186A      0.736354   187A      0.747012  
     188A      0.752565   189A      0.760913   190A      0.768757  
     191A      0.768999   192A      0.777812   193A      0.788751  
     194A      0.792854   195A      0.795677   196A      0.810588  
     197A      0.822373   198A      0.822979   199A      0.826766  
     200A      0.829418   201A      0.839421   202A      0.840996  
     203A      0.846886   204A      0.848218   205A      0.853665  
     206A      0.856498   207A      0.857813   208A      0.869699  
     209A      0.872096   210A      0.883332   211A      0.891030  
     212A      0.893582   213A      0.898390   214A      0.902659  
     215A      0.903645   216A      0.920979   217A      0.921040  
     218A      0.934036   219A      0.936066   220A      0.950628  
     221A      0.953906   222A      0.959468   223A      0.977201  
     224A      0.981552   225A      0.981910   226A      0.985964  
     227A      0.997034   228A      1.003871   229A      1.009819  
     230A      1.013129   231A      1.016266   232A      1.021597  
     233A      1.021828   234A      1.024921   235A      1.033535  
     236A      1.034377   237A      1.039898   238A      1.040135  
     239A      1.048767   240A      1.054859   241A      1.056020  
     242A      1.059992   243A      1.061230   244A      1.067007  
     245A      1.071617   246A      1.084766   247A      1.089347  
     248A      1.092157   249A      1.092399   250A      1.097509  
     251A      1.099235   252A      1.107145   253A      1.115135  
     254A      1.116573   255A      1.118573   256A      1.131715  
     257A      1.139608   258A      1.145687   259A      1.147508  
     260A      1.152552   261A      1.157362   262A      1.158505  
     263A      1.163653   264A      1.166267   265A      1.168499  
     266A      1.169816   267A      1.177525   268A      1.183752  
     269A      1.186190   270A      1.193252   271A      1.200762  
     272A      1.203648   273A      1.213134   274A      1.215594  
     275A      1.221733   276A      1.224392   277A      1.229091  
     278A      1.230485   279A      1.247317   280A      1.248969  
     281A      1.252874   282A      1.256794   283A      1.263314  
     284A      1.265572   285A      1.271320   286A      1.277235  
     287A      1.282503   288A      1.290576   289A      1.296047  
     290A      1.306656   291A      1.311225   292A      1.315524  
     293A      1.318033   294A      1.323531   295A      1.329102  
     296A      1.340858   297A      1.345488   298A      1.348710  
     299A      1.349592   300A      1.357407   301A      1.358324  
     302A      1.369603   303A      1.372716   304A      1.376052  
     305A      1.387827   306A      1.387925   307A      1.392455  
     308A      1.395467   309A      1.398140   310A      1.401258  
     311A      1.410851   312A      1.415277   313A      1.428142  
     314A      1.433061   315A      1.442163   316A      1.448128  
     317A      1.453623   318A      1.454397   319A      1.464706  
     320A      1.478691   321A      1.483604   322A      1.489572  
     323A      1.498213   324A      1.505275   325A      1.509848  
     326A      1.516144   327A      1.528164   328A      1.534609  
     329A      1.544889   330A      1.549850   331A      1.551726  
     332A      1.557171   333A      1.588877   334A      1.590452  
     335A      1.593017   336A      1.596502   337A      1.603518  
     338A      1.616967   339A      1.623219   340A      1.627306  
     341A      1.641080   342A      1.651812   343A      1.654526  
     344A      1.668545   345A      1.679123   346A      1.683291  
     347A      1.692158   348A      1.701597   349A      1.708818  
     350A      1.721543   351A      1.723075   352A      1.734145  
     353A      1.740818   354A      1.746220   355A      1.753343  
     356A      1.768593   357A      1.770869   358A      1.781857  
     359A      1.790930   360A      1.793973   361A      1.797504  
     362A      1.800511   363A      1.811102   364A      1.826896  
     365A      1.827904   366A      1.832955   367A      1.845374  
     368A      1.848877   369A      1.856837   370A      1.860811  
     371A      1.874421   372A      1.879177   373A      1.885554  
     374A      1.891883   375A      1.897318   376A      1.901722  
     377A      1.906662   378A      1.921041   379A      1.931794  
     380A      1.936117   381A      1.950494   382A      1.960624  
     383A      1.962212   384A      1.972609   385A      1.978502  
     386A      1.988077   387A      1.991365   388A      2.003338  
     389A      2.007404   390A      2.014574   391A      2.029958  
     392A      2.046240   393A      2.051460   394A      2.061890  
     395A      2.070901   396A      2.080756   397A      2.081136  
     398A      2.087924   399A      2.097065   400A      2.097854  
     401A      2.112507   402A      2.120589   403A      2.122341  
     404A      2.144075   405A      2.144735   406A      2.149471  
     407A      2.161192   408A      2.166572   409A      2.169238  
     410A      2.180744   411A      2.187583   412A      2.200227  
     413A      2.204213   414A      2.211588   415A      2.214461  
     416A      2.222691   417A      2.234115   418A      2.241800  
     419A      2.257093   420A      2.257817   421A      2.267884  
     422A      2.275330   423A      2.282315   424A      2.298710  
     425A      2.305996   426A      2.306330   427A      2.316274  
     428A      2.319687   429A      2.326195   430A      2.332701  
     431A      2.336410   432A      2.354729   433A      2.355234  
     434A      2.362971   435A      2.375599   436A      2.382424  
     437A      2.397944   438A      2.413566   439A      2.424301  
     440A      2.428097   441A      2.446863   442A      2.452133  
     443A      2.464039   444A      2.468859   445A      2.471365  
     446A      2.487364   447A      2.492145   448A      2.495959  
     449A      2.520394   450A      2.531383   451A      2.536290  
     452A      2.557895   453A      2.573209   454A      2.583535  
     455A      2.583746   456A      2.589912   457A      2.595563  
     458A      2.614263   459A      2.631766   460A      2.651535  
     461A      2.658265   462A      2.678745   463A      2.679202  
     464A      2.689414   465A      2.695393   466A      2.703307  
     467A      2.728714   468A      2.734413   469A      2.743948  
     470A      2.744747   471A      2.760687   472A      2.762351  
     473A      2.785757   474A      2.797772   475A      2.863928  
     476A      2.864436   477A      2.881897   478A      2.895111  
     479A      2.907013   480A      2.908961   481A      2.910194  
     482A      2.938960   483A      2.943208   484A      2.954481  
     485A      2.976545   486A      3.011613   487A      3.025414  
     488A      3.025689   489A      3.034601   490A      3.097886  
     491A      3.113468   492A      3.115509   493A      3.136330  
     494A      3.147680   495A      3.155639   496A      3.200835  
     497A      3.201616   498A      3.206146   499A      3.225390  
     500A      3.248227   501A      3.250394   502A      3.282470  
     503A      3.284639   504A      3.306228   505A      3.331732  
     506A      3.332463   507A      3.341165   508A      3.345460  
     509A      3.358281   510A      3.380695   511A      3.385952  
     512A      3.414862   513A      3.426522   514A      3.431964  
     515A      3.450748   516A      3.456391   517A      3.472421  
     518A      3.492012   519A      3.492402   520A      3.502098  
     521A      3.514530   522A      3.522438   523A      3.526354  
     524A      3.537125   525A      3.556143   526A      3.563587  
     527A      3.568904   528A      3.585130   529A      3.588230  
     530A      3.593820   531A      3.611387   532A      3.623051  
     533A      3.624151   534A      3.634812   535A      3.641719  
     536A      3.668982   537A      3.671646   538A      3.672090  
     539A      3.673348   540A      3.684215   541A      3.685131  
     542A      3.687152   543A      3.700074   544A      3.704118  
     545A      3.722973   546A      3.737127   547A      3.739678  
     548A      3.742751   549A      3.751905   550A      3.763200  
     551A      3.768626   552A      3.784943   553A      3.792497  
     554A      3.805604   555A      3.818202   556A      3.822962  
     557A      3.827287   558A      3.835537   559A      3.843811  
     560A      3.852316   561A      3.863325   562A      3.878144  
     563A      3.884706   564A      3.892297   565A      3.897593  
     566A      3.906038   567A      3.912510   568A      3.919717  
     569A      3.940686   570A      3.948130   571A      3.965394  
     572A      3.968316   573A      3.979220   574A      3.980489  
     575A      3.989094   576A      3.995388   577A      4.007272  
     578A      4.010363   579A      4.015323   580A      4.026864  
     581A      4.039405   582A      4.043646   583A      4.062394  
     584A      4.062512   585A      4.077047   586A      4.080586  
     587A      4.095813   588A      4.106094   589A      4.112169  
     590A      4.115337   591A      4.128269   592A      4.129190  
     593A      4.144071   594A      4.154902   595A      4.165037  
     596A      4.180445   597A      4.185850   598A      4.193260  
     599A      4.195105   600A      4.204378   601A      4.210880  
     602A      4.231816   603A      4.234656   604A      4.238207  
     605A      4.250199   606A      4.259778   607A      4.275010  
     608A      4.290536   609A      4.295883   610A      4.307453  
     611A      4.307761   612A      4.324642   613A      4.328312  
     614A      4.339156   615A      4.352654   616A      4.361223  
     617A      4.364973   618A      4.395784   619A      4.396145  
     620A      4.400867   621A      4.413351   622A      4.415145  
     623A      4.418708   624A      4.428577   625A      4.433833  
     626A      4.447841   627A      4.457993   628A      4.464760  
     629A      4.479282   630A      4.481317   631A      4.508063  
     632A      4.518763   633A      4.525127   634A      4.527156  
     635A      4.537197   636A      4.542040   637A      4.548737  
     638A      4.559944   639A      4.565019   640A      4.589454  
     641A      4.598606   642A      4.614312   643A      4.620393  
     644A      4.623336   645A      4.638871   646A      4.654361  
     647A      4.677096   648A      4.684492   649A      4.693705  
     650A      4.697358   651A      4.719452   652A      4.739405  
     653A      4.743934   654A      4.744995   655A      4.755711  
     656A      4.757901   657A      4.779591   658A      4.806417  
     659A      4.817145   660A      4.832663   661A      4.866124  
     662A      4.876564   663A      4.889399   664A      4.904079  
     665A      4.915217   666A      4.920210   667A      4.964752  
     668A      4.971473   669A      4.984118   670A      5.006454  
     671A      5.010961   672A      5.022566   673A      5.038984  
     674A      5.048340   675A      5.062345   676A      5.072049  
     677A      5.072562   678A      5.081607   679A      5.092534  
     680A      5.117737   681A      5.130980   682A      5.159573  
     683A      5.166114   684A      5.171484   685A      5.188873  
     686A      5.192245   687A      5.204053   688A      5.234072  
     689A      5.244891   690A      5.251491   691A      5.254973  
     692A      5.265320   693A      5.271879   694A      5.273509  
     695A      5.287745   696A      5.304842   697A      5.309390  
     698A      5.321897   699A      5.341538   700A      5.354656  
     701A      5.360502   702A      5.371295   703A      5.401738  
     704A      5.445423   705A      5.467534   706A      5.474426  
     707A      5.482853   708A      5.486362   709A      5.492318  
     710A      5.511435   711A      5.522745   712A      5.532876  
     713A      5.559698   714A      5.585749   715A      5.595474  
     716A      5.619073   717A      5.649200   718A      5.659093  
     719A      5.666853   720A      5.725530   721A      5.736869  
     722A      5.756960   723A      5.764234   724A      5.839667  
     725A      5.845949   726A      5.859837   727A      5.870148  
     728A      5.886940   729A      5.915614   730A      5.940715  
     731A      5.971497   732A      5.981706   733A      6.006744  
     734A      6.014630   735A      6.046190   736A      6.097637  
     737A      6.123507   738A      6.176228   739A      6.195938  
     740A      6.231201   741A      6.289909   742A      6.336126  
     743A      6.349089   744A      6.350899   745A      6.406870  
     746A      6.437096   747A      6.480379   748A      6.493087  
     749A      6.563666   750A      6.570764   751A      6.651353  
     752A      6.677026   753A      6.697858   754A      6.794073  
     755A      6.803391   756A      6.823674   757A      6.862015  
     758A      6.897417   759A      6.905271   760A      6.980482  
     761A      6.988553   762A      6.998393   763A      7.020211  
     764A      7.118561   765A      7.162326   766A      7.176528  
     767A      7.194649   768A      7.306957   769A      7.329230  
     770A      7.362077   771A      7.507014   772A      7.600216  
     773A      7.619706   774A      7.645808   775A      7.916851  
     776A      7.948249   777A      8.026849   778A      8.157675  
     779A      8.218478   780A      9.124638   781A      9.177497  
     782A      9.410006   783A      9.423168   784A      9.534512  
     785A      9.648593   786A      9.666305   787A      9.723125  
     788A      9.788622   789A      9.849435   790A     10.163722  
     791A     10.213526   792A     15.743324   793A     16.055908  
     794A     16.257354   795A     16.605876   796A     16.738778  
     797A     17.014048   798A     18.667620   799A     18.983630  
     800A     19.363260   801A     20.119967   802A     20.160914  
     803A     20.402072   804A     20.590678   805A     21.996109  

    Final Occupation by Irrep:
              A 
    DOCC [    49 ]

  Energy converged.

  @DF-RHF Final Energy:  -649.60453291266526

   => Energetics <=

    Nuclear Repulsion Energy =            800.6401728511164038
    One-Electron Energy =               -2490.5914196747980895
    Two-Electron Energy =                1040.3467139110164226
    DFT Exchange-Correlation Energy =       0.0000000000000000
    Empirical Dispersion Energy =           0.0000000000000000
    PCM Polarization Energy =               0.0000000000000000
    EFP Energy =                            0.0000000000000000
    Total Energy =                       -649.6045329126652632



Properties will be evaluated at   0.000000,   0.000000,   0.000000 Bohr

Properties computed using the SCF density matrix

  Nuclear Dipole Moment: (a.u.)
     X:     0.9352      Y:    -0.2967      Z:    -6.8791

  Electronic Dipole Moment: (a.u.)
     X:     2.0399      Y:    -1.2804      Z:     4.8779

  Dipole Moment: (a.u.)
     X:     2.9751      Y:    -1.5771      Z:    -2.0012     Total:     3.9171

  Dipole Moment: (Debye)
     X:     7.5620      Y:    -4.0086      Z:    -5.0866     Total:     9.9562


*** tstop() called on gpu-2-9.local at Sat Nov 11 18:22:38 2017
Module time:
	user time   =    1143.98 seconds =      19.07 minutes
	system time =      52.47 seconds =       0.87 minutes
	total time  =        467 seconds =       7.78 minutes
Total time:
	user time   =    1143.98 seconds =      19.07 minutes
	system time =      52.47 seconds =       0.87 minutes
	total time  =        467 seconds =       7.78 minutes

  //>>>>>>>>>>>>>>>>>>>>>>>>>>>>>>>>>>>//
  //               DFMP2               //
  //<<<<<<<<<<<<<<<<<<<<<<<<<<<<<<<<<<<//

   => Loading Basis Set <=

    Name: (AUG-CC-PVTZ AUX)
    Role: RIFIT
    Keyword: DF_BASIS_MP2
    atoms 1-11  entry C          line   147 file /cbio/jclab/home/chayas/anaconda/envs/py35/share/psi4/basis/aug-cc-pvtz-ri.gbs 
    atoms 12    entry N          line   205 file /cbio/jclab/home/chayas/anaconda/envs/py35/share/psi4/basis/aug-cc-pvtz-ri.gbs 
    atoms 13    entry O          line   263 file /cbio/jclab/home/chayas/anaconda/envs/py35/share/psi4/basis/aug-cc-pvtz-ri.gbs 
    atoms 14    entry F          line   321 file /cbio/jclab/home/chayas/anaconda/envs/py35/share/psi4/basis/aug-cc-pvtz-ri.gbs 
    atoms 15-21 entry H          line    29 file /cbio/jclab/home/chayas/anaconda/envs/py35/share/psi4/basis/aug-cc-pvtz-ri.gbs 

	 --------------------------------------------------------
	                          DF-MP2                         
	      2nd-Order Density-Fitted Moller-Plesset Theory     
	              RMP2 Wavefunction,   8 Threads             
	                                                         
	        Rob Parrish, Justin Turney, Andy Simmonett,      
	           Ed Hohenstein, and C. David Sherrill          
	 --------------------------------------------------------

   => Auxiliary Basis Set <=

  Basis Set: (AUG-CC-PVTZ AUX)
    Blend: AUG-CC-PVTZ-RI
    Number of shells: 490
    Number of basis function: 1806
    Number of Cartesian functions: 2289
    Spherical Harmonics?: true
    Max angular momentum: 4

	 --------------------------------------------------------
	                 NBF =   805, NAUX =  1806
	 --------------------------------------------------------
	   CLASS    FOCC     OCC    AOCC    AVIR     VIR    FVIR
	   PAIRS       0      49      49     756     756       0
	 --------------------------------------------------------


         ------------------------------------------------------------
                                     CPHF                           
                                  Rob Parrish                       
         ------------------------------------------------------------

  ==> Geometry <==

    Molecular point group: c1
    Full point group: C1

    Geometry (in Angstrom), charge = -1, multiplicity = 1:

       Center              X                  Y                   Z               Mass       
    ------------   -----------------  -----------------  -----------------  -----------------
           C         -1.345588851769     0.767422406553    -0.781580060304    12.000000000000
           C         -2.423588851769     1.340422406553    -0.108580060304    12.000000000000
           C          1.926411148231     0.345422406553    -1.069580060304    12.000000000000
           C          0.765411148231    -1.759577593447    -1.136580060304    12.000000000000
           C         -1.430588851769     0.724422406553     2.006419939696    12.000000000000
           C          2.970411148231    -0.269577593447    -1.742580060304    12.000000000000
           C          1.861411148231    -2.280577593447    -1.806580060304    12.000000000000
           C         -0.309588851769     0.172422406553    -0.061580060304    12.000000000000
           C          0.807411148231    -0.420577593447    -0.764580060304    12.000000000000
           C         -2.466588851769     1.319422406553     1.285419939696    12.000000000000
           C         -0.352588851769     0.151422406553     1.332419939696    12.000000000000
           N          2.965411148231    -1.567577593447    -2.120580060304    14.003074004780
           O         -3.457588851769     1.846422406553     1.904419939696    15.994914619560
           F          0.635411148231    -0.416577593447     2.039419939696    18.998403224000
           H         -1.326588851769     0.790422406553    -1.869580060304     1.007825032070
           H         -3.219588851769     1.796422406553    -0.694580060304     1.007825032070
           H          1.996411148231     1.393422406553    -0.794580060304     1.007825032070
           H         -0.090588851769    -2.388577593447    -0.915580060304     1.007825032070
           H         -1.439588851769     0.694422406553     3.094419939696     1.007825032070
           H          3.866411148231     0.283422406553    -2.002580060304     1.007825032070
           H          1.877411148231    -3.319577593447    -2.119580060304     1.007825032070

  Nuclear repulsion =  800.640172851116404
  Reference energy  = -649.604532912665263

  ==> Basis Set <==

  Basis Set: AUG-CC-PVTZ
    Blend: AUG-CC-PVTZ
    Number of shells: 259
    Number of basis function: 805
    Number of Cartesian functions: 945
    Spherical Harmonics?: true
    Max angular momentum: 3

  ==> CGRSolver (by Rob Parrish) <==

   Number of roots    =         1
   Preconditioning    =    JACOBI
   Convergence cutoff =     1E-06
   Maximum iterations =       100

  ==> CPHFRHamiltonian (by Rob Parrish) <== 

  ==> DFJK: Density-Fitted J/K Matrices <==

    J tasked:                  Yes
    K tasked:                  Yes
    wK tasked:                  No
    OpenMP threads:              8
    Integrals threads:           8
    Memory (MB):              3576
    Algorithm:                Disk
    Integral Cache:           NONE
    Schwarz Cutoff:          1E-12
    Fitting Condition:       1E-12

   => Auxiliary Basis Set <=

  Basis Set: (AUG-CC-PVTZ AUX)
    Blend: AUG-CC-PVTZ-JKFIT
    Number of shells: 518
    Number of basis function: 1778
    Number of Cartesian functions: 2219
    Spherical Harmonics?: true
    Max angular momentum: 4

  ==> CPHF Iterations <==

  => Iterations <=

             Iter  Converged  Remaining    Residual
  CGR           1          0          1   1.259E-01
  CGR           2          0          1   4.494E-02
  CGR           3          0          1   2.698E-02
  CGR           4          0          1   1.018E-02
  CGR           5          0          1   4.323E-03
  CGR           6          0          1   2.090E-03
  CGR           7          0          1   8.249E-04
  CGR           8          0          1   3.151E-04
  CGR           9          0          1   1.041E-04
  CGR          10          0          1   3.432E-05
  CGR          11          0          1   1.496E-05
  CGR          12          0          1   6.404E-06
  CGR          13          0          1   2.677E-06
  CGR          14          0          1   1.071E-06
  CGR          15          1          0   3.090E-07

    CGRSolver converged.

  ==> DFCorrGrad: Density-Fitted Correlated Gradients <==

    OpenMP threads:              8
    Integrals threads:           8
    Memory (MB):              3576
    Schwarz Cutoff:          0E+00
    Fitting Condition:       1E-12

   => Auxiliary Basis Set <=

  Basis Set: (AUG-CC-PVTZ AUX)
    Blend: AUG-CC-PVTZ-JKFIT
    Number of shells: 518
    Number of basis function: 1778
    Number of Cartesian functions: 2219
    Spherical Harmonics?: true
    Max angular momentum: 4

	-----------------------------------------------------------
	 ==================> DF-MP2 Energies <==================== 
	-----------------------------------------------------------
	 Reference Energy          =    -649.6045329126652632 [Eh]
	 Singles Energy            =      -0.0000000000000003 [Eh]
	 Same-Spin Energy          =      -0.6853291295217628 [Eh]
	 Opposite-Spin Energy      =      -2.0254664714838828 [Eh]
	 Correlation Energy        =      -2.7107956010056462 [Eh]
	 Total Energy              =    -652.3153285136709201 [Eh]
	-----------------------------------------------------------
	 ================> DF-SCS-MP2 Energies <================== 
	-----------------------------------------------------------
	 SCS Same-Spin Scale       =       0.3333333333333333 [-]
	 SCS Opposite-Spin Scale   =       1.2000000000000000 [-]
	 SCS Same-Spin Energy      =      -0.2284430431739209 [Eh]
	 SCS Opposite-Spin Energy  =      -2.4305597657806595 [Eh]
	 SCS Correlation Energy    =      -2.6590028089545807 [Eh]
	 SCS Total Energy          =    -652.2635357216198599 [Eh]
	-----------------------------------------------------------


  -Total Gradient:
     Atom            X                  Y                   Z
    ------   -----------------  -----------------  -----------------
       1        0.014821518040    -0.007721389191    -0.010316661894
       2       -0.020635494470     0.010301693681     0.036886871878
       3       -0.006957759894     0.008687018731     0.005745292305
       4       -0.011815910966     0.000062263122     0.005561656352
       5       -0.041082460383     0.022669747638    -0.001206987065
       6       -0.003363299597     0.011232276445     0.005146157291
       7       -0.010706150875    -0.002503675681     0.004934603722
       8       -0.007433542578     0.004034296480    -0.002758700698
       9        0.003628605040    -0.001464621653    -0.004152462089
      10        0.045655357068    -0.024328371616    -0.027628297889
      11        0.039841034549    -0.022183048457     0.007364331205
      12        0.009871249584    -0.005665463456    -0.006491661630
      13        0.000561780081    -0.000247706380    -0.001467925181
      14       -0.013351056817     0.007465648709    -0.003368764373
      15       -0.003773390840     0.002158987074    -0.004319734893
      16       -0.001993405519     0.001293584778    -0.008700669572
      17        0.003534826166     0.004976416203    -0.000340627659
      18       -0.002034854680    -0.005232271255    -0.000747140505
      19        0.003713192526    -0.002267796502     0.007044316215
      20        0.001390865630     0.000545457444    -0.000460601128
      21        0.000128897926    -0.001813046103    -0.000722994396


*** tstop() called on gpu-2-9.local at Sat Nov 11 18:56:52 2017
Module time:
	user time   =    5473.82 seconds =      91.23 minutes
	system time =     112.93 seconds =       1.88 minutes
	total time  =       2521 seconds =      42.02 minutes
Total time:
	user time   =    5473.82 seconds =      91.23 minutes
	system time =     112.93 seconds =       1.88 minutes
	total time  =       2521 seconds =      42.02 minutes

			-----------------------------------------
			 OPTKING 2.0: for geometry optimizations 
			  - R.A. King,  Bethel University        
			-----------------------------------------

	Internal coordinates to be generated automatically.
	Detected frag 1 with atoms:  1 2 3 4 5 6 7 8 9 10 11 12 13 14 15 16 17 18 19 20
	 21
	---Fragment 1 Bond Connectivity---
	 1 : 2 8 15
	 2 : 1 10 16
	 3 : 6 9 17
	 4 : 7 9 18
	 5 : 10 11 19
	 6 : 3 12 20
	 7 : 4 12 21
	 8 : 1 9 11
	 9 : 3 4 8
	 10 : 2 5 13
	 11 : 5 8 14
	 12 : 6 7
	 13 : 10
	 14 : 11
	 15 : 1
	 16 : 2
	 17 : 3
	 18 : 4
	 19 : 5
	 20 : 6
	 21 : 7

	Assuming in current code that numbering for constraints corresponds to unified fragment.
	Fixed dihedral atom list: 
	     1     8     9     3
	---Fragment 1 Geometry and Gradient---
	 C          -2.5427944173        1.4502181766       -1.4769722649
	 C          -4.5799191886        2.5330312508       -0.2051865775
	 C           3.6403894895        0.6527537485       -2.0212133912
	 C           1.4464174492       -3.3251197612       -2.1478250421
	 C          -2.7034211386        1.3689599529        3.7915841936
	 C           5.6132635722       -0.5094278232       -3.2929990786
	 C           3.5175572909       -4.3096670764       -3.4139415511
	 C          -0.5850381436        0.3258311276       -0.1163694492
	 C           1.5257859468       -0.7947764692       -1.4448469206
	 C          -4.6611774123        2.4933470020        2.4290916518
	 C          -0.6662963674        0.2861468788        2.5179087800
	 N           5.6038149416       -2.9622923437       -4.0073155568
	 O          -6.5338960100        3.4892326740        3.5988321280
	 F           1.2007530519       -0.7872175647        3.8539451560
	 H          -2.5068896208        1.4936818777       -3.5329942975
	 H          -6.0841411903        3.3947463674       -1.3125660913
	 H           3.7726703188        2.6331867358       -1.5015387046
	 H          -0.1711881205       -4.5137574988       -1.7301955667
	 H          -2.7204286738        1.3122681689        5.8476062262
	 H           7.3064581873        0.5355907283       -3.7843278732
	 H           3.5477929090       -6.2730925285       -4.0054258307
	             0.0148215180       -0.0077213892       -0.0103166619
	            -0.0206354945        0.0103016937        0.0368868719
	            -0.0069577599        0.0086870187        0.0057452923
	            -0.0118159110        0.0000622631        0.0055616564
	            -0.0410824604        0.0226697476       -0.0012069871
	            -0.0033632996        0.0112322764        0.0051461573
	            -0.0107061509       -0.0025036757        0.0049346037
	            -0.0074335426        0.0040342965       -0.0027587007
	             0.0036286050       -0.0014646217       -0.0041524621
	             0.0456553571       -0.0243283716       -0.0276282979
	             0.0398410345       -0.0221830485        0.0073643312
	             0.0098712496       -0.0056654635       -0.0064916616
	             0.0005617801       -0.0002477064       -0.0014679252
	            -0.0133510568        0.0074656487       -0.0033687644
	            -0.0037733908        0.0021589871       -0.0043197349
	            -0.0019934055        0.0012935848       -0.0087006696
	             0.0035348262        0.0049764162       -0.0003406277
	            -0.0020348547       -0.0052322713       -0.0007471405
	             0.0037131925       -0.0022677965        0.0070443162
	             0.0013908656        0.0005454574       -0.0004606011
	             0.0001288979       -0.0018130461       -0.0007229944

	Previous optimization step data not found.  Starting new optimization.

	---Fragment 1 Intrafragment Coordinates---
	 - Coordinate -           - BOHR/RAD -       - ANG/DEG -
	 R(1,2)           =         2.634350	       1.394038
	 R(1,8)           =         2.635962	       1.394891
	 R(1,15)          =         2.056795	       1.088409
	 R(2,10)          =         2.635830	       1.394821
	 R(2,16)          =         2.057067	       1.088553
	 R(3,6)           =         2.619225	       1.386034
	 R(3,9)           =         2.626612	       1.389943
	 R(3,17)          =         2.051749	       1.085739
	 R(4,7)           =         2.619543	       1.386202
	 R(4,9)           =         2.627378	       1.390349
	 R(4,18)          =         2.050347	       1.084997
	 R(5,10)          =         2.636938	       1.395407
	 R(5,11)          =         2.635263	       1.394521
	 R(5,19)          =         2.056874	       1.088451
	 R(6,12)          =         2.554776	       1.351929
	 R(6,20)          =         2.049482	       1.084539
	 R(7,12)          =         2.553426	       1.351215
	 R(7,21)          =         2.050807	       1.085240
	 R(8,9)           =         2.734263	       1.446909
	 R(8,11)          =         2.635830	       1.394821
	 R(10,13)         =         2.422221	       1.281784
	 R(11,14)         =         2.534359	       1.341125
	 B(1,2,10)        =         2.094553	     120.009056
	 B(1,2,16)        =         2.068903	     118.539404
	 B(1,8,9)         =         2.091392	     119.827938
	 B(1,8,11)        =         2.093692	     119.959722
	 B(2,1,8)         =         2.094940	     120.031219
	 B(2,1,15)        =         2.079908	     119.169966
	 B(2,10,5)        =         2.094306	     119.994870
	 B(2,10,13)       =         2.094719	     120.018581
	 B(3,6,12)        =         2.163962	     123.985882
	 B(3,6,20)        =         2.108824	     120.826722
	 B(3,9,4)         =         2.090193	     119.759252
	 B(3,9,8)         =         2.097003	     120.149433
	 B(4,7,12)        =         2.165169	     124.055027
	 B(4,7,21)        =         2.107017	     120.723189
	 B(4,9,8)         =         2.095989	     120.091297
	 B(5,10,13)       =         2.094160	     119.986548
	 B(5,11,8)        =         2.095181	     120.045019
	 B(5,11,14)       =         2.081414	     119.256220
	 B(6,3,9)         =         2.058296	     117.931648
	 B(6,3,17)        =         2.097528	     120.179513
	 B(6,12,7)        =         2.031604	     116.402316
	 B(7,4,9)         =         2.057147	     117.865822
	 B(7,4,18)        =         2.099411	     120.287417
	 B(8,1,15)        =         2.108336	     120.798746
	 B(8,11,14)       =         2.106591	     120.698759
	 B(9,3,17)        =         2.127360	     121.888757
	 B(9,4,18)        =         2.126627	     121.846744
	 B(9,8,11)        =         2.098101	     120.212327
	 B(10,2,16)       =         2.119728	     121.451467
	 B(10,5,11)       =         2.093699	     119.960108
	 B(10,5,19)       =         2.120101	     121.472852
	 B(11,5,19)       =         2.069385	     118.567038
	 B(12,6,20)       =         2.010399	     115.187381
	 B(12,7,21)       =         2.010997	     115.221660
	 D(1,2,10,5)      =        -0.000325	      -0.018609
	 D(1,2,10,13)     =         3.141392	     179.988520
	 D(1,8,9,3)       =         1.570491	      89.982509
	 D(1,8,9,4)       =        -1.571964	     -90.066925
	 D(1,8,11,5)      =         0.000325	       0.018608
	 D(1,8,11,14)     =        -3.141528	    -179.996269
	 D(2,1,8,9)       =        -3.141211	    -179.978157
	 D(2,1,8,11)      =        -0.000348	      -0.019945
	 D(2,10,5,11)     =         0.000301	       0.017261
	 D(2,10,5,19)     =        -3.141543	    -179.997173
	 D(3,6,12,7)      =        -0.001322	      -0.075742
	 D(3,9,4,7)       =         0.000547	       0.031345
	 D(3,9,4,18)      =         3.141329	     179.984867
	 D(3,9,8,11)      =        -1.570370	     -89.975597
	 D(4,7,12,6)      =         0.001388	       0.079510
	 D(4,9,3,6)       =        -0.000489	      -0.028043
	 D(4,9,3,17)      =        -3.140263	    -179.923794
	 D(4,9,8,11)      =         1.570359	      89.974969
	 D(5,10,2,16)     =         3.139529	     179.881752
	 D(5,11,8,9)      =         3.141185	     179.976658
	 D(6,3,9,8)       =         3.140243	     179.922688
	 D(6,12,7,21)     =         3.140747	     179.951532
	 D(7,4,9,8)       =        -3.140186	    -179.919415
	 D(7,12,6,20)     =         3.139490	     179.879533
	 D(8,1,2,10)      =         0.000348	       0.019955
	 D(8,1,2,16)      =        -3.139556	    -179.883288
	 D(8,9,3,17)      =         0.000470	       0.026937
	 D(8,9,4,18)      =         0.000595	       0.034107
	 D(8,11,5,10)     =        -0.000301	      -0.017270
	 D(8,11,5,19)     =         3.141536	     179.996748
	 D(9,3,6,12)      =         0.000912	       0.052243
	 D(9,3,6,20)      =        -3.139858	    -179.900626
	 D(9,4,7,12)      =        -0.001038	      -0.059452
	 D(9,4,7,21)      =        -3.140280	    -179.924772
	 D(9,8,1,15)      =         0.002066	       0.118384
	 D(9,8,11,14)     =        -0.000667	      -0.038219
	 D(10,2,1,15)     =         3.140283	     179.924984
	 D(10,5,11,14)    =         3.141547	     179.997392
	 D(11,5,10,13)    =        -3.141416	    -179.989865
	 D(11,8,1,15)     =        -3.140256	    -179.923403
	 D(12,6,3,17)     =         3.140717	     179.949848
	 D(12,7,4,18)     =         3.141353	     179.986270
	 D(13,10,2,16)    =        -0.001939	      -0.111119
	 D(13,10,5,19)    =        -0.000075	      -0.004300
	 D(14,11,5,19)    =         0.000199	       0.011410
	 D(15,1,2,16)     =         0.000379	       0.021741
	 D(17,3,6,20)     =        -0.000053	      -0.003020
	 D(18,4,7,21)     =         0.002111	       0.120950

	Current energy   :      -652.3153285137

	Generating empirical Hessian (Schlegel '84) for each fragment.
	Adding user-defined constraint: Fragment 1; Coordinate 59:
		Value =     1.570491; Fixed value    =     1.570796
		Force =     0.000153; Force constant =     0.500000
	Removing off-diagonal coupling between coordinate 59 and others.
	Taking RFO optimization step.
	Going to follow RFO solution 1.
	Using RFO vector 1.

	Determining step-restricting scale parameter for RS-RFO.
	Maximum step size allowed    0.10000

	 Iter      |step|        alpha        rfo_root  
	------------------------------------------------
	    0     0.23437       1.00000           1
	    1     0.16755      10.69557           1
	    2     0.12680      28.39937           1
	    3     0.10683      46.92465           1
	    4     0.10065      55.32329           1
	    5     0.10001      56.29246           1
	------------------------------------------------
	Norm of target step-size    0.10001
	Projected energy change by RFO approximation:        -0.0071312446

	Back-transformation to cartesian coordinates...
	Successfully converged to displaced geometry.

	--- Internal Coordinate Step in ANG or DEG, aJ/ANG or AJ/DEG ---
	 ---------------------------------------------------------------------------
	   Coordinate                Previous        Force       Change         New 
	   ----------                --------       ------       ------       ------
	    1 R(1,2)          =      1.394038    -0.036393    -0.002625     1.391413
	    2 R(1,8)          =      1.394891     0.014988     0.000757     1.395648
	    3 R(1,15)         =      1.088409    -0.035409    -0.003014     1.085395
	    4 R(2,10)         =      1.394821     0.209895     0.015915     1.410736
	    5 R(2,16)         =      1.088553    -0.055062    -0.004688     1.083865
	    6 R(3,6)          =      1.386034     0.015809     0.001140     1.387174
	    7 R(3,9)          =      1.389943    -0.003792    -0.000106     1.389837
	    8 R(3,17)         =      1.085739    -0.040740    -0.003454     1.082285
	    9 R(4,7)          =      1.386202     0.015215     0.001097     1.387300
	   10 R(4,9)          =      1.390349    -0.005862    -0.000258     1.390091
	   11 R(4,18)         =      1.084997    -0.036964    -0.003130     1.081867
	   12 R(5,10)         =      1.395407     0.195909     0.014840     1.410247
	   13 R(5,11)         =      1.394521    -0.096112    -0.007156     1.387365
	   14 R(5,19)         =      1.088451    -0.058274    -0.004961     1.083490
	   15 R(6,12)         =      1.351929    -0.112290    -0.007743     1.344187
	   16 R(6,20)         =      1.084539    -0.012667    -0.001072     1.083467
	   17 R(7,12)         =      1.351215    -0.109081    -0.007514     1.343701
	   18 R(7,21)         =      1.085240    -0.016035    -0.001358     1.083882
	   19 R(8,9)          =      1.446909     0.167530     0.013602     1.460512
	   20 R(8,11)         =      1.394821    -0.044652    -0.003708     1.391113
	   21 R(10,13)        =      1.281784     0.010258     0.000583     1.282368
	   22 R(11,14)        =      1.341125     0.121714     0.008026     1.349151
	   23 B(1,2,10)       =    120.009056     0.000594     0.770112   120.779168
	   24 B(1,2,16)       =    118.539404     0.000177     0.247104   118.786508
	   25 B(1,8,9)        =    119.827938     0.000598     0.750247   120.578185
	   26 B(1,8,11)       =    119.959722    -0.000981    -1.253327   118.706394
	   27 B(2,1,8)        =    120.031219     0.000661     0.737292   120.768511
	   28 B(2,1,15)       =    119.169966     0.000011     0.087320   119.257286
	   29 B(2,10,5)       =    119.994870    -0.001919    -2.114466   117.880404
	   30 B(2,10,13)      =    120.018581     0.001051     1.162249   121.180831
	   31 B(3,6,12)       =    123.985882     0.000058     0.037223   124.023106
	   32 B(3,6,20)       =    120.826722    -0.000051    -0.047793   120.778929
	   33 B(3,9,4)        =    119.759252    -0.001243    -1.386982   118.372270
	   34 B(3,9,8)        =    120.149433     0.000615     0.686070   120.835502
	   35 B(4,7,12)       =    124.055027     0.000042     0.017323   124.072350
	   36 B(4,7,21)       =    120.723189    -0.000033    -0.025315   120.697874
	   37 B(4,9,8)        =    120.091297     0.000628     0.700926   120.792223
	   38 B(5,10,13)      =    119.986548     0.000868     0.952217   120.938765
	   39 B(5,11,8)       =    120.045019     0.001172     1.264630   121.309649
	   40 B(5,11,14)      =    119.256220    -0.000084    -0.055101   119.201119
	   41 B(6,3,9)        =    117.931648     0.000595     0.736349   118.667997
	   42 B(6,3,17)       =    120.179513    -0.000017     0.005985   120.185498
	   43 B(6,12,7)       =    116.402316    -0.000063    -0.159022   116.243293
	   44 B(7,4,9)        =    117.865822     0.000611     0.755121   118.620943
	   45 B(7,4,18)       =    120.287417    -0.000036    -0.018255   120.269162
	   46 B(8,1,15)       =    120.798746    -0.000672    -0.824603   119.974143
	   47 B(8,11,14)      =    120.698759    -0.001088    -1.209528   119.489231
	   48 B(9,3,17)       =    121.888757    -0.000578    -0.742316   121.146441
	   49 B(9,4,18)       =    121.846744    -0.000575    -0.736861   121.109884
	   50 B(9,8,11)       =    120.212327     0.000383     0.503084   120.715411
	   51 B(10,2,16)      =    121.451467    -0.000771    -1.017209   120.434258
	   52 B(10,5,11)      =    119.960108     0.000473     0.595762   120.555870
	   53 B(10,5,19)      =    121.472852    -0.000573    -0.747089   120.725763
	   54 B(11,5,19)      =    118.567038     0.000100     0.151328   118.718366
	   55 B(12,6,20)      =    115.187381    -0.000007     0.010568   115.197949
	   56 B(12,7,21)      =    115.221660    -0.000008     0.008022   115.229682
	   57 D(1,2,10,5)     =     -0.018609    -0.000000    -0.000316    -0.018925
	   58 D(1,2,10,13)    =    179.988520    -0.000000    -0.000040   179.988480
	   59 D(1,8,9,3)      =     89.982509    -0.000000    -0.000323    89.982185
	   60 D(1,8,9,4)      =    -90.066925     0.000003     0.023313   -90.043611
	   61 D(1,8,11,5)     =      0.018608    -0.000001    -0.004232     0.014375
	   62 D(1,8,11,14)    =   -179.996269    -0.000000    -0.002545  -179.998814
	   63 D(2,1,8,9)      =   -179.978157    -0.000000    -0.002488  -179.980645
	   64 D(2,1,8,11)     =     -0.019945     0.000001     0.004555    -0.015390
	   65 D(2,10,5,11)    =      0.017261     0.000000     0.000535     0.017796
	   66 D(2,10,5,19)    =   -179.997173     0.000000     0.001096  -179.996078
	   67 D(3,6,12,7)     =     -0.075742     0.000001     0.004426    -0.071316
	   68 D(3,9,4,7)      =      0.031345    -0.000002    -0.017841     0.013504
	   69 D(3,9,4,18)     =    179.984867    -0.000001    -0.009659   179.975208
	   70 D(3,9,8,11)     =    -89.975597    -0.000001    -0.006770   -89.982367
	   71 D(4,7,12,6)     =      0.079510    -0.000001    -0.006382     0.073128
	   72 D(4,9,3,6)      =     -0.028043     0.000002     0.016131    -0.011912
	   73 D(4,9,3,17)     =   -179.923794     0.000000     0.003776  -179.920018
	   74 D(4,9,8,11)     =     89.974969     0.000002     0.016866    89.991836
	   75 D(5,10,2,16)    =    179.881752     0.000001     0.004877   179.886629
	   76 D(5,11,8,9)     =    179.976658     0.000000     0.002923   179.979581
	   77 D(6,3,9,8)      =    179.922688     0.000005     0.040215   179.962903
	   78 D(6,12,7,21)    =    179.951532     0.000001     0.010362   179.961895
	   79 D(7,4,9,8)      =   -179.919415    -0.000005    -0.041906  -179.961322
	   80 D(7,12,6,20)    =    179.879533     0.000000     0.002813   179.882346
	   81 D(8,1,2,10)     =      0.019955    -0.000000    -0.001820     0.018135
	   82 D(8,1,2,16)     =   -179.883288    -0.000001    -0.005663  -179.888951
	   83 D(8,9,3,17)     =      0.026937     0.000004     0.027859     0.054797
	   84 D(8,9,4,18)     =      0.034107    -0.000004    -0.034107     0.000000
	   85 D(8,11,5,10)    =     -0.017270     0.000000     0.001288    -0.015982
	   86 D(8,11,5,19)    =    179.996748     0.000000     0.000870   179.997617
	   87 D(9,3,6,12)     =      0.052243    -0.000001    -0.009307     0.042936
	   88 D(9,3,6,20)     =   -179.900626    -0.000001    -0.007635  -179.908261
	   89 D(9,4,7,12)     =     -0.059452     0.000002     0.013021    -0.046430
	   90 D(9,4,7,21)     =   -179.924772    -0.000001    -0.004639  -179.929410
	   91 D(9,8,1,15)     =      0.118384    -0.000001    -0.008472     0.109912
	   92 D(9,8,11,14)    =     -0.038219     0.000001     0.004611    -0.033608
	   93 D(10,2,1,15)    =    179.924984     0.000000     0.003235   179.928219
	   94 D(10,5,11,14)   =    179.997392    -0.000000    -0.000222   179.997170
	   95 D(11,5,10,13)   =   -179.989865     0.000000     0.000275  -179.989590
	   96 D(11,8,1,15)    =   -179.923403    -0.000000    -0.001429  -179.924833
	   97 D(12,6,3,17)    =    179.949848     0.000000     0.002103   179.951952
	   98 D(12,7,4,18)    =    179.986270     0.000001     0.005264   179.991534
	   99 D(13,10,2,16)   =     -0.111119     0.000001     0.005154    -0.105965
	  100 D(13,10,5,19)   =     -0.004300     0.000000     0.000836    -0.003464
	  101 D(14,11,5,19)   =      0.011410    -0.000000    -0.000640     0.010770
	  102 D(15,1,2,16)    =      0.021741    -0.000000    -0.000607     0.021134
	  103 D(17,3,6,20)    =     -0.003020     0.000000     0.003020     0.000000
	  104 D(18,4,7,21)    =      0.120950    -0.000002    -0.012396     0.108554
	 ---------------------------------------------------------------------------
	Successfully symmetrized geometry.
	 Forces used to impose fixed constraints are not included.
	  Forces zeroed: 59 

  ==> Convergence Check <==

  Measures of convergence in internal coordinates in au.
  Criteria marked as inactive (o), active & met (*), and active & unmet ( ).
  --------------------------------------------------------------------------------------------- ~
   Step     Total Energy     Delta E     MAX Force     RMS Force      MAX Disp      RMS Disp    ~
  --------------------------------------------------------------------------------------------- ~
    Convergence Criteria    1.00e-06 *    3.00e-04 *             o    1.20e-03 *             o  ~
  --------------------------------------------------------------------------------------------- ~
      1    -652.31532851   -6.52e+02      2.55e-02      7.13e-03 o    3.69e-02      9.81e-03 o  ~
  ---------------------------------------------------------------------------------------------

	Writing optimization data to binary file.
	Structure for next step:
	Cartesian Geometry (in Angstrom)
	    C    -1.3599831250   0.7748967417  -0.7704979878
	    C    -2.4373420367   1.3477134754  -0.1017607309
	    C     1.9390621799   0.3288868654  -1.0794460603
	    C     0.7864429690  -1.7608935848  -1.1461686427
	    C    -1.4398421806   0.7294935176   2.0106904775
	    C     2.9856797230  -0.2863775079  -1.7504846876
	    C     1.8838460549  -2.2842745515  -1.8142851845
	    C    -0.3166839932   0.1763884439  -0.0625788947
	    C     0.8123918298  -0.4232674335  -0.7687623814
	    C    -2.5004069184   1.3374091587   1.3075277773
	    C    -0.3735006417   0.1631996860   1.3273106703
	    N     2.9830825062  -1.5770803223  -2.1258739718
	    O    -3.4895235821   1.8632332823   1.9317261761
	    F     0.6265531414  -0.4111637416   2.0274587667
	    H    -1.3372637372   0.7957217161  -1.8554550493
	    H    -3.2308786955   1.8022375368  -0.6835428976
	    H     2.0075064737   1.3737696494  -0.8058102977
	    H    -0.0678793445  -2.3872216025  -0.9264362329
	    H    -1.4412169658   0.6955115852   3.0936463137
	    H     3.8806373940   0.2672135664  -2.0083390928
	    H     1.8989530616  -3.3225259430  -2.1250993357
			--------------------------
			 OPTKING Finished Execution 
			--------------------------

    Structure for next step:
    Molecular point group: c1
    Full point group: C1

    Geometry (in Angstrom), charge = -1, multiplicity = 1:

    C           -1.356475605012     0.772963396625    -0.771101230561
    C           -2.433834516706     1.345780130341    -0.102363973679
    C            1.942569699909     0.326953520334    -1.080049303086
    C            0.789950488974    -1.762826929833    -1.146771885490
    C           -1.436334660601     0.727560172559     2.010087234674
    C            2.989187242953    -0.288310852925    -1.751087930417
    C            1.887353574847    -2.286207896534    -1.814888427311
    C           -0.313176473238     0.174455098870    -0.063182137485
    C            0.815899349744    -0.425200778524    -0.769365624221
    C           -2.496899398375     1.335475813622     1.306924534482
    C           -0.369993121723     0.161266340956     1.326707427504
    N            2.986590026165    -1.579013667389    -2.126477214619
    O           -3.486016062066     1.861299937270     1.931122933358
    F            0.630060661405    -0.413097086608     2.026855523931
    H           -1.333756217233     0.793788371024    -1.856058292137
    H           -3.227371175486     1.800304191800    -0.684146140422
    H            2.011013993675     1.371836304318    -0.806413540516
    H           -0.064371824497    -2.389154947592    -0.927039475701
    H           -1.437709445796     0.693578240111     3.093043070867
    H            3.884144914033     0.265280221309    -2.008942335639
    H            1.902460581605    -3.324459288019    -2.125702578529

gradient() will perform analytic gradient computation.

*** tstart() called on gpu-2-9.local
*** at Sat Nov 11 18:56:53 2017

    SCF Algorithm Type (re)set to DF.

*** tstart() called on gpu-2-9.local
*** at Sat Nov 11 18:56:53 2017

   => Loading Basis Set <=

    Name: AUG-CC-PVTZ
    Role: ORBITAL
    Keyword: BASIS
    atoms 1-11  entry C          line   221 file /cbio/jclab/home/chayas/anaconda/envs/py35/share/psi4/basis/aug-cc-pvtz.gbs 
    atoms 12    entry N          line   267 file /cbio/jclab/home/chayas/anaconda/envs/py35/share/psi4/basis/aug-cc-pvtz.gbs 
    atoms 13    entry O          line   313 file /cbio/jclab/home/chayas/anaconda/envs/py35/share/psi4/basis/aug-cc-pvtz.gbs 
    atoms 14    entry F          line   359 file /cbio/jclab/home/chayas/anaconda/envs/py35/share/psi4/basis/aug-cc-pvtz.gbs 
    atoms 15-21 entry H          line    34 file /cbio/jclab/home/chayas/anaconda/envs/py35/share/psi4/basis/aug-cc-pvtz.gbs 


         ---------------------------------------------------------
                                   SCF
            by Justin Turney, Rob Parrish, and Andy Simmonett
                              RHF Reference
                        8 Threads,   4768 MiB Core
         ---------------------------------------------------------

  ==> Geometry <==

    Molecular point group: c1
    Full point group: C1

    Geometry (in Angstrom), charge = -1, multiplicity = 1:

       Center              X                  Y                   Z               Mass       
    ------------   -----------------  -----------------  -----------------  -----------------
           C         -1.356475605012     0.772963396625    -0.771101230561    12.000000000000
           C         -2.433834516706     1.345780130341    -0.102363973679    12.000000000000
           C          1.942569699909     0.326953520334    -1.080049303086    12.000000000000
           C          0.789950488974    -1.762826929833    -1.146771885490    12.000000000000
           C         -1.436334660601     0.727560172559     2.010087234674    12.000000000000
           C          2.989187242953    -0.288310852925    -1.751087930417    12.000000000000
           C          1.887353574847    -2.286207896534    -1.814888427311    12.000000000000
           C         -0.313176473238     0.174455098870    -0.063182137485    12.000000000000
           C          0.815899349744    -0.425200778524    -0.769365624221    12.000000000000
           C         -2.496899398375     1.335475813622     1.306924534482    12.000000000000
           C         -0.369993121723     0.161266340956     1.326707427504    12.000000000000
           N          2.986590026165    -1.579013667389    -2.126477214619    14.003074004780
           O         -3.486016062066     1.861299937270     1.931122933358    15.994914619560
           F          0.630060661405    -0.413097086608     2.026855523931    18.998403224000
           H         -1.333756217233     0.793788371024    -1.856058292137     1.007825032070
           H         -3.227371175486     1.800304191800    -0.684146140422     1.007825032070
           H          2.011013993675     1.371836304318    -0.806413540516     1.007825032070
           H         -0.064371824497    -2.389154947592    -0.927039475701     1.007825032070
           H         -1.437709445796     0.693578240111     3.093043070867     1.007825032070
           H          3.884144914033     0.265280221309    -2.008942335639     1.007825032070
           H          1.902460581605    -3.324459288019    -2.125702578529     1.007825032070

  Running in c1 symmetry.

  Rotational constants: A =      0.06404  B =      0.01292  C =      0.01203 [cm^-1]
  Rotational constants: A =   1919.91731  B =    387.44341  C =    360.69243 [MHz]
  Nuclear repulsion =  798.483169275376667

  Charge       = -1
  Multiplicity = 1
  Electrons    = 98
  Nalpha       = 49
  Nbeta        = 49

  ==> Algorithm <==

  SCF Algorithm Type is DF.
  DIIS enabled.
  MOM disabled.
  Fractional occupation disabled.
  Guess Type is READ.
  Energy threshold   = 1.00e-10
  Density threshold  = 1.00e-10
  Integral threshold = 0.00e+00

  ==> Primary Basis <==

  Basis Set: AUG-CC-PVTZ
    Blend: AUG-CC-PVTZ
    Number of shells: 259
    Number of basis function: 805
    Number of Cartesian functions: 945
    Spherical Harmonics?: true
    Max angular momentum: 3

   => Loading Basis Set <=

    Name: (AUG-CC-PVTZ AUX)
    Role: JKFIT
    Keyword: DF_BASIS_SCF
    atoms 1-11  entry C          line   161 file /cbio/jclab/home/chayas/anaconda/envs/py35/share/psi4/basis/aug-cc-pvtz-jkfit.gbs 
    atoms 12    entry N          line   223 file /cbio/jclab/home/chayas/anaconda/envs/py35/share/psi4/basis/aug-cc-pvtz-jkfit.gbs 
    atoms 13    entry O          line   285 file /cbio/jclab/home/chayas/anaconda/envs/py35/share/psi4/basis/aug-cc-pvtz-jkfit.gbs 
    atoms 14    entry F          line   347 file /cbio/jclab/home/chayas/anaconda/envs/py35/share/psi4/basis/aug-cc-pvtz-jkfit.gbs 
    atoms 15-21 entry H          line    69 file /cbio/jclab/home/chayas/anaconda/envs/py35/share/psi4/basis/aug-cc-pvtz-jkfit.gbs 

  Reading orbitals from file 180, no projection.

  ==> Pre-Iterations <==

   -------------------------------------------------------
    Irrep   Nso     Nmo     Nalpha   Nbeta   Ndocc  Nsocc
   -------------------------------------------------------
     A        805     805       0       0       0       0
   -------------------------------------------------------
    Total     805     805      49      49      49       0
   -------------------------------------------------------

  ==> Integral Setup <==

  ==> DFJK: Density-Fitted J/K Matrices <==

    J tasked:                  Yes
    K tasked:                  Yes
    wK tasked:                  No
    OpenMP threads:              8
    Integrals threads:           8
    Memory (MB):              3576
    Algorithm:                Disk
    Integral Cache:           NONE
    Schwarz Cutoff:          1E-12
    Fitting Condition:       1E-12

   => Auxiliary Basis Set <=

  Basis Set: (AUG-CC-PVTZ AUX)
    Blend: AUG-CC-PVTZ-JKFIT
    Number of shells: 518
    Number of basis function: 1778
    Number of Cartesian functions: 2219
    Spherical Harmonics?: true
    Max angular momentum: 4

  Minimum eigenvalue in the overlap matrix is 8.3717293624E-07.
  Using Symmetric Orthogonalization.

  SCF Guess: Orbitals guess was supplied from a previous computation.

  ==> Iterations <==

                           Total Energy        Delta E     RMS |[F,P]|

   @DF-RHF iter   0:  -649.66266379406682   -6.49663e+02   4.54356e-04 
   @DF-RHF iter   1:  -649.61121152019246    5.14523e-02   7.51211e-05 
   @DF-RHF iter   2:  -649.61154303028445   -3.31510e-04   5.54508e-05 DIIS
   @DF-RHF iter   3:  -649.61168031259172   -1.37282e-04   7.36103e-06 DIIS
   @DF-RHF iter   4:  -649.61168444195107   -4.12936e-06   2.59841e-06 DIIS
   @DF-RHF iter   5:  -649.61168573417467   -1.29222e-06   9.38879e-07 DIIS
   @DF-RHF iter   6:  -649.61168603452165   -3.00347e-07   8.16949e-07 DIIS
   @DF-RHF iter   7:  -649.61168613390510   -9.93834e-08   2.76995e-07 DIIS
   @DF-RHF iter   8:  -649.61168616173995   -2.78349e-08   1.01724e-07 DIIS
   @DF-RHF iter   9:  -649.61168616614350   -4.40355e-09   6.72244e-08 DIIS
   @DF-RHF iter  10:  -649.61168616695011   -8.06608e-10   1.99152e-08 DIIS
   @DF-RHF iter  11:  -649.61168616700775   -5.76392e-11   6.68696e-09 DIIS
   @DF-RHF iter  12:  -649.61168616703105   -2.33058e-11   2.04752e-09 DIIS
   @DF-RHF iter  13:  -649.61168616702628    4.77485e-12   1.09421e-09 DIIS
   @DF-RHF iter  14:  -649.61168616703310   -6.82121e-12   4.87054e-10 DIIS
   @DF-RHF iter  15:  -649.61168616701116    2.19416e-11   2.12479e-10 DIIS
   @DF-RHF iter  16:  -649.61168616702935   -1.81899e-11   8.85631e-11 DIIS

  ==> Post-Iterations <==

    Orbital Energies (a.u.)
    -----------------------

    Doubly Occupied:                                                      

       1A    -26.179991     2A    -20.298950     3A    -15.466257  
       4A    -11.185010     5A    -11.174670     6A    -11.174649  
       7A    -11.151944     8A    -11.131122     9A    -11.131066  
      10A    -11.122652    11A    -11.105069    12A    -11.080759  
      13A    -11.060024    14A    -11.059925    15A     -1.496925  
      16A     -1.155103    17A     -1.127568    18A     -1.023220  
      19A     -0.966424    20A     -0.932234    21A     -0.868425  
      22A     -0.846134    23A     -0.754627    24A     -0.742052  
      25A     -0.698282    26A     -0.672357    27A     -0.610631  
      28A     -0.574281    29A     -0.569758    30A     -0.556821  
      31A     -0.554797    32A     -0.547463    33A     -0.504113  
      34A     -0.496317    35A     -0.468502    36A     -0.455651  
      37A     -0.437469    38A     -0.420037    39A     -0.415113  
      40A     -0.377117    41A     -0.372547    42A     -0.357703  
      43A     -0.319665    44A     -0.286420    45A     -0.268568  
      46A     -0.248374    47A     -0.216420    48A     -0.196578  
      49A     -0.115934  

    Virtual:                                                              

      50A      0.096376    51A      0.099234    52A      0.113265  
      53A      0.119359    54A      0.124759    55A      0.127206  
      56A      0.130018    57A      0.151728    58A      0.164613  
      59A      0.173760    60A      0.182085    61A      0.183476  
      62A      0.183831    63A      0.186338    64A      0.188462  
      65A      0.192459    66A      0.196106    67A      0.197965  
      68A      0.207986    69A      0.208352    70A      0.213154  
      71A      0.216682    72A      0.220468    73A      0.223156  
      74A      0.225920    75A      0.228230    76A      0.231154  
      77A      0.234279    78A      0.240892    79A      0.243253  
      80A      0.253754    81A      0.254204    82A      0.257367  
      83A      0.263933    84A      0.267902    85A      0.275958  
      86A      0.283955    87A      0.291843    88A      0.294720  
      89A      0.295742    90A      0.299575    91A      0.305806  
      92A      0.314598    93A      0.317264    94A      0.318719  
      95A      0.328096    96A      0.333133    97A      0.334672  
      98A      0.335043    99A      0.336961   100A      0.344962  
     101A      0.348068   102A      0.352461   103A      0.356967  
     104A      0.365315   105A      0.366116   106A      0.371662  
     107A      0.383724   108A      0.390917   109A      0.392579  
     110A      0.393954   111A      0.398441   112A      0.402185  
     113A      0.407597   114A      0.408359   115A      0.408648  
     116A      0.411962   117A      0.418415   118A      0.425163  
     119A      0.429593   120A      0.430684   121A      0.447656  
     122A      0.450856   123A      0.453997   124A      0.458346  
     125A      0.464029   126A      0.472115   127A      0.472529  
     128A      0.479383   129A      0.486335   130A      0.487038  
     131A      0.493917   132A      0.495011   133A      0.507680  
     134A      0.509920   135A      0.512537   136A      0.514930  
     137A      0.520072   138A      0.523510   139A      0.531232  
     140A      0.536296   141A      0.544367   142A      0.552083  
     143A      0.554855   144A      0.557535   145A      0.559257  
     146A      0.573521   147A      0.574303   148A      0.576853  
     149A      0.577461   150A      0.581078   151A      0.584766  
     152A      0.585491   153A      0.590636   154A      0.590725  
     155A      0.599046   156A      0.600296   157A      0.602281  
     158A      0.608896   159A      0.615167   160A      0.619878  
     161A      0.621778   162A      0.622207   163A      0.625314  
     164A      0.626974   165A      0.636603   166A      0.642700  
     167A      0.644590   168A      0.652145   169A      0.658513  
     170A      0.659652   171A      0.667873   172A      0.673196  
     173A      0.677061   174A      0.685377   175A      0.689471  
     176A      0.691660   177A      0.696770   178A      0.699455  
     179A      0.705307   180A      0.709877   181A      0.714229  
     182A      0.724600   183A      0.731616   184A      0.732915  
     185A      0.735121   186A      0.736463   187A      0.743140  
     188A      0.750407   189A      0.758670   190A      0.767579  
     191A      0.769031   192A      0.776533   193A      0.785539  
     194A      0.793509   195A      0.795741   196A      0.811314  
     197A      0.824492   198A      0.824930   199A      0.828007  
     200A      0.831587   201A      0.838702   202A      0.839899  
     203A      0.841391   204A      0.846682   205A      0.854126  
     206A      0.856437   207A      0.856671   208A      0.869332  
     209A      0.871348   210A      0.881205   211A      0.889979  
     212A      0.893471   213A      0.894085   214A      0.901636  
     215A      0.901659   216A      0.920325   217A      0.920687  
     218A      0.934826   219A      0.935760   220A      0.948370  
     221A      0.951349   222A      0.958202   223A      0.974841  
     224A      0.980463   225A      0.984268   226A      0.984596  
     227A      0.997289   228A      1.005762   229A      1.008372  
     230A      1.012391   231A      1.016864   232A      1.022528  
     233A      1.022811   234A      1.024921   235A      1.033768  
     236A      1.035418   237A      1.039220   238A      1.039630  
     239A      1.046178   240A      1.053370   241A      1.053658  
     242A      1.059596   243A      1.059660   244A      1.064840  
     245A      1.069214   246A      1.083810   247A      1.088945  
     248A      1.090243   249A      1.092025   250A      1.097135  
     251A      1.098277   252A      1.106922   253A      1.111508  
     254A      1.115028   255A      1.119697   256A      1.131893  
     257A      1.137650   258A      1.142942   259A      1.145139  
     260A      1.149919   261A      1.158079   262A      1.159427  
     263A      1.163693   264A      1.163916   265A      1.168140  
     266A      1.170571   267A      1.176947   268A      1.183195  
     269A      1.184854   270A      1.193902   271A      1.197920  
     272A      1.202673   273A      1.211136   274A      1.213374  
     275A      1.216772   276A      1.224412   277A      1.229678  
     278A      1.229890   279A      1.245461   280A      1.246888  
     281A      1.250583   282A      1.255193   283A      1.262717  
     284A      1.266382   285A      1.274036   286A      1.279148  
     287A      1.280744   288A      1.292414   289A      1.295756  
     290A      1.306471   291A      1.309173   292A      1.316148  
     293A      1.317876   294A      1.325247   295A      1.327425  
     296A      1.339222   297A      1.343408   298A      1.346404  
     299A      1.346990   300A      1.355103   301A      1.356313  
     302A      1.364427   303A      1.368290   304A      1.378451  
     305A      1.387108   306A      1.390253   307A      1.392073  
     308A      1.395465   309A      1.396478   310A      1.399931  
     311A      1.413852   312A      1.414753   313A      1.425948  
     314A      1.433645   315A      1.437991   316A      1.446394  
     317A      1.447888   318A      1.454391   319A      1.466140  
     320A      1.478089   321A      1.482969   322A      1.492624  
     323A      1.497020   324A      1.507690   325A      1.510318  
     326A      1.514888   327A      1.525339   328A      1.530808  
     329A      1.543439   330A      1.545719   331A      1.550369  
     332A      1.555817   333A      1.582220   334A      1.587095  
     335A      1.592251   336A      1.595469   337A      1.603005  
     338A      1.614786   339A      1.621384   340A      1.626663  
     341A      1.640076   342A      1.648531   343A      1.655727  
     344A      1.669102   345A      1.672713   346A      1.682638  
     347A      1.695373   348A      1.697568   349A      1.707324  
     350A      1.719697   351A      1.721699   352A      1.730163  
     353A      1.740549   354A      1.744215   355A      1.752007  
     356A      1.763450   357A      1.768647   358A      1.782553  
     359A      1.793345   360A      1.794556   361A      1.797341  
     362A      1.800486   363A      1.810468   364A      1.822578  
     365A      1.830884   366A      1.832022   367A      1.844505  
     368A      1.848645   369A      1.857759   370A      1.860572  
[...]
	 R(4,7)           =         2.620193	       1.386546
	 R(4,9)           =         2.631321	       1.392435
	 R(4,18)          =         2.040813	       1.079952
	 R(5,10)          =         2.709840	       1.433985
	 R(5,11)          =         2.590413	       1.370787
	 R(5,19)          =         2.039467	       1.079239
	 R(6,12)          =         2.526408	       1.336917
	 R(6,20)          =         2.044979	       1.082156
	 R(7,12)          =         2.526369	       1.336897
	 R(7,21)          =         2.044984	       1.082159
	 R(8,9)           =         2.766493	       1.463965
	 R(8,11)          =         2.622258	       1.387639
	 R(10,13)         =         2.390639	       1.265072
	 R(11,14)         =         2.594655	       1.373032
	 B(1,2,10)        =         2.144899	     122.893653
	 B(1,2,16)        =         2.093563	     119.952332
	 B(1,8,9)         =         2.137908	     122.493119
	 B(1,8,11)        =         2.011055	     115.224982
	 B(2,1,8)         =         2.134574	     122.302060
	 B(2,1,15)        =         2.087091	     119.581495
	 B(2,10,5)        =         1.982004	     113.560452
	 B(2,10,13)       =         2.154116	     123.421780
	 B(3,6,12)        =         2.160969	     123.814431
	 B(3,6,20)        =         2.096845	     120.140384
	 B(3,9,4)         =         2.024535	     115.997302
	 B(3,9,8)         =         2.129323	     122.001206
	 B(4,7,12)        =         2.160950	     123.813342
	 B(4,7,21)        =         2.096856	     120.141028
	 B(4,9,8)         =         2.129235	     121.996203
	 B(5,10,13)       =         2.147065	     123.017763
	 B(5,11,8)        =         2.171008	     124.389577
	 B(5,11,14)       =         2.066438	     118.398178
	 B(6,3,9)         =         2.096140	     120.099966
	 B(6,3,17)        =         2.103115	     120.499590
	 B(6,12,7)        =         2.027624	     116.174292
	 B(7,4,9)         =         2.096145	     120.100247
	 B(7,4,18)        =         2.103124	     120.500124
	 B(8,1,15)        =         2.061521	     118.116443
	 B(8,11,14)       =         2.045739	     117.212238
	 B(9,3,17)        =         2.083931	     119.400442
	 B(9,4,18)        =         2.083917	     119.399627
	 B(9,8,11)        =         2.134219	     122.281729
	 B(10,2,16)       =         2.044723	     117.154015
	 B(10,5,11)       =         2.122831	     121.629245
	 B(10,5,19)       =         2.073797	     118.819792
	 B(11,5,19)       =         2.086558	     119.550963
	 B(12,6,20)       =         2.025370	     116.045178
	 B(12,7,21)       =         2.025378	     116.045618
	 D(1,2,10,5)      =         0.000513	       0.029369
	 D(1,2,10,13)     =        -3.141534	    -179.996625
	 D(1,8,9,3)       =         1.570957	      90.009210
	 D(1,8,9,4)       =        -1.555446	     -89.120471
	 D(1,8,11,5)      =         0.001190	       0.068153
	 D(1,8,11,14)     =        -3.140953	    -179.963349
	 D(2,1,8,9)       =        -3.139794	    -179.896916
	 D(2,1,8,11)      =        -0.000770	      -0.044131
	 D(2,10,5,11)     =        -0.000124	      -0.007111
	 D(2,10,5,19)     =         3.141434	     179.990914
	 D(3,6,12,7)      =        -0.002531	      -0.144989
	 D(3,9,4,7)       =        -0.003272	      -0.187461
	 D(3,9,4,18)      =         3.137996	     179.793923
	 D(3,9,8,11)      =        -1.567886	     -89.833265
	 D(4,7,12,6)      =         0.002365	       0.135477
	 D(4,9,3,6)       =         0.003119	       0.178683
	 D(4,9,3,17)      =        -3.138289	    -179.810713
	 D(4,9,8,11)      =         1.588896	      91.037053
	 D(5,10,2,16)     =        -3.140875	    -179.958894
	 D(5,11,8,9)      =         3.140219	     179.921283
	 D(6,3,9,8)       =        -3.124142	    -179.000125
	 D(6,12,7,21)     =        -3.139959	    -179.906413
	 D(7,4,9,8)       =         3.123989	     178.991392
	 D(7,12,6,20)     =         3.139587	     179.885063
	 D(8,1,2,10)      =        -0.000059	      -0.003382
	 D(8,1,2,16)      =         3.141323	     179.984565
	 D(8,9,3,17)      =         0.017636	       1.010479
	 D(8,9,4,18)      =        -0.017928	      -1.027224
	 D(8,11,5,10)     =        -0.000763	      -0.043701
	 D(8,11,5,19)     =         3.140865	     179.958288
	 D(9,3,6,12)      =        -0.000234	      -0.013414
	 D(9,3,6,20)      =         3.140814	     179.955365
	 D(9,4,7,12)      =         0.000565	       0.032383
	 D(9,4,7,21)      =        -3.140268	    -179.924098
	 D(9,8,1,15)      =         0.001501	       0.086022
	 D(9,8,11,14)     =        -0.001924	      -0.110220
	 D(10,2,1,15)     =        -3.141350	    -179.986078
	 D(10,5,11,14)    =         3.141386	     179.988147
	 D(11,5,10,13)    =        -3.141265	    -179.981236
	 D(11,8,1,15)     =         3.140525	     179.938808
	 D(12,6,3,17)     =         3.141171	     179.975864
	 D(12,7,4,18)     =        -3.140699	    -179.948795
	 D(13,10,2,16)    =         0.000264	       0.015112
	 D(13,10,5,19)    =         0.000293	       0.016788
	 D(14,11,5,19)    =        -0.000172	      -0.009863
	 D(15,1,2,16)     =         0.000033	       0.001869
	 D(17,3,6,20)     =        -0.000966	      -0.055357
	 D(18,4,7,21)     =         0.001653	       0.094725

	Current energy   :      -652.3254851222

	Energy change for the previous step:
		Projected    :        -0.0000011583
		Actual       :        -0.0000003727

	Performing BFGS update.
	Previous computed or guess Hessian on step 1.
	Steps to be used in Hessian update: 6 5
	Adding user-defined constraint: Fragment 1; Coordinate 59:
		Value =     1.570957; Fixed value    =     1.570800
		Force =    -0.000102; Force constant =     0.650000
	Removing off-diagonal coupling between coordinate 59 and others.
	Taking RFO optimization step.
	Going to follow RFO solution 1.
	Using RFO vector 1.
	Norm of target step-size    0.00369
	Projected energy change by RFO approximation:        -0.0000000488

	Back-transformation to cartesian coordinates...
	Successfully converged to displaced geometry.

	--- Internal Coordinate Step in ANG or DEG, aJ/ANG or AJ/DEG ---
	 ---------------------------------------------------------------------------
	   Coordinate                Previous        Force       Change         New 
	   ----------                --------       ------       ------       ------
	    1 R(1,2)          =      1.379856     0.000089     0.000005     1.379861
	    2 R(1,8)          =      1.400282     0.000128     0.000039     1.400321
	    3 R(1,15)         =      1.083343    -0.000067    -0.000013     1.083330
	    4 R(2,10)         =      1.435015     0.000155     0.000008     1.435023
	    5 R(2,16)         =      1.081219    -0.000059    -0.000013     1.081206
	    6 R(3,6)          =      1.386519     0.000098     0.000002     1.386521
	    7 R(3,9)          =      1.392437    -0.000148    -0.000022     1.392415
	    8 R(3,17)         =      1.079949    -0.000043    -0.000008     1.079941
	    9 R(4,7)          =      1.386546     0.000145     0.000012     1.386559
	   10 R(4,9)          =      1.392435    -0.000178    -0.000026     1.392409
	   11 R(4,18)         =      1.079952    -0.000036    -0.000006     1.079945
	   12 R(5,10)         =      1.433985    -0.000057    -0.000056     1.433929
	   13 R(5,11)         =      1.370787     0.000025     0.000003     1.370791
	   14 R(5,19)         =      1.079239    -0.000042    -0.000016     1.079223
	   15 R(6,12)         =      1.336917    -0.000221    -0.000018     1.336899
	   16 R(6,20)         =      1.082156    -0.000044    -0.000007     1.082149
	   17 R(7,12)         =      1.336897    -0.000271    -0.000027     1.336870
	   18 R(7,21)         =      1.082159    -0.000044    -0.000007     1.082152
	   19 R(8,9)          =      1.463965     0.000529     0.000069     1.464034
	   20 R(8,11)         =      1.387639    -0.000141    -0.000059     1.387580
	   21 R(10,13)        =      1.265072     0.000564     0.000057     1.265129
	   22 R(11,14)        =      1.373032     0.000208     0.000100     1.373132
	   23 B(1,2,10)       =    122.893653     0.000000     0.002313   122.895966
	   24 B(1,2,16)       =    119.952332    -0.000000     0.001734   119.954066
	   25 B(1,8,9)        =    122.493119    -0.000002    -0.012644   122.480474
	   26 B(1,8,11)       =    115.224982    -0.000000    -0.002529   115.222452
	   27 B(2,1,8)        =    122.302060    -0.000000    -0.003789   122.298270
	   28 B(2,1,15)       =    119.581495     0.000000     0.004431   119.585926
	   29 B(2,10,5)       =    113.560452    -0.000001     0.000956   113.561408
	   30 B(2,10,13)      =    123.421780     0.000000    -0.005033   123.416747
	   31 B(3,6,12)       =    123.814431    -0.000000     0.000421   123.814852
	   32 B(3,6,20)       =    120.140384    -0.000000     0.002259   120.142643
	   33 B(3,9,4)        =    115.997302    -0.000001    -0.000930   115.996372
	   34 B(3,9,8)        =    122.001206    -0.000001    -0.003429   121.997777
	   35 B(4,7,12)       =    123.813342    -0.000000    -0.000245   123.813097
	   36 B(4,7,21)       =    120.141028     0.000000     0.002586   120.143613
	   37 B(4,9,8)        =    121.996203     0.000001     0.003914   122.000117
	   38 B(5,10,13)      =    123.017763     0.000001     0.004081   123.021843
	   39 B(5,11,8)       =    124.389577     0.000001     0.007286   124.396863
	   40 B(5,11,14)      =    118.398178    -0.000000    -0.004761   118.393416
	   41 B(6,3,9)        =    120.099966     0.000000     0.000421   120.100387
	   42 B(6,3,17)       =    120.499590    -0.000000    -0.000129   120.499461
	   43 B(6,12,7)       =    116.174292     0.000000    -0.000477   116.173815
	   44 B(7,4,9)        =    120.100247     0.000000     0.000868   120.101115
	   45 B(7,4,18)       =    120.500124    -0.000000     0.000278   120.500403
	   46 B(8,1,15)       =    118.116443    -0.000000    -0.000641   118.115802
	   47 B(8,11,14)      =    117.212238    -0.000000    -0.002524   117.209715
	   48 B(9,3,17)       =    119.400442    -0.000000    -0.000291   119.400151
	   49 B(9,4,18)       =    119.399627    -0.000000    -0.001145   119.398481
	   50 B(9,8,11)       =    122.281729     0.000002     0.015000   122.296729
	   51 B(10,2,16)      =    117.154015    -0.000000    -0.004049   117.149965
	   52 B(10,5,11)      =    121.629245     0.000001    -0.004242   121.625003
	   53 B(10,5,19)      =    118.819792     0.000000     0.011487   118.831279
	   54 B(11,5,19)      =    119.550963    -0.000001    -0.007245   119.543718
	   55 B(12,6,20)      =    116.045178     0.000000    -0.002680   116.042497
	   56 B(12,7,21)      =    116.045618     0.000000    -0.002328   116.043290
	   57 D(1,2,10,5)     =      0.029369    -0.000000    -0.016230     0.013139
	   58 D(1,2,10,13)    =   -179.996625     0.000000     0.023635  -179.972990
	   59 D(1,8,9,3)      =     90.009210     0.000000     0.004242    90.013453
	   60 D(1,8,9,4)      =    -89.120471     0.000000     0.040108   -89.080363
	   61 D(1,8,11,5)     =      0.068153    -0.000000     0.008356     0.076510
	   62 D(1,8,11,14)    =   -179.963349    -0.000000     0.010161  -179.953188
	   63 D(2,1,8,9)      =   -179.896916     0.000000     0.051787  -179.845130
	   64 D(2,1,8,11)     =     -0.044131     0.000000    -0.010051    -0.054182
	   65 D(2,10,5,11)    =     -0.007111     0.000000     0.014153     0.007042
	   66 D(2,10,5,19)    =    179.990914     0.000000     0.016980   180.007894
	   67 D(3,6,12,7)     =     -0.144989     0.000000     0.022045    -0.122944
	   68 D(3,9,4,7)      =     -0.187461    -0.000000    -0.005311    -0.192772
	   69 D(3,9,4,18)     =    179.793923    -0.000000     0.001608   179.795531
	   70 D(3,9,8,11)     =    -89.833265     0.000000     0.070453   -89.762813
	   71 D(4,7,12,6)     =      0.135477    -0.000000    -0.038010     0.097466
	   72 D(4,9,3,6)      =      0.178683     0.000000    -0.009424     0.169258
	   73 D(4,9,3,17)     =   -179.810713    -0.000000    -0.018282  -179.828995
	   74 D(4,9,8,11)     =     91.037053     0.000000     0.106318    91.143372
	   75 D(5,10,2,16)    =   -179.958894    -0.000000    -0.010167  -179.969061
	   76 D(5,11,8,9)     =    179.921283    -0.000000    -0.053401   179.867882
	   77 D(6,3,9,8)      =   -179.000125     0.000000     0.024373  -178.975752
	   78 D(6,12,7,21)    =   -179.906413     0.000000     0.011777  -179.894636
	   79 D(7,4,9,8)      =    178.991392    -0.000000    -0.039175   178.952216
	   80 D(7,12,6,20)    =    179.885063     0.000000     0.024203   179.909266
	   81 D(8,1,2,10)     =     -0.003382     0.000000     0.015164     0.011782
	   82 D(8,1,2,16)     =    179.984565     0.000000     0.008937   179.993502
	   83 D(8,9,3,17)     =      1.010479    -0.000000     0.015516     1.025994
	   84 D(8,9,4,18)     =     -1.027224    -0.000000    -0.032256    -1.059480
	   85 D(8,11,5,10)    =     -0.043701    -0.000000    -0.011339    -0.055040
	   86 D(8,11,5,19)    =    179.958288    -0.000000    -0.014186   179.944102
	   87 D(9,3,6,12)     =     -0.013414    -0.000000     0.001128    -0.012285
	   88 D(9,3,6,20)     =    179.955365    -0.000000    -0.001115   179.954250
	   89 D(9,4,7,12)     =      0.032383     0.000000     0.030713     0.063096
	   90 D(9,4,7,21)     =   -179.924098    -0.000000    -0.021012  -179.945109
	   91 D(9,8,1,15)     =      0.086022     0.000000     0.053737     0.139759
	   92 D(9,8,11,14)    =     -0.110220    -0.000000    -0.051596    -0.161816
	   93 D(10,2,1,15)    =   -179.986078     0.000000     0.013186  -179.972892
	   94 D(10,5,11,14)   =    179.988147    -0.000000    -0.013164   179.974983
	   95 D(11,5,10,13)   =   -179.981236    -0.000000    -0.025530  -180.006767
	   96 D(11,8,1,15)    =    179.938808     0.000000    -0.008101   179.930707
	   97 D(12,6,3,17)    =    179.975864    -0.000000     0.010084   179.985949
	   98 D(12,7,4,18)    =   -179.948795     0.000000     0.023717  -179.925077
	   99 D(13,10,2,16)   =      0.015112     0.000000     0.029698     0.044810
	  100 D(13,10,5,19)   =      0.016788    -0.000000    -0.022703    -0.005914
	  101 D(14,11,5,19)   =     -0.009863    -0.000000    -0.016012    -0.025875
	  102 D(15,1,2,16)    =      0.001869     0.000000     0.006959     0.008828
	  103 D(17,3,6,20)    =     -0.055357     0.000000     0.007841    -0.047516
	  104 D(18,4,7,21)    =      0.094725    -0.000000    -0.028007     0.066717
	 ---------------------------------------------------------------------------
	Successfully symmetrized geometry.
	 Forces used to impose fixed constraints are not included.
	  Forces zeroed: 59 

  ==> Convergence Check <==

  Measures of convergence in internal coordinates in au.
  Criteria marked as inactive (o), active & met (*), and active & unmet ( ).
  ---------------------------------------------------------------------------------------------
   Step     Total Energy     Delta E     MAX Force     RMS Force      MAX Disp      RMS Disp   
  ---------------------------------------------------------------------------------------------
    Convergence Criteria    1.00e-06 *    3.00e-04 *             o    1.20e-03 *             o
  ---------------------------------------------------------------------------------------------
      7    -652.32548512   -3.73e-07 *    6.84e-05 *    1.42e-05 o    1.86e-03      3.62e-04 o  ~
  ---------------------------------------------------------------------------------------------


  **** Optimization is complete! (in 7 steps) ****

  ==> Optimization Summary <==

  Measures of convergence in internal coordinates in au.
  --------------------------------------------------------------------------------------------------------------- ~
   Step         Total Energy             Delta E       MAX Force       RMS Force        MAX Disp        RMS Disp  ~
  --------------------------------------------------------------------------------------------------------------- ~
      1    -652.315328513671   -652.315328513671      0.02547665      0.00712871      0.03690440      0.00980649  ~
      2    -652.321081844545     -0.005753330874      0.01602916      0.00436133      0.03779300      0.00980581  ~
      3    -652.324328562829     -0.003246718284      0.00773600      0.00210963      0.03556165      0.00980081  ~
      4    -652.325454473312     -0.001125910483      0.00179942      0.00037103      0.00624765      0.00201618  ~
      5    -652.325482436621     -0.000027963309      0.00055093      0.00010416      0.00366302      0.00073862  ~
      6    -652.325484749519     -0.000002312898      0.00016578      0.00002940      0.00260923      0.00051483  ~
      7    -652.325485122176     -0.000000372656      0.00006843      0.00001434      0.00185560      0.00036170  ~
  --------------------------------------------------------------------------------------------------------------- ~

	Writing optimization data to binary file.
	Final energy is   -652.3254851221757
	Final (previous) structure:
	Cartesian Geometry (in Angstrom)
	    C    -1.3704075995   0.7720207592  -0.7500324035
	    C    -2.4395633731   1.3419879476  -0.0896943288
	    C     1.9725451696   0.2942457925  -1.0859779104
	    C     0.8289668216  -1.7706604502  -1.1626524568
	    C    -1.4469739615   0.7387998134   2.0106814688
	    C     3.0184635307  -0.3124152789  -1.7645440053
	    C     1.9193766121  -2.2968496045  -1.8384055241
	    C    -0.3062599405   0.1679150203  -0.0692714772
	    C     0.8311269954  -0.4360614816  -0.7655163114
	    C    -2.5503476533   1.3634933692   1.3408764007
	    C    -0.4039914947   0.1847039237   1.3148198154
	    N     3.0130748917  -1.5931282055  -2.1480719573
	    O    -3.5257817374   1.8830636221   1.9564914752
	    F     0.6184436229  -0.3962917562   2.0235423590
	    H    -1.3414339558   0.7861968717  -1.8328951458
	    H    -3.2410879075   1.7987008961  -0.6536144530
	    H     2.0339173885   1.3341416770  -0.8011285221
	    H    -0.0278285793  -2.3889096289  -0.9391238422
	    H    -1.4434971007   0.7073748747   3.0894576155
	    H     3.9055376045   0.2547287781  -2.0145618202
	    H     1.9178847314  -3.3336462319  -2.1484352060
	Saving final (previous) structure.
			--------------------------
			 OPTKING Finished Execution 
			--------------------------

    Final optimized geometry and variables:
    Molecular point group: c1
    Full point group: C1

    Geometry (in Angstrom), charge = -1, multiplicity = 1:

    C           -1.370407599502     0.772020759209    -0.750032403463
    C           -2.439563373053     1.341987947567    -0.089694328763
    C            1.972545169637     0.294245792478    -1.085977910383
    C            0.828966821557    -1.770660450227    -1.162652456793
    C           -1.446973961525     0.738799813438     2.010681468839
    C            3.018463530698    -0.312415278857    -1.764544005311
    C            1.919376612129    -2.296849604496    -1.838405524090
    C           -0.306259940452     0.167915020279    -0.069271477245
    C            0.831126995371    -0.436061481647    -0.765516311438
    C           -2.550347653291     1.363493369169     1.340876400742
    C           -0.403991494729     0.184703923712     1.314819815420
    N            3.013074891720    -1.593128205532    -2.148071957342
    O           -3.525781737386     1.883063622062     1.956491475226
    F            0.618443622871    -0.396291756241     2.023542359043
    H           -1.341433955818     0.786196871748    -1.832895145797
    H           -3.241087907530     1.798700896146    -0.653614452987
    H            2.033917388549     1.334141676968    -0.801128522071
    H           -0.027828579329    -2.388909628869    -0.939123842219
    H           -1.443497100672     0.707374874662     3.089457615523
    H            3.905537604521     0.254728778101    -2.014561820224
    H            1.917884731418    -3.333646231916    -2.148435206010

	Cleaning optimization helper files.

*** Psi4 exiting successfully. Buy a developer a beer!
