
    -----------------------------------------------------------------------
          Psi4: An Open-Source Ab Initio Electronic Structure Package
                               Psi4 1.1 release

                         Git: Rev {HEAD} add49b9 


    R. M. Parrish, L. A. Burns, D. G. A. Smith, A. C. Simmonett,
    A. E. DePrince III, E. G. Hohenstein, U. Bozkaya, A. Yu. Sokolov,
    R. Di Remigio, R. M. Richard, J. F. Gonthier, A. M. James,
    H. R. McAlexander, A. Kumar, M. Saitow, X. Wang, B. P. Pritchard,
    P. Verma, H. F. Schaefer III, K. Patkowski, R. A. King, E. F. Valeev,
    F. A. Evangelista, J. M. Turney, T. D. Crawford, and C. D. Sherrill,
    J. Chem. Theory Comput. in press (2017).
    (doi: 10.1021/acs.jctc.7b00174)

    -----------------------------------------------------------------------


    Psi4 started on: Sunday, 12 November 2017 01:52AM

    Process ID:   6288
    PSIDATADIR: /cbio/jclab/home/chayas/anaconda/envs/py35/share/psi4
    Memory:     500.0 MiB
    Threads:    8
    
  ==> Input File <==

--------------------------------------------------------------------------

memory 5 Gb

molecule phepyrFOH_zwitterion {
  symmetry C1
  0 1 
  C      1.885   -1.036   -0.112
  C      0.807   -0.463   0.561
  C      3.944   -2.484   -1.459
  C      5.208   -2.536   0.592
  C      1.800   -1.079   2.676
  C      5.030   -3.054   -2.107
  C      6.262   -3.104   -0.108
  C      2.921   -1.631   0.608
  C      4.038   -2.224   -0.095
  C      0.764   -0.484   1.955
  C      2.878   -1.652   2.002
  N      6.145   -3.344   -1.422
  O      -0.227   0.043   2.574
  F      3.866   -2.220   2.709
  H      1.904   -1.013   -1.200
  H      0.011   -0.007   -0.025
  H      3.044   -2.251   -2.020
  H      5.309   -2.344   1.656
  H      1.791   -1.109   3.764
  H      5.047   -3.290   -3.162
  H      7.206   -3.378   0.342
  H      6.931   -3.764   -1.917
  units Angstrom
}

dih_string = "1 8 9 3 345"
set optking fixed_dihedral = $dih_string

optimize('MP2/aug-cc-PVTZ')
--------------------------------------------------------------------------

  Memory set to   4.657 GiB by Python driver.
gradient() will perform analytic gradient computation.

*** tstart() called on gpu-1-14.local
*** at Sun Nov 12 01:52:15 2017

    SCF Algorithm Type (re)set to DF.

*** tstart() called on gpu-1-14.local
*** at Sun Nov 12 01:52:15 2017

   => Loading Basis Set <=

    Name: AUG-CC-PVTZ
    Role: ORBITAL
    Keyword: BASIS
    atoms 1-11  entry C          line   221 file /cbio/jclab/home/chayas/anaconda/envs/py35/share/psi4/basis/aug-cc-pvtz.gbs 
    atoms 12    entry N          line   267 file /cbio/jclab/home/chayas/anaconda/envs/py35/share/psi4/basis/aug-cc-pvtz.gbs 
    atoms 13    entry O          line   313 file /cbio/jclab/home/chayas/anaconda/envs/py35/share/psi4/basis/aug-cc-pvtz.gbs 
    atoms 14    entry F          line   359 file /cbio/jclab/home/chayas/anaconda/envs/py35/share/psi4/basis/aug-cc-pvtz.gbs 
    atoms 15-22 entry H          line    34 file /cbio/jclab/home/chayas/anaconda/envs/py35/share/psi4/basis/aug-cc-pvtz.gbs 


         ---------------------------------------------------------
                                   SCF
            by Justin Turney, Rob Parrish, and Andy Simmonett
                              RHF Reference
                        8 Threads,   4768 MiB Core
         ---------------------------------------------------------

  ==> Geometry <==

    Molecular point group: c1
    Full point group: C1

    Geometry (in Angstrom), charge = 0, multiplicity = 1:

       Center              X                  Y                   Z               Mass       
    ------------   -----------------  -----------------  -----------------  -----------------
           C         -1.361591667754     0.775969881659    -0.769462330745    12.000000000000
           C         -2.439591667754     1.348969881659    -0.096462330745    12.000000000000
           C          0.697408332246    -0.672030118341    -2.116462330745    12.000000000000
           C          1.961408332246    -0.724030118341    -0.065462330745    12.000000000000
           C         -1.446591667754     0.732969881659     2.018537669255    12.000000000000
           C          1.783408332246    -1.242030118341    -2.764462330745    12.000000000000
           C          3.015408332246    -1.292030118341    -0.765462330745    12.000000000000
           C         -0.325591667754     0.180969881659    -0.049462330745    12.000000000000
           C          0.791408332246    -0.412030118341    -0.752462330745    12.000000000000
           C         -2.482591667754     1.327969881659     1.297537669255    12.000000000000
           C         -0.368591667754     0.159969881659     1.344537669255    12.000000000000
           N          2.898408332246    -1.532030118341    -2.079462330745    14.003074004780
           O         -3.473591667754     1.854969881659     1.916537669255    15.994914619560
           F          0.619408332246    -0.408030118341     2.051537669255    18.998403224000
           H         -1.342591667754     0.798969881659    -1.857462330745     1.007825032070
           H         -3.235591667754     1.804969881659    -0.682462330745     1.007825032070
           H         -0.202591667754    -0.439030118341    -2.677462330745     1.007825032070
           H          2.062408332246    -0.532030118341     0.998537669255     1.007825032070
           H         -1.455591667754     0.702969881659     3.106537669255     1.007825032070
           H          1.800408332246    -1.478030118341    -3.819462330745     1.007825032070
           H          3.959408332246    -1.566030118341    -0.315462330745     1.007825032070
           H          3.684408332246    -1.952030118341    -2.574462330745     1.007825032070

  Running in c1 symmetry.

  Rotational constants: A =      0.06296  B =      0.01379  C =      0.01137 [cm^-1]
  Rotational constants: A =   1887.59303  B =    413.45828  C =    340.97827 [MHz]
  Nuclear repulsion =  820.660544429763718

  Charge       = 0
  Multiplicity = 1
  Electrons    = 98
  Nalpha       = 49
  Nbeta        = 49

  ==> Algorithm <==

  SCF Algorithm Type is DF.
  DIIS enabled.
  MOM disabled.
  Fractional occupation disabled.
  Guess Type is SAD.
  Energy threshold   = 1.00e-10
  Density threshold  = 1.00e-10
  Integral threshold = 0.00e+00

  ==> Primary Basis <==

  Basis Set: AUG-CC-PVTZ
    Blend: AUG-CC-PVTZ
    Number of shells: 268
    Number of basis function: 828
    Number of Cartesian functions: 970
    Spherical Harmonics?: true
    Max angular momentum: 3

   => Loading Basis Set <=

    Name: (AUG-CC-PVTZ AUX)
    Role: JKFIT
    Keyword: DF_BASIS_SCF
    atoms 1-11  entry C          line   161 file /cbio/jclab/home/chayas/anaconda/envs/py35/share/psi4/basis/aug-cc-pvtz-jkfit.gbs 
    atoms 12    entry N          line   223 file /cbio/jclab/home/chayas/anaconda/envs/py35/share/psi4/basis/aug-cc-pvtz-jkfit.gbs 
    atoms 13    entry O          line   285 file /cbio/jclab/home/chayas/anaconda/envs/py35/share/psi4/basis/aug-cc-pvtz-jkfit.gbs 
    atoms 14    entry F          line   347 file /cbio/jclab/home/chayas/anaconda/envs/py35/share/psi4/basis/aug-cc-pvtz-jkfit.gbs 
    atoms 15-22 entry H          line    69 file /cbio/jclab/home/chayas/anaconda/envs/py35/share/psi4/basis/aug-cc-pvtz-jkfit.gbs 

  ==> Pre-Iterations <==

   -------------------------------------------------------
    Irrep   Nso     Nmo     Nalpha   Nbeta   Ndocc  Nsocc
   -------------------------------------------------------
     A        828     828       0       0       0       0
   -------------------------------------------------------
    Total     828     828      49      49      49       0
   -------------------------------------------------------

  ==> Integral Setup <==

  ==> DFJK: Density-Fitted J/K Matrices <==

    J tasked:                  Yes
    K tasked:                  Yes
    wK tasked:                  No
    OpenMP threads:              8
    Integrals threads:           8
    Memory (MB):              3576
    Algorithm:                Disk
    Integral Cache:           NONE
    Schwarz Cutoff:          1E-12
    Fitting Condition:       1E-12

   => Auxiliary Basis Set <=

  Basis Set: (AUG-CC-PVTZ AUX)
    Blend: AUG-CC-PVTZ-JKFIT
    Number of shells: 532
    Number of basis function: 1824
    Number of Cartesian functions: 2274
    Spherical Harmonics?: true
    Max angular momentum: 4

  Minimum eigenvalue in the overlap matrix is 6.2670225072E-07.
  Using Symmetric Orthogonalization.

  SCF Guess: Superposition of Atomic Densities via on-the-fly atomic UHF.

  ==> Iterations <==

                           Total Energy        Delta E     RMS |[F,P]|

   @DF-RHF iter   0:  -657.38893779979787   -6.57389e+02   2.10306e-02 
   @DF-RHF iter   1:  -649.64577853765593    7.74316e+00   2.05891e-03 
   @DF-RHF iter   2:  -649.95157898053515   -3.05800e-01   1.46528e-03 DIIS
   @DF-RHF iter   3:  -650.07390203261980   -1.22323e-01   6.08696e-04 DIIS
   @DF-RHF iter   4:  -650.09921880943398   -2.53168e-02   1.56664e-04 DIIS
   @DF-RHF iter   5:  -650.10211287585264   -2.89407e-03   6.61238e-05 DIIS
   @DF-RHF iter   6:  -650.10266847609842   -5.55600e-04   2.93564e-05 DIIS
   @DF-RHF iter   7:  -650.10279357977436   -1.25104e-04   8.65624e-06 DIIS
   @DF-RHF iter   8:  -650.10281714636267   -2.35666e-05   3.48787e-06 DIIS
   @DF-RHF iter   9:  -650.10282649440751   -9.34804e-06   2.04452e-06 DIIS
   @DF-RHF iter  10:  -650.10282821700912   -1.72260e-06   8.78121e-07 DIIS
   @DF-RHF iter  11:  -650.10282858153948   -3.64530e-07   4.13453e-07 DIIS
   @DF-RHF iter  12:  -650.10282861746327   -3.59238e-08   2.05566e-07 DIIS
   @DF-RHF iter  13:  -650.10282862298823   -5.52495e-09   6.55605e-08 DIIS
   @DF-RHF iter  14:  -650.10282862402732   -1.03910e-09   3.17705e-08 DIIS
   @DF-RHF iter  15:  -650.10282862420206   -1.74737e-10   1.02389e-08 DIIS
   @DF-RHF iter  16:  -650.10282862420377   -1.70530e-12   3.66435e-09 DIIS
   @DF-RHF iter  17:  -650.10282862421741   -1.36424e-11   1.49359e-09 DIIS
   @DF-RHF iter  18:  -650.10282862419649    2.09184e-11   5.08170e-10 DIIS
   @DF-RHF iter  19:  -650.10282862420888   -1.23919e-11   3.49287e-10 DIIS
   @DF-RHF iter  20:  -650.10282862421332   -4.43379e-12   1.23271e-10 DIIS
   @DF-RHF iter  21:  -650.10282862420706    6.25278e-12   4.46574e-11 DIIS

  ==> Post-Iterations <==

    Orbital Energies (a.u.)
    -----------------------

    Doubly Occupied:                                                      

       1A    -26.319894     2A    -20.441075     3A    -15.695860  
       4A    -11.356100     5A    -11.351036     6A    -11.326600  
       7A    -11.309547     8A    -11.284977     9A    -11.274463  
      10A    -11.257538    11A    -11.240376    12A    -11.227253  
      13A    -11.197367    14A    -11.196123    15A     -1.644373  
      16A     -1.380564    17A     -1.265453    18A     -1.183103  
      19A     -1.118365    20A     -1.107415    21A     -1.007014  
      22A     -1.000372    23A     -0.940123    24A     -0.908826  
      25A     -0.841106    26A     -0.834816    27A     -0.813868  
      28A     -0.751442    29A     -0.729541    30A     -0.725160  
      31A     -0.708233    32A     -0.688229    33A     -0.682032  
      34A     -0.652822    35A     -0.649750    36A     -0.617684  
      37A     -0.611306    38A     -0.592996    39A     -0.563634  
      40A     -0.540747    41A     -0.524914    42A     -0.506146  
      43A     -0.485836    44A     -0.474272    45A     -0.415876  
      46A     -0.395725    47A     -0.353739    48A     -0.330303  
      49A     -0.244652  

    Virtual:                                                              

      50A     -0.007171    51A      0.012121    52A      0.021319  
      53A      0.025018    54A      0.039068    55A      0.042556  
      56A      0.044661    57A      0.057737    58A      0.058523  
      59A      0.061211    60A      0.064772    61A      0.069415  
      62A      0.071519    63A      0.081917    64A      0.084247  
      65A      0.094305    66A      0.098245    67A      0.105155  
      68A      0.107759    69A      0.109823    70A      0.118654  
      71A      0.120475    72A      0.122009    73A      0.130059  
      74A      0.131366    75A      0.136203    76A      0.138747  
      77A      0.145183    78A      0.148138    79A      0.150265  
      80A      0.154468    81A      0.158918    82A      0.163676  
      83A      0.165826    84A      0.169424    85A      0.175249  
      86A      0.178420    87A      0.179545    88A      0.186360  
      89A      0.188139    90A      0.194726    91A      0.199076  
      92A      0.202666    93A      0.204287    94A      0.211286  
      95A      0.215774    96A      0.220695    97A      0.228772  
      98A      0.229733    99A      0.233651   100A      0.236577  
     101A      0.243205   102A      0.248138   103A      0.249029  
     104A      0.252345   105A      0.257175   106A      0.260154  
     107A      0.265353   108A      0.272814   109A      0.274257  
     110A      0.278911   111A      0.288281   112A      0.288995  
     113A      0.292938   114A      0.298721   115A      0.300709  
     116A      0.301537   117A      0.310555   118A      0.312046  
     119A      0.319386   120A      0.320251   121A      0.330871  
     122A      0.334383   123A      0.337816   124A      0.338713  
     125A      0.345434   126A      0.347731   127A      0.351453  
     128A      0.355147   129A      0.357991   130A      0.365828  
     131A      0.366508   132A      0.370275   133A      0.378938  
     134A      0.379669   135A      0.382591   136A      0.391592  
     137A      0.396544   138A      0.400524   139A      0.402557  
     140A      0.406996   141A      0.414585   142A      0.416815  
     143A      0.422019   144A      0.428270   145A      0.434880  
     146A      0.436162   147A      0.442630   148A      0.446324  
     149A      0.448366   150A      0.454438   151A      0.455780  
     152A      0.459133   153A      0.461842   154A      0.464787  
     155A      0.469338   156A      0.470626   157A      0.474469  
     158A      0.478586   159A      0.479813   160A      0.486668  
     161A      0.489051   162A      0.493207   163A      0.495256  
     164A      0.496928   165A      0.501844   166A      0.509826  
     167A      0.512335   168A      0.515254   169A      0.517150  
     170A      0.525928   171A      0.532200   172A      0.535591  
     173A      0.540808   174A      0.542423   175A      0.550691  
     176A      0.552124   177A      0.555846   178A      0.561638  
     179A      0.565296   180A      0.570575   181A      0.574491  
     182A      0.587071   183A      0.591096   184A      0.600611  
     185A      0.604352   186A      0.606826   187A      0.613105  
     188A      0.619767   189A      0.623202   190A      0.628591  
     191A      0.635961   192A      0.636610   193A      0.645975  
     194A      0.652801   195A      0.659081   196A      0.666749  
     197A      0.676238   198A      0.679177   199A      0.680064  
     200A      0.685548   201A      0.692202   202A      0.695279  
     203A      0.700500   204A      0.707179   205A      0.710254  
     206A      0.717385   207A      0.722071   208A      0.726630  
     209A      0.730630   210A      0.741858   211A      0.742829  
     212A      0.749471   213A      0.751255   214A      0.760291  
     215A      0.764875   216A      0.770229   217A      0.776045  
     218A      0.780586   219A      0.790447   220A      0.797679  
     221A      0.804232   222A      0.810170   223A      0.814657  
     224A      0.822384   225A      0.825607   226A      0.832399  
     227A      0.836114   228A      0.850284   229A      0.855494  
     230A      0.862413   231A      0.866539   232A      0.868732  
     233A      0.875607   234A      0.878388   235A      0.883941  
     236A      0.886865   237A      0.897492   238A      0.899923  
     239A      0.903064   240A      0.907656   241A      0.908542  
     242A      0.916764   243A      0.919430   244A      0.922316  
     245A      0.926751   246A      0.928227   247A      0.938723  
     248A      0.941393   249A      0.950843   250A      0.953191  
     251A      0.959534   252A      0.963483   253A      0.966993  
     254A      0.968228   255A      0.977057   256A      0.980131  
     257A      0.982499   258A      0.983204   259A      0.988018  
     260A      0.989961   261A      0.996837   262A      1.006860  
     263A      1.008917   264A      1.011153   265A      1.018741  
     266A      1.020633   267A      1.027771   268A      1.029047  
     269A      1.032311   270A      1.040639   271A      1.044731  
     272A      1.048211   273A      1.052511   274A      1.060148  
     275A      1.061825   276A      1.070792   277A      1.071918  
     278A      1.083384   279A      1.088475   280A      1.093635  
     281A      1.099140   282A      1.105382   283A      1.109370  
     284A      1.113084   285A      1.117022   286A      1.121995  
     287A      1.128411   288A      1.133356   289A      1.140415  
     290A      1.143467   291A      1.147273   292A      1.149680  
     293A      1.158087   294A      1.165938   295A      1.169863  
     296A      1.172702   297A      1.179750   298A      1.183881  
     299A      1.185321   300A      1.194450   301A      1.199031  
     302A      1.204337   303A      1.208774   304A      1.212029  
     305A      1.214349   306A      1.220217   307A      1.223884  
     308A      1.226942   309A      1.233608   310A      1.236720  
     311A      1.241001   312A      1.246304   313A      1.254909  
     314A      1.265891   315A      1.268834   316A      1.275189  
     317A      1.279086   318A      1.282077   319A      1.289391  
     320A      1.295122   321A      1.299016   322A      1.307990  
     323A      1.316800   324A      1.326200   325A      1.332576  
     326A      1.336797   327A      1.338629   328A      1.353698  
     329A      1.357643   330A      1.360163   331A      1.366336  
     332A      1.376026   333A      1.382174   334A      1.385732  
     335A      1.388709   336A      1.399848   337A      1.406332  
     338A      1.416136   339A      1.429190   340A      1.431044  
     341A      1.437119   342A      1.443550   343A      1.452207  
     344A      1.452677   345A      1.468572   346A      1.479833  
     347A      1.487733   348A      1.491169   349A      1.491832  
     350A      1.498240   351A      1.507257   352A      1.512404  
     353A      1.519169   354A      1.524158   355A      1.528774  
     356A      1.545694   357A      1.552725   358A      1.571800  
     359A      1.577862   360A      1.587090   361A      1.594224  
     362A      1.603487   363A      1.614758   364A      1.618597  
     365A      1.627530   366A      1.630282   367A      1.646264  
     368A      1.651076   369A      1.658177   370A      1.665269  
     371A      1.669357   372A      1.670668   373A      1.684602  
     374A      1.685663   375A      1.692909   376A      1.700878  
     377A      1.707207   378A      1.715888   379A      1.732752  
     380A      1.746700   381A      1.757908   382A      1.771114  
     383A      1.774003   384A      1.781711   385A      1.789830  
     386A      1.792010   387A      1.804568   388A      1.810205  
     389A      1.813012   390A      1.816038   391A      1.830073  
     392A      1.840035   393A      1.846483   394A      1.855847  
     395A      1.862312   396A      1.872679   397A      1.881291  
     398A      1.886436   399A      1.898579   400A      1.900710  
     401A      1.908732   402A      1.916757   403A      1.927632  
     404A      1.937118   405A      1.947430   406A      1.960006  
     407A      1.964360   408A      1.975483   409A      1.978469  
     410A      1.983708   411A      1.990872   412A      1.993561  
     413A      2.002108   414A      2.010053   415A      2.016038  
     416A      2.027198   417A      2.028671   418A      2.038420  
     419A      2.040982   420A      2.053133   421A      2.059144  
     422A      2.065299   423A      2.069518   424A      2.070767  
     425A      2.077463   426A      2.079555   427A      2.096628  
     428A      2.103539   429A      2.111725   430A      2.120528  
     431A      2.128945   432A      2.137301   433A      2.149335  
     434A      2.159113   435A      2.164666   436A      2.170849  
     437A      2.177771   438A      2.179872   439A      2.197462  
     440A      2.206295   441A      2.210910   442A      2.221841  
     443A      2.224851   444A      2.234956   445A      2.246246  
     446A      2.270786   447A      2.283359   448A      2.292119  
     449A      2.295414   450A      2.308120   451A      2.312382  
     452A      2.318637   453A      2.333188   454A      2.348413  
     455A      2.358735   456A      2.362358   457A      2.373957  
     458A      2.379252   459A      2.388850   460A      2.394361  
     461A      2.402772   462A      2.424074   463A      2.434507  
     464A      2.442525   465A      2.455103   466A      2.459351  
     467A      2.467931   468A      2.484678   469A      2.495849  
     470A      2.499104   471A      2.507742   472A      2.518954  
     473A      2.526542   474A      2.533578   475A      2.551642  
     476A      2.557258   477A      2.563009   478A      2.579957  
     479A      2.593194   480A      2.610421   481A      2.623962  
     482A      2.642080   483A      2.653689   484A      2.660330  
     485A      2.670304   486A      2.678862   487A      2.692655  
     488A      2.717583   489A      2.732020   490A      2.735438  
     491A      2.749246   492A      2.758831   493A      2.782728  
     494A      2.795226   495A      2.807240   496A      2.822959  
     497A      2.859375   498A      2.863454   499A      2.881055  
     500A      2.902963   501A      2.913907   502A      2.921408  
     503A      2.958807   504A      2.971576   505A      3.000662  
     506A      3.027384   507A      3.041920   508A      3.056391  
     509A      3.066828   510A      3.076549   511A      3.084881  
     512A      3.098774   513A      3.116461   514A      3.121176  
     515A      3.151490   516A      3.172465   517A      3.177342  
     518A      3.199843   519A      3.210542   520A      3.219473  
     521A      3.224187   522A      3.232735   523A      3.250092  
     524A      3.257399   525A      3.273094   526A      3.296273  
     527A      3.318647   528A      3.320156   529A      3.323228  
     530A      3.333772   531A      3.343784   532A      3.361027  
     533A      3.368479   534A      3.372868   535A      3.383088  
     536A      3.387198   537A      3.396530   538A      3.411084  
     539A      3.426508   540A      3.430506   541A      3.449673  
     542A      3.454631   543A      3.461974   544A      3.479291  
     545A      3.486020   546A      3.491584   547A      3.498744  
     548A      3.507770   549A      3.518060   550A      3.529055  
     551A      3.534599   552A      3.541010   553A      3.553350  
     554A      3.558238   555A      3.560910   556A      3.579088  
     557A      3.581448   558A      3.597417   559A      3.609012  
     560A      3.624884   561A      3.625985   562A      3.639073  
     563A      3.645167   564A      3.654800   565A      3.661449  
     566A      3.667863   567A      3.671226   568A      3.684319  
     569A      3.696292   570A      3.710663   571A      3.715053  
     572A      3.717645   573A      3.727767   574A      3.737443  
     575A      3.745927   576A      3.756053   577A      3.761890  
     578A      3.772770   579A      3.781268   580A      3.794422  
     581A      3.805590   582A      3.809910   583A      3.816880  
     584A      3.825452   585A      3.832142   586A      3.838257  
     587A      3.849058   588A      3.856678   589A      3.864839  
     590A      3.876560   591A      3.879735   592A      3.898693  
     593A      3.908344   594A      3.915227   595A      3.922890  
     596A      3.933384   597A      3.942104   598A      3.950213  
     599A      3.960003   600A      3.962850   601A      3.964774  
     602A      3.975011   603A      3.989545   604A      3.991737  
     605A      3.998068   606A      4.005229   607A      4.010810  
     608A      4.025800   609A      4.036074   610A      4.042474  
     611A      4.050921   612A      4.061009   613A      4.072246  
     614A      4.078294   615A      4.089871   616A      4.110342  
     617A      4.118682   618A      4.129219   619A      4.134499  
     620A      4.153685   621A      4.159269   622A      4.173490  
     623A      4.181669   624A      4.195393   625A      4.197946  
     626A      4.203827   627A      4.218895   628A      4.220450  
     629A      4.227361   630A      4.236287   631A      4.244260  
     632A      4.253869   633A      4.258293   634A      4.273311  
     635A      4.275522   636A      4.296014   637A      4.300708  
     638A      4.312521   639A      4.317875   640A      4.323478  
     641A      4.331868   642A      4.335549   643A      4.340430  
     644A      4.353407   645A      4.357937   646A      4.368771  
     647A      4.380140   648A      4.385511   649A      4.393654  
     650A      4.397886   651A      4.408215   652A      4.423831  
     653A      4.436584   654A      4.441290   655A      4.450726  
     656A      4.466461   657A      4.481805   658A      4.488593  
     659A      4.495089   660A      4.504969   661A      4.509476  
     662A      4.527259   663A      4.538169   664A      4.547063  
     665A      4.555178   666A      4.563071   667A      4.589006  
     668A      4.593342   669A      4.612108   670A      4.624847  
     671A      4.630736   672A      4.641303   673A      4.661022  
     674A      4.665556   675A      4.679145   676A      4.709248  
     677A      4.715651   678A      4.726966   679A      4.731343  
     680A      4.746798   681A      4.771040   682A      4.776216  
     683A      4.791883   684A      4.792862   685A      4.804246  
     686A      4.820655   687A      4.840061   688A      4.852172  
     689A      4.857926   690A      4.874375   691A      4.889609  
     692A      4.900788   693A      4.905854   694A      4.929739  
     695A      4.934678   696A      4.946857   697A      4.958581  
     698A      4.971783   699A      4.990011   700A      5.012293  
     701A      5.032935   702A      5.035099   703A      5.047807  
     704A      5.064910   705A      5.076022   706A      5.081915  
     707A      5.091389   708A      5.099334   709A      5.122011  
     710A      5.133008   711A      5.143401   712A      5.149605  
     713A      5.155842   714A      5.171578   715A      5.181839  
     716A      5.189128   717A      5.198125   718A      5.228579  
     719A      5.231799   720A      5.241960   721A      5.273450  
     722A      5.275794   723A      5.309408   724A      5.319451  
     725A      5.335537   726A      5.347445   727A      5.383873  
     728A      5.390726   729A      5.404037   730A      5.413078  
     731A      5.436415   732A      5.446999   733A      5.500190  
     734A      5.520382   735A      5.525285   736A      5.549539  
     737A      5.554683   738A      5.572912   739A      5.580058  
     740A      5.626301   741A      5.648641   742A      5.662930  
     743A      5.696363   744A      5.716316   745A      5.722654  
     746A      5.744232   747A      5.754746   748A      5.792567  
     749A      5.821239   750A      5.825169   751A      5.834262  
     752A      5.857123   753A      5.897115   754A      5.916412  
     755A      5.947432   756A      5.972859   757A      5.985565  
     758A      6.012717   759A      6.075244   760A      6.117657  
     761A      6.139699   762A      6.161217   763A      6.221631  
     764A      6.225401   765A      6.265558   766A      6.292585  
     767A      6.312200   768A      6.386264   769A      6.432487  
     770A      6.452100   771A      6.462409   772A      6.529757  
     773A      6.579646   774A      6.598570   775A      6.624758  
     776A      6.671787   777A      6.682571   778A      6.736905  
     779A      6.763586   780A      6.775008   781A      6.828707  
     782A      6.860555   783A      6.889628   784A      6.932156  
     785A      6.957846   786A      6.973580   787A      7.052690  
     788A      7.061373   789A      7.114148   790A      7.174040  
     791A      7.218505   792A      7.222526   793A      7.474782  
     794A      7.495183   795A      7.509041   796A      7.602267  
     797A      7.676765   798A      7.793952   799A      7.803913  
     800A      7.891789   801A      8.014838   802A      8.086364  
     803A      9.155786   804A      9.218453   805A      9.311236  
     806A      9.363512   807A      9.445815   808A      9.558469  
     809A      9.572031   810A      9.629888   811A      9.720438  
     812A      9.751733   813A     10.101352   814A     10.117898  
     815A     15.858222   816A     16.123504   817A     16.344380  
     818A     16.928955   819A     17.272588   820A     17.341513  
     821A     18.968101   822A     19.717276   823A     19.792410  
     824A     20.082419   825A     20.481286   826A     20.573837  
     827A     21.008707   828A     21.479733  

    Final Occupation by Irrep:
              A 
    DOCC [    49 ]

  Energy converged.

  @DF-RHF Final Energy:  -650.10282862420706

   => Energetics <=

    Nuclear Repulsion Energy =            820.6605444297637177
    One-Electron Energy =               -2515.9894541560825019
    Two-Electron Energy =                1045.2260811021117206
    DFT Exchange-Correlation Energy =       0.0000000000000000
    Empirical Dispersion Energy =           0.0000000000000000
    PCM Polarization Energy =               0.0000000000000000
    EFP Energy =                            0.0000000000000000
    Total Energy =                       -650.1028286242069498



Properties will be evaluated at   0.000000,   0.000000,   0.000000 Bohr

Properties computed using the SCF density matrix

  Nuclear Dipole Moment: (a.u.)
     X:     4.3313      Y:    -2.0956      Z:    -9.2527

  Electronic Dipole Moment: (a.u.)
     X:     0.9460      Y:    -0.6931      Z:     5.4015

  Dipole Moment: (a.u.)
     X:     5.2773      Y:    -2.7887      Z:    -3.8512     Total:     7.1034

  Dipole Moment: (Debye)
     X:    13.4135      Y:    -7.0883      Z:    -9.7888     Total:    18.0551


*** tstop() called on gpu-1-14.local at Sun Nov 12 02:00:49 2017
Module time:
	user time   =    1201.84 seconds =      20.03 minutes
	system time =      60.83 seconds =       1.01 minutes
	total time  =        514 seconds =       8.57 minutes
Total time:
	user time   =    1201.84 seconds =      20.03 minutes
	system time =      60.83 seconds =       1.01 minutes
	total time  =        514 seconds =       8.57 minutes

  //>>>>>>>>>>>>>>>>>>>>>>>>>>>>>>>>>>>//
  //               DFMP2               //
  //<<<<<<<<<<<<<<<<<<<<<<<<<<<<<<<<<<<//

   => Loading Basis Set <=

    Name: (AUG-CC-PVTZ AUX)
    Role: RIFIT
    Keyword: DF_BASIS_MP2
    atoms 1-11  entry C          line   147 file /cbio/jclab/home/chayas/anaconda/envs/py35/share/psi4/basis/aug-cc-pvtz-ri.gbs 
    atoms 12    entry N          line   205 file /cbio/jclab/home/chayas/anaconda/envs/py35/share/psi4/basis/aug-cc-pvtz-ri.gbs 
    atoms 13    entry O          line   263 file /cbio/jclab/home/chayas/anaconda/envs/py35/share/psi4/basis/aug-cc-pvtz-ri.gbs 
    atoms 14    entry F          line   321 file /cbio/jclab/home/chayas/anaconda/envs/py35/share/psi4/basis/aug-cc-pvtz-ri.gbs 
    atoms 15-22 entry H          line    29 file /cbio/jclab/home/chayas/anaconda/envs/py35/share/psi4/basis/aug-cc-pvtz-ri.gbs 

	 --------------------------------------------------------
	                          DF-MP2                         
	      2nd-Order Density-Fitted Moller-Plesset Theory     
	              RMP2 Wavefunction,   8 Threads             
	                                                         
	        Rob Parrish, Justin Turney, Andy Simmonett,      
	           Ed Hohenstein, and C. David Sherrill          
	 --------------------------------------------------------

   => Auxiliary Basis Set <=

  Basis Set: (AUG-CC-PVTZ AUX)
    Blend: AUG-CC-PVTZ-RI
    Number of shells: 504
    Number of basis function: 1852
    Number of Cartesian functions: 2344
    Spherical Harmonics?: true
    Max angular momentum: 4

	 --------------------------------------------------------
	                 NBF =   828, NAUX =  1852
	 --------------------------------------------------------
	   CLASS    FOCC     OCC    AOCC    AVIR     VIR    FVIR
	   PAIRS       0      49      49     779     779       0
	 --------------------------------------------------------


         ------------------------------------------------------------
                                     CPHF                           
                                  Rob Parrish                       
         ------------------------------------------------------------

  ==> Geometry <==

    Molecular point group: c1
    Full point group: C1

    Geometry (in Angstrom), charge = 0, multiplicity = 1:

       Center              X                  Y                   Z               Mass       
    ------------   -----------------  -----------------  -----------------  -----------------
           C         -1.361591667754     0.775969881659    -0.769462330745    12.000000000000
           C         -2.439591667754     1.348969881659    -0.096462330745    12.000000000000
           C          0.697408332246    -0.672030118341    -2.116462330745    12.000000000000
           C          1.961408332246    -0.724030118341    -0.065462330745    12.000000000000
           C         -1.446591667754     0.732969881659     2.018537669255    12.000000000000
           C          1.783408332246    -1.242030118341    -2.764462330745    12.000000000000
           C          3.015408332246    -1.292030118341    -0.765462330745    12.000000000000
           C         -0.325591667754     0.180969881659    -0.049462330745    12.000000000000
           C          0.791408332246    -0.412030118341    -0.752462330745    12.000000000000
           C         -2.482591667754     1.327969881659     1.297537669255    12.000000000000
           C         -0.368591667754     0.159969881659     1.344537669255    12.000000000000
           N          2.898408332246    -1.532030118341    -2.079462330745    14.003074004780
           O         -3.473591667754     1.854969881659     1.916537669255    15.994914619560
           F          0.619408332246    -0.408030118341     2.051537669255    18.998403224000
           H         -1.342591667754     0.798969881659    -1.857462330745     1.007825032070
           H         -3.235591667754     1.804969881659    -0.682462330745     1.007825032070
           H         -0.202591667754    -0.439030118341    -2.677462330745     1.007825032070
           H          2.062408332246    -0.532030118341     0.998537669255     1.007825032070
           H         -1.455591667754     0.702969881659     3.106537669255     1.007825032070
           H          1.800408332246    -1.478030118341    -3.819462330745     1.007825032070
           H          3.959408332246    -1.566030118341    -0.315462330745     1.007825032070
           H          3.684408332246    -1.952030118341    -2.574462330745     1.007825032070

  Nuclear repulsion =  820.660544429763718
  Reference energy  = -650.102828624207064

  ==> Basis Set <==

  Basis Set: AUG-CC-PVTZ
    Blend: AUG-CC-PVTZ
    Number of shells: 268
    Number of basis function: 828
    Number of Cartesian functions: 970
    Spherical Harmonics?: true
    Max angular momentum: 3

  ==> CGRSolver (by Rob Parrish) <==

   Number of roots    =         1
   Preconditioning    =    JACOBI
   Convergence cutoff =     1E-06
   Maximum iterations =       100

  ==> CPHFRHamiltonian (by Rob Parrish) <== 

  ==> DFJK: Density-Fitted J/K Matrices <==

    J tasked:                  Yes
    K tasked:                  Yes
    wK tasked:                  No
    OpenMP threads:              8
    Integrals threads:           8
    Memory (MB):              3576
    Algorithm:                Disk
    Integral Cache:           NONE
    Schwarz Cutoff:          1E-12
    Fitting Condition:       1E-12

   => Auxiliary Basis Set <=

  Basis Set: (AUG-CC-PVTZ AUX)
    Blend: AUG-CC-PVTZ-JKFIT
    Number of shells: 532
    Number of basis function: 1824
    Number of Cartesian functions: 2274
    Spherical Harmonics?: true
    Max angular momentum: 4

  ==> CPHF Iterations <==

  => Iterations <=

             Iter  Converged  Remaining    Residual
  CGR           1          0          1   1.531E-01
  CGR           2          0          1   5.961E-02
  CGR           3          0          1   2.986E-02
  CGR           4          0          1   9.179E-03
  CGR           5          0          1   3.089E-03
  CGR           6          0          1   1.233E-03
  CGR           7          0          1   5.316E-04
  CGR           8          0          1   1.841E-04
  CGR           9          0          1   8.695E-05
  CGR          10          0          1   4.090E-05
  CGR          11          0          1   1.776E-05
  CGR          12          0          1   5.046E-06
  CGR          13          0          1   2.278E-06
  CGR          14          1          0   8.467E-07

    CGRSolver converged.

  ==> DFCorrGrad: Density-Fitted Correlated Gradients <==

    OpenMP threads:              8
    Integrals threads:           8
    Memory (MB):              3576
    Schwarz Cutoff:          0E+00
    Fitting Condition:       1E-12

   => Auxiliary Basis Set <=

  Basis Set: (AUG-CC-PVTZ AUX)
    Blend: AUG-CC-PVTZ-JKFIT
    Number of shells: 532
    Number of basis function: 1824
    Number of Cartesian functions: 2274
    Spherical Harmonics?: true
    Max angular momentum: 4

	-----------------------------------------------------------
	 ==================> DF-MP2 Energies <==================== 
	-----------------------------------------------------------
	 Reference Energy          =    -650.1028286242070635 [Eh]
	 Singles Energy            =      -0.0000000000000001 [Eh]
	 Same-Spin Energy          =      -0.6799105499705791 [Eh]
	 Opposite-Spin Energy      =      -2.0291051218310945 [Eh]
	 Correlation Energy        =      -2.7090156718016738 [Eh]
	 Total Energy              =    -652.8118442960087577 [Eh]
	-----------------------------------------------------------
	 ================> DF-SCS-MP2 Energies <================== 
	-----------------------------------------------------------
	 SCS Same-Spin Scale       =       0.3333333333333333 [-]
	 SCS Opposite-Spin Scale   =       1.2000000000000000 [-]
	 SCS Same-Spin Energy      =      -0.2266368499901930 [Eh]
	 SCS Opposite-Spin Energy  =      -2.4349261461973133 [Eh]
	 SCS Correlation Energy    =      -2.6615629961875062 [Eh]
	 SCS Total Energy          =    -652.7643916203945764 [Eh]
	-----------------------------------------------------------


  -Total Gradient:
     Atom            X                  Y                   Z
    ------   -----------------  -----------------  -----------------
       1        0.040731971455    -0.016770995810    -0.009341805809
       2       -0.028248794355     0.013776404627     0.057214744563
       3       -0.025834876597     0.013669847760     0.032309520992
       4       -0.046277226422     0.020228517441     0.009070438557
       5       -0.058260723826     0.032466631274    -0.004342336940
       6        0.030293983610    -0.012366727616     0.003642143338
       7        0.011586248042    -0.010327829467    -0.027395894795
       8       -0.053385735510     0.028271304277     0.029531868031
       9        0.053192243814    -0.027379232345    -0.034937743300
      10        0.064635228959    -0.033973176531    -0.041226805123
      11        0.048842641388    -0.032144317405    -0.022862054067
      12       -0.020035982640     0.011370801461     0.013145287964
      13       -0.022964968243     0.012160908899     0.013589415156
      14        0.005064415747     0.003642140437    -0.014715663840
      15       -0.000057343681    -0.001521273389    -0.008242207155
      16       -0.003010150034     0.001076931268    -0.009001230402
      17       -0.007747237693     0.004261378482    -0.002244372141
      18       -0.005407876044     0.002239822703     0.016315940918
      19        0.003662360557    -0.001691270594     0.007469446758
      20        0.001921773660    -0.000834544270    -0.002496307656
      21        0.002664182481    -0.001752674519    -0.000378511653
      22        0.008635865328    -0.004402646681    -0.005103873400


*** tstop() called on gpu-1-14.local at Sun Nov 12 02:40:03 2017
Module time:
	user time   =    5904.39 seconds =      98.41 minutes
	system time =     128.06 seconds =       2.13 minutes
	total time  =       2868 seconds =      47.80 minutes
Total time:
	user time   =    5904.39 seconds =      98.41 minutes
	system time =     128.06 seconds =       2.13 minutes
	total time  =       2868 seconds =      47.80 minutes

			-----------------------------------------
			 OPTKING 2.0: for geometry optimizations 
			  - R.A. King,  Bethel University        
			-----------------------------------------

	Internal coordinates to be generated automatically.
	Detected frag 1 with atoms:  1 2 3 4 5 6 7 8 9 10 11 12 13 14 15 16 17 18 19 20
	 21 22
	---Fragment 1 Bond Connectivity---
	 1 : 2 8 15
	 2 : 1 10 16
	 3 : 6 9 17
	 4 : 7 9 18
	 5 : 10 11 19
	 6 : 3 12 20
	 7 : 4 12 21
	 8 : 1 9 11
	 9 : 3 4 8
	 10 : 2 5 13
	 11 : 5 8 14
	 12 : 6 7 22
	 13 : 10
	 14 : 11
	 15 : 1
	 16 : 2
	 17 : 3
	 18 : 4
	 19 : 5
	 20 : 6
	 21 : 7
	 22 : 12

	Assuming in current code that numbering for constraints corresponds to unified fragment.
	Fixed dihedral atom list: 
	     1     8     9     3
	---Fragment 1 Geometry and Gradient---
	 C          -2.5730353569        1.4663705637       -1.4540730747
	 C          -4.6101601281        2.5491836378       -0.1822873872
	 C           1.3179107507       -1.2699528767       -3.9995341757
	 C           3.7065245827       -1.3682186356       -0.1237058771
	 C          -2.7336620782        1.3851123400        3.8144833838
	 C           3.3701533311       -2.3470967725       -5.2240767098
	 C           5.6982959268       -2.4415830791       -1.4465141701
	 C          -0.6152790832        0.3419835146       -0.0934702590
	 C           1.4955450072       -0.7786240822       -1.4219477304
	 C          -4.6914183518        2.5094993891        2.4519908420
	 C          -0.6965373069        0.3022992658        2.5408079702
	 N           5.4771979692       -2.8951173510       -3.9296143088
	 O          -6.5641369495        3.5053850611        3.6217313183
	 F           1.1705121124       -0.7710651776        3.8768443462
	 H          -2.5371305603        1.5098342648       -3.5100951073
	 H          -6.1143821299        3.4108987544       -1.2896669011
	 H          -0.3828427689       -0.8296466878       -5.0596705362
	 H           3.8973869221       -1.0053912181        1.8869627283
	 H          -2.7506696134        1.3284205560        5.8705054164
	 H           3.4022786753       -2.7930721398       -7.2177377800
	 H           7.4821973962       -2.9593680395       -0.5961374103
	 H           6.9625227097       -3.6888023268       -4.8650287445
	             0.0407319715       -0.0167709958       -0.0093418058
	            -0.0282487944        0.0137764046        0.0572147446
	            -0.0258348766        0.0136698478        0.0323095210
	            -0.0462772264        0.0202285174        0.0090704386
	            -0.0582607238        0.0324666313       -0.0043423369
	             0.0302939836       -0.0123667276        0.0036421433
	             0.0115862480       -0.0103278295       -0.0273958948
	            -0.0533857355        0.0282713043        0.0295318680
	             0.0531922438       -0.0273792323       -0.0349377433
	             0.0646352290       -0.0339731765       -0.0412268051
	             0.0488426414       -0.0321443174       -0.0228620541
	            -0.0200359826        0.0113708015        0.0131452880
	            -0.0229649682        0.0121609089        0.0135894152
	             0.0050644157        0.0036421404       -0.0147156638
	            -0.0000573437       -0.0015212734       -0.0082422072
	            -0.0030101500        0.0010769313       -0.0090012304
	            -0.0077472377        0.0042613785       -0.0022443721
	            -0.0054078760        0.0022398227        0.0163159409
	             0.0036623606       -0.0016912706        0.0074694468
	             0.0019217737       -0.0008345443       -0.0024963077
	             0.0026641825       -0.0017526745       -0.0003785117
	             0.0086358653       -0.0044026467       -0.0051038734

	Previous optimization step data not found.  Starting new optimization.

	---Fragment 1 Intrafragment Coordinates---
	 - Coordinate -           - BOHR/RAD -       - ANG/DEG -
	 R(1,2)           =         2.634350	       1.394038
	 R(1,8)           =         2.635962	       1.394891
	 R(1,15)          =         2.056795	       1.088409
	 R(2,10)          =         2.635830	       1.394821
	 R(2,16)          =         2.057067	       1.088553
	 R(3,6)           =         2.621344	       1.387155
	 R(3,9)           =         2.630002	       1.391737
	 R(3,17)          =         2.051907	       1.085822
	 R(4,7)           =         2.620894	       1.386917
	 R(4,9)           =         2.630871	       1.392197
	 R(4,18)          =         2.052038	       1.085892
	 R(5,10)          =         2.636938	       1.395407
	 R(5,11)          =         2.635263	       1.394521
	 R(5,19)          =         2.056874	       1.088451
	 R(6,12)          =         2.532903	       1.340354
	 R(6,20)          =         2.043186	       1.081208
	 R(7,12)          =         2.533844	       1.340852
	 R(7,21)          =         2.042926	       1.081070
	 R(8,9)           =         2.734263	       1.446909
	 R(8,11)          =         2.635830	       1.394821
	 R(10,13)         =         2.422221	       1.281784
	 R(11,14)         =         2.534359	       1.341125
	 R(12,22)         =         1.926428	       1.019422
	 B(1,2,10)        =         2.094553	     120.009056
	 B(1,2,16)        =         2.068903	     118.539404
	 B(1,8,9)         =         2.091392	     119.827938
	 B(1,8,11)        =         2.093692	     119.959722
	 B(2,1,8)         =         2.094940	     120.031219
	 B(2,1,15)        =         2.079908	     119.169966
	 B(2,10,5)        =         2.094306	     119.994870
	 B(2,10,13)       =         2.094719	     120.018581
	 B(3,6,12)        =         2.096054	     120.095056
	 B(3,6,20)        =         2.162555	     123.905257
	 B(3,9,4)         =         2.092693	     119.902453
	 B(3,9,8)         =         2.095092	     120.039934
	 B(4,7,12)        =         2.096244	     120.105940
	 B(4,7,21)        =         2.161941	     123.870093
	 B(4,9,8)         =         2.095400	     120.057603
	 B(5,10,13)       =         2.094160	     119.986548
	 B(5,11,8)        =         2.095181	     120.045019
	 B(5,11,14)       =         2.081414	     119.256220
	 B(6,3,9)         =         2.073413	     118.797825
	 B(6,3,17)        =         2.089480	     119.718398
	 B(6,12,7)        =         2.134931	     122.322545
	 B(6,12,22)       =         2.074164	     118.840835
	 B(7,4,9)         =         2.073035	     118.776159
	 B(7,4,18)        =         2.090092	     119.753460
	 B(7,12,22)       =         2.074087	     118.836440
	 B(8,1,15)        =         2.108336	     120.798746
	 B(8,11,14)       =         2.106591	     120.698759
	 B(9,3,17)        =         2.120292	     121.483775
	 B(9,4,18)        =         2.120058	     121.470378
	 B(9,8,11)        =         2.098101	     120.212327
	 B(10,2,16)       =         2.119728	     121.451467
	 B(10,5,11)       =         2.093699	     119.960108
	 B(10,5,19)       =         2.120101	     121.472852
	 B(11,5,19)       =         2.069385	     118.567038
	 B(12,6,20)       =         2.024576	     115.999643
	 B(12,7,21)       =         2.025000	     116.023966
	 D(1,2,10,5)      =        -0.000325	      -0.018609
	 D(1,2,10,13)     =         3.141392	     179.988520
	 D(1,8,9,3)       =        -0.262048	     -15.014226
	 D(1,8,9,4)       =         2.880157	     165.020854
	 D(1,8,11,5)      =         0.000325	       0.018608
	 D(1,8,11,14)     =        -3.141528	    -179.996269
	 D(2,1,8,9)       =        -3.141211	    -179.978157
	 D(2,1,8,11)      =        -0.000348	      -0.019945
	 D(2,10,5,11)     =         0.000301	       0.017261
	 D(2,10,5,19)     =        -3.141543	    -179.997173
	 D(3,6,12,7)      =         0.000916	       0.052465
	 D(3,6,12,22)     =         3.139783	     179.896302
	 D(3,9,4,7)       =         0.000247	       0.014149
	 D(3,9,4,18)      =         3.141490	     179.994137
	 D(3,9,8,11)      =         2.880276	     165.027668
	 D(4,7,12,6)      =        -0.000370	      -0.021201
	 D(4,7,12,22)     =        -3.139237	    -179.865045
	 D(4,9,3,6)       =         0.000278	       0.015934
	 D(4,9,3,17)      =        -3.141507	    -179.995087
	 D(4,9,8,11)      =        -0.260704	     -14.937252
	 D(5,10,2,16)     =         3.139529	     179.881752
	 D(5,11,8,9)      =         3.141185	     179.976658
	 D(6,3,9,8)       =        -3.140703	    -179.949040
	 D(6,12,7,21)     =         3.141420	     179.990110
	 D(7,4,9,8)       =         3.141228	     179.979117
	 D(7,12,6,20)     =         3.141230	     179.979222
	 D(8,1,2,10)      =         0.000348	       0.019955
	 D(8,1,2,16)      =        -3.139556	    -179.883288
	 D(8,9,3,17)      =         0.000697	       0.039939
	 D(8,9,4,18)      =        -0.000714	      -0.040895
	 D(8,11,5,10)     =        -0.000301	      -0.017270
	 D(8,11,5,19)     =         3.141536	     179.996748
	 D(9,3,6,12)      =        -0.000853	      -0.048872
	 D(9,3,6,20)      =        -3.141061	    -179.969554
	 D(9,4,7,12)      =        -0.000217	      -0.012434
	 D(9,4,7,21)      =         3.141162	     179.975324
	 D(9,8,1,15)      =         0.002066	       0.118384
	 D(9,8,11,14)     =        -0.000667	      -0.038219
	 D(10,2,1,15)     =         3.140283	     179.924984
	 D(10,5,11,14)    =         3.141547	     179.997392
	 D(11,5,10,13)    =        -3.141416	    -179.989865
	 D(11,8,1,15)     =        -3.140256	    -179.923403
	 D(12,6,3,17)     =         3.140929	     179.961950
	 D(12,7,4,18)     =        -3.141467	    -179.992774
	 D(13,10,2,16)    =        -0.001939	      -0.111119
	 D(13,10,5,19)    =        -0.000075	      -0.004300
	 D(14,11,5,19)    =         0.000199	       0.011410
	 D(15,1,2,16)     =         0.000379	       0.021741
	 D(17,3,6,20)     =         0.000720	       0.041268
	 D(18,4,7,21)     =        -0.000088	      -0.005016
	 D(20,6,12,22)    =        -0.003088	      -0.176941
	 D(21,7,12,22)    =         0.002553	       0.146266
	 R(4,14)          =         4.774134	       2.526363

	Current energy   :      -652.8118442960

	Generating empirical Hessian (Schlegel '84) for each fragment.
	Adding user-defined constraint: Fragment 1; Coordinate 62:
		Value =    -0.262048; Fixed value    =    -0.261799
		Force =     0.000124; Force constant =     0.500000
	Removing off-diagonal coupling between coordinate 62 and others.
	Taking RFO optimization step.
	Going to follow RFO solution 1.
	Using RFO vector 1.

	Determining step-restricting scale parameter for RS-RFO.
	Maximum step size allowed    0.10000

	 Iter      |step|        alpha        rfo_root  
	------------------------------------------------
	    0     0.37947       1.00000           1
	    1     0.26082       3.94846           1
	    2     0.18363      12.31854           1
	    3     0.13565      29.34029           1
	    4     0.11053      50.25882           1
	    5     0.10140      62.47900           1
	    6     0.10003      64.62919           1
	    7     0.10000      64.67831           1
	------------------------------------------------
	Norm of target step-size    0.10000
	Projected energy change by RFO approximation:        -0.0103179155

	Back-transformation to cartesian coordinates...
	Could not converge backtransformation.
	Using first guess instead.

	--- Internal Coordinate Step in ANG or DEG, aJ/ANG or AJ/DEG ---
	 ---------------------------------------------------------------------------
	   Coordinate                Previous        Force       Change         New 
	   ----------                --------       ------       ------       ------
	    1 R(1,2)          =      1.394038    -0.198519    -0.010987     1.383051
	    2 R(1,8)          =      1.394891     0.170781     0.009456     1.404347
	    3 R(1,15)         =      1.088409    -0.067606    -0.004164     1.084245
	    4 R(2,10)         =      1.394821     0.272054     0.015261     1.410082
	    5 R(2,16)         =      1.088553    -0.061772    -0.003809     1.084744
	    6 R(3,6)          =      1.387155    -0.191933    -0.010573     1.376582
	    7 R(3,9)          =      1.391737     0.207275     0.011573     1.403310
	    8 R(3,17)         =      1.085822    -0.069992    -0.004279     1.081544
	    9 R(4,7)          =      1.386917    -0.169300    -0.009261     1.377657
	   10 R(4,9)          =      1.392197     0.232555     0.013022     1.405219
	   11 R(4,18)         =      1.085892    -0.130830    -0.007944     1.077948
	   12 R(5,10)         =      1.395407     0.243223     0.013654     1.409062
	   13 R(5,11)         =      1.394521    -0.257884    -0.014321     1.380200
	   14 R(5,19)         =      1.088451    -0.061649    -0.003798     1.084653
	   15 R(6,12)         =      1.340354     0.105451     0.005296     1.345651
	   16 R(6,20)         =      1.081208    -0.021818    -0.001322     1.079885
	   17 R(7,12)         =      1.340852     0.120202     0.006079     1.346931
	   18 R(7,21)         =      1.081070    -0.021527    -0.001316     1.079754
	   19 R(8,9)          =      1.446909    -0.159194    -0.009378     1.437532
	   20 R(8,11)         =      1.394821     0.119613     0.006720     1.401541
	   21 R(10,13)        =      1.281784    -0.241540    -0.010953     1.270831
	   22 R(11,14)        =      1.341125     0.046265     0.002366     1.343491
	   23 R(12,22)        =      1.019422    -0.090219    -0.005103     1.014319
	   24 B(1,2,10)       =    120.009056     0.000399     0.340901   120.349958
	   25 B(1,2,16)       =    118.539404     0.000260     0.234347   118.773751
	   26 B(1,8,9)        =    119.827938     0.000826     0.653385   120.481323
	   27 B(1,8,11)       =    119.959722    -0.001253    -1.038681   118.921041
	   28 B(2,1,8)        =    120.031219     0.000654     0.531817   120.563036
	   29 B(2,1,15)       =    119.169966    -0.000377    -0.313024   118.856942
	   30 B(2,10,5)       =    119.994870    -0.001254    -0.970596   119.024274
	   31 B(2,10,13)      =    120.018581     0.000687     0.533711   120.552292
	   32 B(3,6,12)       =    120.095056     0.000010    -0.012976   120.082080
	   33 B(3,6,20)       =    123.905257    -0.000149    -0.120843   123.784414
	   34 B(3,9,4)        =    119.902453    -0.001370    -1.085849   118.816604
	   35 B(3,9,8)        =    120.039934     0.000409     0.302734   120.342668
	   36 B(4,7,12)       =    120.105940     0.000207     0.165736   120.271677
	   37 B(4,7,21)       =    123.870093    -0.000242    -0.205881   123.664212
	   38 B(4,9,8)        =    120.057603     0.000961     0.783124   120.840727
	   39 B(5,10,13)      =    119.986548     0.000567     0.436884   120.423432
	   40 B(5,11,8)       =    120.045019     0.001283     0.998148   121.043167
	   41 B(5,11,14)      =    119.256220    -0.000257    -0.213079   119.043141
	   42 B(6,3,9)        =    118.797825     0.000838     0.686852   119.484678
	   43 B(6,3,17)       =    119.718398    -0.000649    -0.551203   119.167195
	   44 B(6,12,7)       =    122.322545    -0.000158    -0.151144   122.171401
	   45 B(6,12,22)      =    118.840835     0.000059     0.056851   118.897686
	   46 B(7,4,9)        =    118.776159     0.000474     0.397366   119.173525
	   47 B(7,4,18)       =    119.753460    -0.000721    -0.634672   119.118788
	   48 B(7,12,22)      =    118.836440     0.000100     0.094340   118.930780
	   49 B(8,1,15)       =    120.798746    -0.000276    -0.218725   120.580021
	   50 B(8,11,14)      =    120.698759    -0.001026    -0.785332   119.913427
	   51 B(9,3,17)       =    121.483775    -0.000189    -0.135714   121.348062
	   52 B(9,4,18)       =    121.470378     0.000247     0.237135   121.707513
	   53 B(9,8,11)       =    120.212327     0.000427     0.385309   120.597636
	   54 B(10,2,16)      =    121.451467    -0.000659    -0.575234   120.876233
	   55 B(10,5,11)      =    119.960108     0.000172     0.138374   120.098482
	   56 B(10,5,19)      =    121.472852    -0.000397    -0.343488   121.129364
	   57 B(11,5,19)      =    118.567038     0.000226     0.205116   118.772154
	   58 B(12,6,20)      =    115.999643     0.000139     0.133846   116.133489
	   59 B(12,7,21)      =    116.023966     0.000035     0.040131   116.064097
	   60 D(1,2,10,5)     =     -0.018609     0.000005     0.019961     0.001352
	   61 D(1,2,10,13)    =    179.988520     0.000006     0.028844   180.017364
	   62 D(1,8,9,3)      =    -15.014226    -0.000003    -0.011952   -15.026178
	   63 D(1,8,9,4)      =    165.020854    -0.000009    -0.043361   164.977493
	   64 D(1,8,11,5)     =      0.018608     0.000001     0.005743     0.024351
	   65 D(1,8,11,14)    =   -179.996269    -0.000036    -0.168282  -180.164552
	   66 D(2,1,8,9)      =   -179.978157     0.000005     0.020507  -179.957651
	   67 D(2,1,8,11)     =     -0.019945     0.000012     0.053355     0.033411
	   68 D(2,10,5,11)    =      0.017261     0.000008     0.038456     0.055717
	   69 D(2,10,5,19)    =   -179.997173     0.000012     0.057064  -179.940109
	   70 D(3,6,12,7)     =      0.052465    -0.000003    -0.015421     0.037044
	   71 D(3,6,12,22)    =    179.896302     0.000001     0.006606   179.902908
	   72 D(3,9,4,7)      =      0.014149    -0.000003    -0.015148    -0.001000
	   73 D(3,9,4,18)     =    179.994137    -0.000031    -0.147976   179.846161
	   74 D(3,9,8,11)     =    165.027668    -0.000010    -0.044756   164.982912
	   75 D(4,7,12,6)     =     -0.021201     0.000008     0.035853     0.014651
	   76 D(4,7,12,22)    =   -179.865045     0.000003     0.013875  -179.851170
	   77 D(4,9,3,6)      =      0.015934     0.000007     0.035141     0.051075
	   78 D(4,9,3,17)     =   -179.995087    -0.000011    -0.047863  -180.042950
	   79 D(4,9,8,11)     =    -14.937252    -0.000016    -0.076166   -15.013418
	   80 D(5,10,2,16)    =    179.881752     0.000007     0.030221   179.911974
	   81 D(5,11,8,9)     =    179.976658     0.000008     0.038743   180.015401
	   82 D(6,3,9,8)      =   -179.949040     0.000001     0.003712  -179.945328
	   83 D(6,12,7,21)    =    179.990110     0.000014     0.066015   180.056126
	   84 D(7,4,9,8)      =    179.979117     0.000003     0.016268   179.995385
	   85 D(7,12,6,20)    =    179.979222     0.000002     0.011411   179.990632
	   86 D(8,1,2,10)     =      0.019955    -0.000014    -0.065798    -0.045843
	   87 D(8,1,2,16)     =   -179.883288    -0.000016    -0.075037  -179.958325
	   88 D(8,9,3,17)     =      0.039939    -0.000017    -0.079292    -0.039353
	   89 D(8,9,4,18)     =     -0.040895    -0.000025    -0.116560    -0.157455
	   90 D(8,11,5,10)    =     -0.017270    -0.000011    -0.051653    -0.068923
	   91 D(8,11,5,19)    =    179.996748    -0.000015    -0.069746   179.927002
	   92 D(9,3,6,12)     =     -0.048872    -0.000004    -0.020547    -0.069418
	   93 D(9,3,6,20)     =   -179.969554    -0.000011    -0.049732  -180.019286
	   94 D(9,4,7,12)     =     -0.012434    -0.000004    -0.019605    -0.032039
	   95 D(9,4,7,21)     =    179.975324    -0.000011    -0.052126   179.923198
	   96 D(9,8,1,15)     =      0.118384    -0.000020    -0.091179     0.027205
	   97 D(9,8,11,14)    =     -0.038219    -0.000029    -0.135282    -0.173501
	   98 D(10,2,1,15)    =    179.924984     0.000009     0.044059   179.969043
	   99 D(10,5,11,14)   =    179.997392     0.000026     0.120972   180.118365
	  100 D(11,5,10,13)   =   -179.989865     0.000006     0.029592  -179.960273
	  101 D(11,8,1,15)    =   -179.923403    -0.000013    -0.058330  -179.981733
	  102 D(12,6,3,17)    =    179.961950     0.000013     0.060591   180.022541
	  103 D(12,7,4,18)    =   -179.992774     0.000023     0.109573  -179.883200
	  104 D(13,10,2,16)   =     -0.111119     0.000008     0.039104    -0.072015
	  105 D(13,10,5,19)   =     -0.004300     0.000010     0.048200     0.043900
	  106 D(14,11,5,19)   =      0.011410     0.000022     0.102879     0.114289
	  107 D(15,1,2,16)    =      0.021741     0.000008     0.034820     0.056561
	  108 D(17,3,6,20)    =      0.041268     0.000007     0.031406     0.072674
	  109 D(18,4,7,21)    =     -0.005016     0.000017     0.077052     0.072037
	  110 D(20,6,12,22)   =     -0.176941     0.000007     0.033438    -0.143503
	  111 D(21,7,12,22)   =      0.146266     0.000009     0.044037     0.190304
	  112 R(4,14)         =      2.526363     0.149697     0.013169     2.539532
	 ---------------------------------------------------------------------------
	Successfully symmetrized geometry.
	 Forces used to impose fixed constraints are not included.
	  Forces zeroed: 62 

  ==> Convergence Check <==

  Measures of convergence in internal coordinates in au.
  Criteria marked as inactive (o), active & met (*), and active & unmet ( ).
  --------------------------------------------------------------------------------------------- ~
   Step     Total Energy     Delta E     MAX Force     RMS Force      MAX Disp      RMS Disp    ~
  --------------------------------------------------------------------------------------------- ~
    Convergence Criteria    1.00e-06 *    3.00e-04 *             o    1.20e-03 *             o  ~
  --------------------------------------------------------------------------------------------- ~
      1    -652.81184430   -6.53e+02      3.30e-02      1.02e-02 o    2.88e-02      9.45e-03 o  ~
  ---------------------------------------------------------------------------------------------

	Writing optimization data to binary file.
	Structure for next step:
	Cartesian Geometry (in Angstrom)
	    C    -1.3719165581   0.7822528017  -0.7688147515
	    C    -2.4426409071   1.3513247133  -0.1035803009
	    C     0.7056965125  -0.6766390948  -2.1209151643
	    C     1.9750122894  -0.7279678920  -0.0639469212
	    C    -1.4448407205   0.7303236353   2.0225761158
	    C     1.7812470396  -1.2431580503  -2.7668451440
	    C     3.0197960227  -1.2926272944  -0.7621769618
	    C    -0.3240105976   0.1812465393  -0.0526612710
	    C     0.7884926533  -0.4089190182  -0.7458700026
	    C    -2.4965166401   1.3345180302   1.3053722218
	    C    -0.3809897808   0.1667250891   1.3476460798
	    N     2.9020748316  -1.5352097102  -2.0818435294
	    O    -3.4786813875   1.8559790302   1.9205489234
	    F     0.6090641887  -0.4058499584   2.0525713978
	    H    -1.3554638821   0.8083893739  -1.8526201790
	    H    -3.2364747598   1.8070964209  -0.6856194079
	    H    -0.1879074619  -0.4483182312  -2.6857854255
	    H     2.0900455387  -0.5401317011   0.9912574469
	    H    -1.4518709728   0.6972809308   3.1067031183
	    H     1.7929745845  -1.4784150541  -3.8207278986
	    H     3.9627148169  -1.5648991193  -0.3120210384
	    H     3.6831784998  -1.9536640440  -2.5754185841
			--------------------------
			 OPTKING Finished Execution 
			--------------------------

    Structure for next step:
    Molecular point group: c1
    Full point group: C1

    Geometry (in Angstrom), charge = 0, multiplicity = 1:

    C           -1.369899212945     0.781462317220    -0.769641254446
    C           -2.440623561883     1.350534228793    -0.104406803841
    C            0.707713857671    -0.677429579290    -2.121741667295
    C            1.977029634561    -0.728758376530    -0.064773424158
    C           -1.442823375321     0.729533150750     2.021749612766
    C            1.783264384776    -1.243948534854    -2.767671646987
    C            3.021813367912    -1.293417778957    -0.763003464807
    C           -0.321993252468     0.180456054758    -0.053487774029
    C            0.790509998473    -0.409709502711    -0.746696505583
    C           -2.494499294871     1.333727545702     1.304545718862
    C           -0.378972435587     0.165934604570     1.346819576767
    N            2.904092176821    -1.536000194694    -2.082670032400
    O           -3.476664042319     1.855188545729     1.919722420441
    F            0.611081533848    -0.406640442917     2.051744894783
    H           -1.353446536910     0.807598889356    -1.853446681942
    H           -3.234457414666     1.806305936342    -0.686445910842
    H           -0.185890116768    -0.449108715742    -2.686611928475
    H            2.092062883831    -0.540922185592     0.990430943959
    H           -1.449853627585     0.696490446302     3.105876615283
    H            1.794991929702    -1.479205538610    -3.821554401624
    H            3.964732162113    -1.565689603857    -0.312847541406
    H            3.685195845007    -1.954454528486    -2.576245087096

gradient() will perform analytic gradient computation.

*** tstart() called on gpu-1-14.local
*** at Sun Nov 12 02:40:05 2017

    SCF Algorithm Type (re)set to DF.

*** tstart() called on gpu-1-14.local
*** at Sun Nov 12 02:40:05 2017

   => Loading Basis Set <=

    Name: AUG-CC-PVTZ
    Role: ORBITAL
    Keyword: BASIS
    atoms 1-11  entry C          line   221 file /cbio/jclab/home/chayas/anaconda/envs/py35/share/psi4/basis/aug-cc-pvtz.gbs 
    atoms 12    entry N          line   267 file /cbio/jclab/home/chayas/anaconda/envs/py35/share/psi4/basis/aug-cc-pvtz.gbs 
    atoms 13    entry O          line   313 file /cbio/jclab/home/chayas/anaconda/envs/py35/share/psi4/basis/aug-cc-pvtz.gbs 
    atoms 14    entry F          line   359 file /cbio/jclab/home/chayas/anaconda/envs/py35/share/psi4/basis/aug-cc-pvtz.gbs 
    atoms 15-22 entry H          line    34 file /cbio/jclab/home/chayas/anaconda/envs/py35/share/psi4/basis/aug-cc-pvtz.gbs 


         ---------------------------------------------------------
                                   SCF
            by Justin Turney, Rob Parrish, and Andy Simmonett
                              RHF Reference
                        8 Threads,   4768 MiB Core
         ---------------------------------------------------------

  ==> Geometry <==

    Molecular point group: c1
    Full point group: C1

    Geometry (in Angstrom), charge = 0, multiplicity = 1:

       Center              X                  Y                   Z               Mass       
    ------------   -----------------  -----------------  -----------------  -----------------
           C         -1.369899212945     0.781462317220    -0.769641254446    12.000000000000
           C         -2.440623561883     1.350534228793    -0.104406803841    12.000000000000
           C          0.707713857671    -0.677429579290    -2.121741667295    12.000000000000
           C          1.977029634561    -0.728758376530    -0.064773424158    12.000000000000
           C         -1.442823375321     0.729533150750     2.021749612766    12.000000000000
           C          1.783264384776    -1.243948534854    -2.767671646987    12.000000000000
           C          3.021813367912    -1.293417778957    -0.763003464807    12.000000000000
           C         -0.321993252468     0.180456054758    -0.053487774029    12.000000000000
           C          0.790509998473    -0.409709502711    -0.746696505583    12.000000000000
           C         -2.494499294871     1.333727545702     1.304545718862    12.000000000000
           C         -0.378972435587     0.165934604570     1.346819576767    12.000000000000
           N          2.904092176821    -1.536000194694    -2.082670032400    14.003074004780
           O         -3.476664042319     1.855188545729     1.919722420441    15.994914619560
           F          0.611081533848    -0.406640442917     2.051744894783    18.998403224000
           H         -1.353446536910     0.807598889356    -1.853446681942     1.007825032070
           H         -3.234457414666     1.806305936342    -0.686445910842     1.007825032070
           H         -0.185890116768    -0.449108715742    -2.686611928475     1.007825032070
           H          2.092062883831    -0.540922185592     0.990430943959     1.007825032070
           H         -1.449853627585     0.696490446302     3.105876615283     1.007825032070
           H          1.794991929702    -1.479205538610    -3.821554401624     1.007825032070
           H          3.964732162113    -1.565689603857    -0.312847541406     1.007825032070
           H          3.685195845007    -1.954454528486    -2.576245087096     1.007825032070

  Running in c1 symmetry.

  Rotational constants: A =      0.06281  B =      0.01374  C =      0.01134 [cm^-1]
  Rotational constants: A =   1882.85470  B =    411.94717  C =    339.82745 [MHz]
  Nuclear repulsion =  819.568110587686419

  Charge       = 0
  Multiplicity = 1
  Electrons    = 98
  Nalpha       = 49
  Nbeta        = 49

  ==> Algorithm <==

  SCF Algorithm Type is DF.
  DIIS enabled.
  MOM disabled.
  Fractional occupation disabled.
  Guess Type is READ.
  Energy threshold   = 1.00e-10
  Density threshold  = 1.00e-10
  Integral threshold = 0.00e+00

  ==> Primary Basis <==

  Basis Set: AUG-CC-PVTZ
    Blend: AUG-CC-PVTZ
    Number of shells: 268
    Number of basis function: 828
    Number of Cartesian functions: 970
    Spherical Harmonics?: true
    Max angular momentum: 3

   => Loading Basis Set <=

    Name: (AUG-CC-PVTZ AUX)
    Role: JKFIT
    Keyword: DF_BASIS_SCF
    atoms 1-11  entry C          line   161 file /cbio/jclab/home/chayas/anaconda/envs/py35/share/psi4/basis/aug-cc-pvtz-jkfit.gbs 
    atoms 12    entry N          line   223 file /cbio/jclab/home/chayas/anaconda/envs/py35/share/psi4/basis/aug-cc-pvtz-jkfit.gbs 
    atoms 13    entry O          line   285 file /cbio/jclab/home/chayas/anaconda/envs/py35/share/psi4/basis/aug-cc-pvtz-jkfit.gbs 
    atoms 14    entry F          line   347 file /cbio/jclab/home/chayas/anaconda/envs/py35/share/psi4/basis/aug-cc-pvtz-jkfit.gbs 
    atoms 15-22 entry H          line    69 file /cbio/jclab/home/chayas/anaconda/envs/py35/share/psi4/basis/aug-cc-pvtz-jkfit.gbs 

  Reading orbitals from file 180, no projection.

  ==> Pre-Iterations <==

   -------------------------------------------------------
    Irrep   Nso     Nmo     Nalpha   Nbeta   Ndocc  Nsocc
   -------------------------------------------------------
     A        828     828       0       0       0       0
   -------------------------------------------------------
    Total     828     828      49      49      49       0
   -------------------------------------------------------

  ==> Integral Setup <==

  ==> DFJK: Density-Fitted J/K Matrices <==

    J tasked:                  Yes
    K tasked:                  Yes
    wK tasked:                  No
    OpenMP threads:              8
    Integrals threads:           8
    Memory (MB):              3576
    Algorithm:                Disk
    Integral Cache:           NONE
    Schwarz Cutoff:          1E-12
    Fitting Condition:       1E-12

   => Auxiliary Basis Set <=

  Basis Set: (AUG-CC-PVTZ AUX)
    Blend: AUG-CC-PVTZ-JKFIT
    Number of shells: 532
    Number of basis function: 1824
    Number of Cartesian functions: 2274
    Spherical Harmonics?: true
    Max angular momentum: 4

  Minimum eigenvalue in the overlap matrix is 6.3638720585E-07.
  Using Symmetric Orthogonalization.

  SCF Guess: Orbitals guess was supplied from a previous computation.

  ==> Iterations <==

                           Total Energy        Delta E     RMS |[F,P]|

   @DF-RHF iter   0:  -650.19051893346239   -6.50191e+02   5.85918e-04 
   @DF-RHF iter   1:  -650.11506494191917    7.54540e-02   1.01541e-04 
   @DF-RHF iter   2:  -650.11548733935331   -4.22397e-04   6.60466e-05 DIIS
   @DF-RHF iter   3:  -650.11567141756666   -1.84078e-04   1.00357e-05 DIIS
   @DF-RHF iter   4:  -650.11569443543533   -2.30179e-05   6.94675e-06 DIIS
   @DF-RHF iter   5:  -650.11570732850134   -1.28931e-05   3.93430e-06 DIIS
   @DF-RHF iter   6:  -650.11571203503263   -4.70653e-06   1.81641e-06 DIIS
   @DF-RHF iter   7:  -650.11571293259647   -8.97564e-07   5.60488e-07 DIIS
   @DF-RHF iter   8:  -650.11571298030537   -4.77089e-08   1.50746e-07 DIIS
   @DF-RHF iter   9:  -650.11571298310139   -2.79601e-09   6.14360e-08 DIIS
   @DF-RHF iter  10:  -650.11571298356091   -4.59522e-10   2.30953e-08 DIIS
   @DF-RHF iter  11:  -650.11571298363572   -7.48059e-11   1.08592e-08 DIIS
   @DF-RHF iter  12:  -650.11571298363845   -2.72848e-12   4.00697e-09 DIIS
   @DF-RHF iter  13:  -650.11571298364515   -6.70752e-12   1.38073e-09 DIIS
   @DF-RHF iter  14:  -650.11571298364743   -2.27374e-12   5.98233e-10 DIIS
   @DF-RHF iter  15:  -650.11571298365880   -1.13687e-11   2.84167e-10 DIIS
   @DF-RHF iter  16:  -650.11571298365936   -5.68434e-13   1.31746e-10 DIIS
   @DF-RHF iter  17:  -650.11571298365311    6.25278e-12   6.36860e-11 DIIS

  ==> Post-Iterations <==

    Orbital Energies (a.u.)
    -----------------------

    Doubly Occupied:                                                      

       1A    -26.317856     2A    -20.452355     3A    -15.687319  
       4A    -11.350309     5A    -11.345459     6A    -11.327348  
       7A    -11.309497     8A    -11.279861     9A    -11.270107  
      10A    -11.266470    11A    -11.241738    12A    -11.228804  
      13A    -11.200141    14A    -11.197995    15A     -1.641481  
      16A     -1.371541    17A     -1.278995    18A     -1.178686  
      19A     -1.118055    20A     -1.103962    21A     -1.011035  
      22A     -1.001493    23A     -0.932680    24A     -0.906677  
      25A     -0.839036    26A     -0.831054    27A     -0.813842  
      28A     -0.749293    29A     -0.725791    30A     -0.722549  
      31A     -0.706123    32A     -0.687028    33A     -0.680145  
      34A     -0.650806    35A     -0.643876    36A     -0.618382  
      37A     -0.609768    38A     -0.597506    39A     -0.561575  
      40A     -0.547301    41A     -0.525002    42A     -0.509114  
      43A     -0.494473    44A     -0.475294    45A     -0.414929  
      46A     -0.397432    47A     -0.361893    48A     -0.335898  
      49A     -0.247606  

    Virtual:                                                              

      50A     -0.004937    51A      0.013532    52A      0.023503  
      53A      0.026217    54A      0.039620    55A      0.043767  
      56A      0.045401    57A      0.058714    58A      0.061030  
      59A      0.063124    60A      0.064962    61A      0.070604  
      62A      0.073413    63A      0.083322    64A      0.085698  
      65A      0.094967    66A      0.098951    67A      0.105425  
      68A      0.109004    69A      0.111003    70A      0.118794  
      71A      0.120307    72A      0.122070    73A      0.130330  
      74A      0.132206    75A      0.136252    76A      0.139333  
      77A      0.145349    78A      0.148280    79A      0.150236  
      80A      0.154388    81A      0.158569    82A      0.163064  
      83A      0.165586    84A      0.169580    85A      0.175260  
      86A      0.178596    87A      0.180500    88A      0.184982  
      89A      0.189286    90A      0.195011    91A      0.198859  
      92A      0.202565    93A      0.204934    94A      0.211722  
      95A      0.217046    96A      0.221106    97A      0.229012  
      98A      0.229955    99A      0.234626   100A      0.236854  
     101A      0.242206   102A      0.246811   103A      0.249836  
     104A      0.252761   105A      0.257492   106A      0.260684  
     107A      0.266987   108A      0.273235   109A      0.274809  
     110A      0.278348   111A      0.288522   112A      0.289229  
     113A      0.292260   114A      0.299122   115A      0.301395  
     116A      0.302014   117A      0.310293   118A      0.313850  
     119A      0.318594   120A      0.320698   121A      0.332063  
     122A      0.334947   123A      0.337343   124A      0.339355  
     125A      0.346696   126A      0.348289   127A      0.352005  
     128A      0.355532   129A      0.358457   130A      0.365767  
     131A      0.366891   132A      0.369835   133A      0.378440  
     134A      0.381295   135A      0.383212   136A      0.391295  
     137A      0.398286   138A      0.401838   139A      0.403347  
     140A      0.408285   141A      0.416250   142A      0.418451  
     143A      0.423039   144A      0.429976   145A      0.434627  
     146A      0.436703   147A      0.442847   148A      0.445956  
     149A      0.448402   150A      0.454633   151A      0.455137  
     152A      0.458694   153A      0.462020   154A      0.465555  
     155A      0.469415   156A      0.471197   157A      0.475378  
     158A      0.478649   159A      0.480035   160A      0.488062  
     161A      0.490132   162A      0.493219   163A      0.495135  
     164A      0.497343   165A      0.501268   166A      0.508796  
     167A      0.511965   168A      0.515835   169A      0.518846  
     170A      0.527605   171A      0.533170   172A      0.535455  
     173A      0.539841   174A      0.541914   175A      0.549459  
     176A      0.551716   177A      0.555818   178A      0.561605  
     179A      0.566131   180A      0.569182   181A      0.573063  
     182A      0.585967   183A      0.589256   184A      0.600904  
     185A      0.603626   186A      0.607470   187A      0.612082  
     188A      0.618967   189A      0.622666   190A      0.629030  
     191A      0.636547   192A      0.636979   193A      0.645573  
     194A      0.653070   195A      0.659687   196A      0.666371  
     197A      0.676443   198A      0.679144   199A      0.680369  
     200A      0.685801   201A      0.693580   202A      0.695857  
     203A      0.702043   204A      0.706782   205A      0.710630  
     206A      0.715547   207A      0.720764   208A      0.726556  
     209A      0.729036   210A      0.741557   211A      0.743156  
     212A      0.749812   213A      0.752810   214A      0.759785  
     215A      0.765239   216A      0.770255   217A      0.778179  
     218A      0.780712   219A      0.789376   220A      0.798214  
     221A      0.802735   222A      0.811055   223A      0.815785  
     224A      0.821284   225A      0.826875   226A      0.833144  
     227A      0.837259   228A      0.849370   229A      0.855945  
     230A      0.862599   231A      0.865266   232A      0.870043  
     233A      0.876085   234A      0.879023   235A      0.883726  
     236A      0.887625   237A      0.896996   238A      0.900616  
     239A      0.901919   240A      0.905533   241A      0.907374  
     242A      0.916355   243A      0.920124   244A      0.921231  
     245A      0.926013   246A      0.927620   247A      0.938999  
     248A      0.941304   249A      0.950964   250A      0.951791  
     251A      0.959542   252A      0.962693   253A      0.967124  
     254A      0.968202   255A      0.976440   256A      0.980710  
     257A      0.982540   258A      0.983549   259A      0.989452  
     260A      0.990454   261A      0.997095   262A      1.005866  
[...]
	 B(6,3,9)         =         2.136882	     122.434297
	 B(6,3,17)        =         2.036384	     116.676199
	 B(6,12,7)        =         2.093184	     119.930611
	 B(6,12,22)       =         2.094991	     120.034119
	 B(7,4,9)         =         2.128718	     121.966558
	 B(7,4,18)        =         2.047988	     117.341069
	 B(7,12,22)       =         2.094926	     120.030428
	 B(8,1,15)        =         2.071946	     118.713757
	 B(8,11,14)       =         2.062795	     118.189439
	 B(9,3,17)        =         2.109520	     120.866568
	 B(9,4,18)        =         2.106170	     120.674665
	 B(9,8,11)        =         2.182937	     125.073061
	 B(10,2,16)       =         2.044611	     117.147605
	 B(10,5,11)       =         2.118192	     121.363460
	 B(10,5,19)       =         2.073537	     118.804926
	 B(11,5,19)       =         2.091400	     119.828406
	 B(12,6,20)       =         2.035200	     116.608349
	 B(12,7,21)       =         2.032754	     116.468209
	 D(1,2,10,5)      =         0.010501	       0.601636
	 D(1,2,10,13)     =        -3.130677	    -179.374594
	 D(1,8,9,3)       =        -0.258389	     -14.804594
	 D(1,8,9,4)       =         2.904049	     166.389724
	 D(1,8,11,5)      =         0.018268	       1.046700
	 D(1,8,11,14)     =         3.111273	     178.262798
	 D(2,1,8,9)       =        -3.098519	    -177.532070
	 D(2,1,8,11)      =         0.000128	       0.007322
	 D(2,10,5,11)     =         0.006987	       0.400312
	 D(2,10,5,19)     =        -3.123213	    -178.946918
	 D(3,6,12,7)      =         0.012351	       0.707647
	 D(3,6,12,22)     =         3.139978	     179.907463
	 D(3,9,4,7)       =         0.027625	       1.582818
	 D(3,9,4,18)      =        -3.141398	    -179.988866
	 D(3,9,8,11)      =         2.931178	     167.944129
	 D(4,7,12,6)      =        -0.003414	      -0.195632
	 D(4,7,12,22)     =        -3.131042	    -179.395478
	 D(4,9,3,6)       =        -0.018825	      -1.078620
	 D(4,9,3,17)      =         3.091343	     177.120928
	 D(4,9,8,11)      =        -0.189570	     -10.861553
	 D(5,10,2,16)     =        -3.116281	    -178.549740
	 D(5,11,8,9)      =         3.114865	     178.468597
	 D(6,3,9,8)       =         3.141453	     179.992021
	 D(6,12,7,21)     =        -3.139249	    -179.865734
	 D(7,4,9,8)       =        -3.133392	    -179.530133
	 D(7,12,6,20)     =        -3.115234	    -178.489749
	 D(8,1,2,10)      =        -0.014107	      -0.808299
	 D(8,1,2,16)      =         3.112139	     178.312405
	 D(8,9,3,17)      =        -0.031563	      -1.808431
	 D(8,9,4,18)      =        -0.019230	      -1.101817
	 D(8,11,5,10)     =        -0.022180	      -1.270818
	 D(8,11,5,19)     =         3.107905	     178.069829
	 D(9,3,6,12)      =        -0.000251	      -0.014374
	 D(9,3,6,20)      =         3.126470	     179.133528
	 D(9,4,7,12)      =        -0.017756	      -1.017324
	 D(9,4,7,21)      =         3.117736	     178.633101
	 D(9,8,1,15)      =        -0.003620	      -0.207432
	 D(9,8,11,14)     =        -0.075316	      -4.315305
	 D(10,2,1,15)     =        -3.109389	    -178.154846
	 D(10,5,11,14)    =        -3.115639	    -178.512991
	 D(11,5,10,13)    =        -3.135020	    -179.623411
	 D(11,8,1,15)     =         3.095027	     177.331960
	 D(12,6,3,17)     =        -3.111658	    -178.284856
	 D(12,7,4,18)     =        -3.132789	    -179.495565
	 D(13,10,2,16)    =         0.025727	       1.474030
	 D(13,10,5,19)    =         0.017966	       1.029359
	 D(14,11,5,19)    =         0.014445	       0.827657
	 D(15,1,2,16)     =         0.016857	       0.965857
	 D(17,3,6,20)     =         0.015063	       0.863045
	 D(18,4,7,21)     =         0.002703	       0.154860
	 D(20,6,12,22)    =         0.012393	       0.710067
	 D(21,7,12,22)    =         0.016309	       0.934420
	 R(4,14)          =         5.165794	       2.733621

	Current energy   :      -652.8352911559

	Energy change for the previous step:
		Projected    :        -0.0000071066
		Actual       :         0.0000003179

	Performing BFGS update.
	Previous computed or guess Hessian on step 1.
	Steps to be used in Hessian update: 11 10
	Adding user-defined constraint: Fragment 1; Coordinate 62:
		Value =    -0.258389; Fixed value    =    -0.261800
		Force =    -0.002644; Force constant =     0.775000
	Removing off-diagonal coupling between coordinate 62 and others.
	Taking RFO optimization step.
	Going to follow RFO solution 1.
	Using RFO vector 1.
	Norm of target step-size    0.00862
	Projected energy change by RFO approximation:        -0.0000045449

	Back-transformation to cartesian coordinates...
	Could not converge backtransformation.
	Using first guess instead.

	--- Internal Coordinate Step in ANG or DEG, aJ/ANG or AJ/DEG ---
	 ---------------------------------------------------------------------------
	   Coordinate                Previous        Force       Change         New 
	   ----------                --------       ------       ------       ------
	    1 R(1,2)          =      1.354321    -0.000068    -0.000040     1.354281
	    2 R(1,8)          =      1.430985     0.000066     0.000032     1.431017
	    3 R(1,15)         =      1.078375    -0.000027    -0.000015     1.078361
	    4 R(2,10)         =      1.450557     0.000093     0.000070     1.450626
	    5 R(2,16)         =      1.079411    -0.000037    -0.000011     1.079401
	    6 R(3,6)          =      1.356907    -0.000028    -0.000023     1.356883
	    7 R(3,9)          =      1.430379     0.000037     0.000042     1.430421
	    8 R(3,17)         =      1.075701    -0.000033    -0.000022     1.075679
	    9 R(4,7)          =      1.357911    -0.000055    -0.000016     1.357896
	   10 R(4,9)          =      1.430219     0.000108     0.000031     1.430249
	   11 R(4,18)         =      1.072968     0.000127     0.000043     1.073011
	   12 R(5,10)         =      1.445736     0.000115     0.000051     1.445787
	   13 R(5,11)         =      1.349539    -0.000149    -0.000062     1.349477
	   14 R(5,19)         =      1.077948    -0.000017    -0.000012     1.077936
	   15 R(6,12)         =      1.357713     0.000003     0.000024     1.357737
	   16 R(6,20)         =      1.077457     0.000009     0.000000     1.077457
	   17 R(7,12)         =      1.357821     0.000157     0.000024     1.357846
	   18 R(7,21)         =      1.077478    -0.000002    -0.000001     1.077477
	   19 R(8,9)          =      1.397094    -0.000026    -0.000033     1.397061
	   20 R(8,11)         =      1.424486     0.000049     0.000045     1.424532
	   21 R(10,13)        =      1.238007    -0.000133    -0.000034     1.237973
	   22 R(11,14)        =      1.357700    -0.000069     0.000022     1.357722
	   23 R(12,22)        =      1.004788    -0.000027    -0.000014     1.004774
	   24 B(1,2,10)       =    122.028554    -0.000000     0.003092   122.031646
	   25 B(1,2,16)       =    120.818320    -0.000001     0.000600   120.818920
	   26 B(1,8,9)        =    120.965839    -0.000001     0.007022   120.972860
	   27 B(1,8,11)       =    113.910485     0.000000    -0.003927   113.906559
	   28 B(2,1,8)        =    123.395991     0.000000    -0.000502   123.395489
	   29 B(2,1,15)       =    117.838528     0.000000    -0.002172   117.836356
	   30 B(2,10,5)       =    114.694744    -0.000000    -0.004656   114.690088
	   31 B(2,10,13)      =    122.739750     0.000001     0.002175   122.741925
	   32 B(3,6,12)       =    120.755387    -0.000000    -0.001458   120.753929
	   33 B(3,6,20)       =    122.631135     0.000000    -0.000598   122.630537
	   34 B(3,9,4)        =    113.713602    -0.000000    -0.005650   113.707953
	   35 B(3,9,8)        =    121.438629     0.000001     0.008942   121.447570
	   36 B(4,7,12)       =    121.180790    -0.000000     0.000694   121.181484
	   37 B(4,7,21)       =    122.350140     0.000000    -0.001675   122.348465
	   38 B(4,9,8)        =    124.838249    -0.000001    -0.002564   124.835684
	   39 B(5,10,13)      =    122.565501    -0.000000     0.001869   122.567370
	   40 B(5,11,8)       =    124.593152    -0.000001     0.005043   124.598195
	   41 B(5,11,14)      =    117.162252     0.000000     0.000231   117.162483
	   42 B(6,3,9)        =    122.434297     0.000000     0.005168   122.439465
	   43 B(6,3,17)       =    116.676199     0.000000    -0.002589   116.673610
	   44 B(6,12,7)       =    119.930611     0.000000    -0.001004   119.929607
	   45 B(6,12,22)      =    120.034119    -0.000000     0.000445   120.034564
	   46 B(7,4,9)        =    121.966558    -0.000000     0.002924   121.969482
	   47 B(7,4,18)       =    117.341069     0.000001    -0.000520   117.340549
	   48 B(7,12,22)      =    120.030428    -0.000000     0.000715   120.031142
	   49 B(8,1,15)       =    118.713757    -0.000000     0.000349   118.714106
	   50 B(8,11,14)      =    118.189439     0.000000    -0.004212   118.185227
	   51 B(9,3,17)       =    120.866568    -0.000001    -0.003245   120.863322
	   52 B(9,4,18)       =    120.674665    -0.000001    -0.002339   120.672326
	   53 B(9,8,11)       =    125.073061     0.000000    -0.006401   125.066661
	   54 B(10,2,16)      =    117.147605     0.000001    -0.003406   117.144199
	   55 B(10,5,11)      =    121.363460     0.000001    -0.000346   121.363114
	   56 B(10,5,19)      =    118.804926    -0.000000    -0.001701   118.803226
	   57 B(11,5,19)      =    119.828406    -0.000001     0.001957   119.830363
	   58 B(12,6,20)      =    116.608349     0.000000     0.001763   116.610112
	   59 B(12,7,21)      =    116.468209    -0.000000     0.001059   116.469267
	   60 D(1,2,10,5)     =      0.601636     0.000001     0.157649     0.759285
	   61 D(1,2,10,13)    =   -179.374594    -0.000001    -0.145317  -179.519911
	   62 D(1,8,9,3)      =    -14.804594     0.000000     0.001516   -14.803077
	   63 D(1,8,9,4)      =    166.389724    -0.000000    -0.044972   166.344752
	   64 D(1,8,11,5)     =      1.046700     0.000000     0.048528     1.095228
	   65 D(1,8,11,14)    =    178.262798     0.000000     0.075431   178.338229
	   66 D(2,1,8,9)      =   -177.532070     0.000000     0.058704  -177.473366
	   67 D(2,1,8,11)     =      0.007322    -0.000000    -0.020514    -0.013192
	   68 D(2,10,5,11)    =      0.400312    -0.000001    -0.130295     0.270017
	   69 D(2,10,5,19)    =   -178.946918    -0.000001    -0.121239  -179.068157
	   70 D(3,6,12,7)     =      0.707647     0.000000    -0.024592     0.683054
	   71 D(3,6,12,22)    =    179.907463    -0.000000    -0.011676   179.895787
	   72 D(3,9,4,7)      =      1.582818     0.000000    -0.023498     1.559320
	   73 D(3,9,4,18)     =   -179.988866     0.000000    -0.020644  -180.009510
	   74 D(3,9,8,11)     =    167.944129     0.000000     0.089888   168.034017
	   75 D(4,7,12,6)     =     -0.195632    -0.000000     0.029200    -0.166432
	   76 D(4,7,12,22)    =   -179.395478     0.000000     0.016285  -179.379192
	   77 D(4,9,3,6)      =     -1.078620    -0.000000     0.028110    -1.050510
	   78 D(4,9,3,17)     =    177.120928    -0.000000     0.002101   177.123030
	   79 D(4,9,8,11)     =    -10.861553     0.000000     0.043400   -10.818154
	   80 D(5,10,2,16)    =   -178.549740     0.000001     0.135398  -178.414342
	   81 D(5,11,8,9)     =    178.468597     0.000000    -0.034074   178.434523
	   82 D(6,3,9,8)      =    179.992021    -0.000000    -0.013576   179.978446
	   83 D(6,12,7,21)    =   -179.865734    -0.000000     0.014083  -179.851651
	   84 D(7,4,9,8)      =   -179.530133     0.000000     0.019971  -179.510162
	   85 D(7,12,6,20)    =   -178.489749     0.000000    -0.002012  -178.491761
	   86 D(8,1,2,10)     =     -0.808299    -0.000000    -0.086349    -0.894647
	   87 D(8,1,2,16)     =    178.312405    -0.000000    -0.063325   178.249080
	   88 D(8,9,3,17)     =     -1.808431    -0.000000    -0.039584    -1.848015
	   89 D(8,9,4,18)     =     -1.101817     0.000000     0.022825    -1.078992
	   90 D(8,11,5,10)    =     -1.270818     0.000000     0.031237    -1.239582
	   91 D(8,11,5,19)    =    178.069829     0.000000     0.022065   178.091895
	   92 D(9,3,6,12)     =     -0.014374     0.000000    -0.005209    -0.019583
	   93 D(9,3,6,20)     =    179.133528    -0.000000    -0.029162   179.104365
	   94 D(9,4,7,12)     =     -1.017324    -0.000000    -0.004022    -1.021346
	   95 D(9,4,7,21)     =    178.633101     0.000000     0.012005   178.645106
	   96 D(9,8,1,15)     =     -0.207432    -0.000000    -0.000764    -0.208196
	   97 D(9,8,11,14)    =     -4.315305    -0.000000    -0.007171    -4.322476
	   98 D(10,2,1,15)    =   -178.154846    -0.000000    -0.027432  -178.182278
	   99 D(10,5,11,14)   =   -178.512991     0.000000     0.004699  -178.508291
	  100 D(11,5,10,13)   =   -179.623411     0.000001     0.172079  -179.451332
	  101 D(11,8,1,15)    =    177.331960    -0.000000    -0.079982   177.251978
	  102 D(12,6,3,17)    =   -178.284856     0.000000     0.019794  -178.265063
	  103 D(12,7,4,18)    =   -179.495565    -0.000000    -0.006755  -179.502321
	  104 D(13,10,2,16)   =      1.474030    -0.000001    -0.167568     1.306462
	  105 D(13,10,5,19)   =      1.029359     0.000001     0.181136     1.210495
	  106 D(14,11,5,19)   =      0.827657     0.000000    -0.004472     0.823185
	  107 D(15,1,2,16)    =      0.965857    -0.000000    -0.004408     0.961449
	  108 D(17,3,6,20)    =      0.863045     0.000000    -0.004160     0.858886
	  109 D(18,4,7,21)    =      0.154860     0.000000     0.009272     0.164131
	  110 D(20,6,12,22)   =      0.710067     0.000000     0.010905     0.720972
	  111 D(21,7,12,22)   =      0.934420    -0.000000     0.001169     0.935589
	  112 R(4,14)         =      2.733621    -0.000114    -0.000522     2.733099
	 ---------------------------------------------------------------------------
	Successfully symmetrized geometry.
	 Forces used to impose fixed constraints are not included.
	  Forces zeroed: 62 

  ==> Convergence Check <==

  Measures of convergence in internal coordinates in au.
  Criteria marked as inactive (o), active & met (*), and active & unmet ( ).
  ---------------------------------------------------------------------------------------------
   Step     Total Energy     Delta E     MAX Force     RMS Force      MAX Disp      RMS Disp   
  ---------------------------------------------------------------------------------------------
    Convergence Criteria    1.00e-06 *    3.00e-04 *             o    1.20e-03 *             o
  ---------------------------------------------------------------------------------------------
     12    -652.83529116    3.18e-07 *    5.21e-05 *    1.42e-05 o    3.16e-03      8.14e-04 o  ~
  ---------------------------------------------------------------------------------------------


  **** Optimization is complete! (in 12 steps) ****

  ==> Optimization Summary <==

  Measures of convergence in internal coordinates in au.
  --------------------------------------------------------------------------------------------------------------- ~
   Step         Total Energy             Delta E       MAX Force       RMS Force        MAX Disp        RMS Disp  ~
  --------------------------------------------------------------------------------------------------------------- ~
      1    -652.811844296009   -652.811844296009      0.03302142      0.01020151      0.02883954      0.00944747  ~
      2    -652.821071854093     -0.009227558084      0.02269666      0.00741113      0.02709168      0.00944734  ~
      3    -652.827544936115     -0.006473082022      0.01431794      0.00489973      0.03938871      0.00944816  ~
      4    -652.831573936951     -0.004029000836      0.01175597      0.00282336      0.06059957      0.00945244  ~
      5    -652.833709415573     -0.002135478622      0.00869652      0.00136768      0.07998031      0.00945865  ~
      6    -652.834692489069     -0.000983073495      0.00523994      0.00064352      0.07991803      0.00946907  ~
      7    -652.835145785658     -0.000453296590      0.00233662      0.00029851      0.06278018      0.00873964  ~
      8    -652.835289117438     -0.000143331780      0.00047569      0.00012712      0.01463798      0.00245904  ~
      9    -652.835295426857     -0.000006309419      0.00027553      0.00005884      0.00404711      0.00129259  ~
     10    -652.835294390974      0.000001035883      0.00016511      0.00003474      0.00331126      0.00085079  ~
     11    -652.835291473780      0.000002917194      0.00007585      0.00002079      0.00281833      0.00069965  ~
     12    -652.835291155920      0.000000317860      0.00005213      0.00001422      0.00316141      0.00081436  ~
  --------------------------------------------------------------------------------------------------------------- ~

	Writing optimization data to binary file.
	Final energy is   -652.8352911559200
	Final (previous) structure:
	Cartesian Geometry (in Angstrom)
	    C    -1.3644243766   0.7360951679  -0.7549336573
	    C    -2.4232428213   1.3305819991  -0.1552054681
	    C     0.7611655056  -0.6937101275  -2.1070288871
	    C     2.0387333111  -0.7989518825  -0.0837349771
	    C    -1.4757317315   0.7689164230   2.0204116377
	    C     1.8107659830  -1.2315207667  -2.7780683611
	    C     3.0689509164  -1.3257234368  -0.7944294162
	    C    -0.2885907863   0.1290954644  -0.0325398587
	    C     0.8046826603  -0.4254318827  -0.7027075560
	    C    -2.5596934949   1.3842523500   1.2879215513
	    C    -0.4285948325   0.2045419831   1.3830403417
	    N     2.9634978269  -1.5410231896  -2.1309190431
	    O    -3.5272736210   1.9141913929   1.8497170958
	    F     0.5263746190  -0.3761938746   2.1538370343
	    H    -1.3158685486   0.7618202480  -1.8319081450
	    H    -3.1989970992   1.7997426856  -0.7410570309
	    H    -0.1294714575  -0.5004404663  -2.6784701687
	    H     2.1918816880  -0.6471616986   0.9673438029
	    H    -1.5181476451   0.7559878970   3.0974473107
	    H     1.7766864684  -1.4474961564  -3.8331071338
	    H     4.0088434004  -1.5892579987  -0.3382378018
	    H     3.7334963706  -1.9401566431  -2.6382585411
	Saving final (previous) structure.
			--------------------------
			 OPTKING Finished Execution 
			--------------------------

    Final optimized geometry and variables:
    Molecular point group: c1
    Full point group: C1

    Geometry (in Angstrom), charge = 0, multiplicity = 1:

    C           -1.364424376593     0.736095167905    -0.754933657345
    C           -2.423242821288     1.330581999087    -0.155205468121
    C            0.761165505586    -0.693710127468    -2.107028887144
    C            2.038733311098    -0.798951882533    -0.083734977143
    C           -1.475731731503     0.768916422967     2.020411637734
    C            1.810765982964    -1.231520766726    -2.778068361145
    C            3.068950916354    -1.325723436849    -0.794429416204
    C           -0.288590786320     0.129095464393    -0.032539858711
    C            0.804682660288    -0.425431882660    -0.702707555970
    C           -2.559693494897     1.384252349954     1.287921551259
    C           -0.428594832470     0.204541983071     1.383040341690
    N            2.963497826875    -1.541023189622    -2.130919043094
    O           -3.527273620959     1.914191392853     1.849717095769
    F            0.526374619042    -0.376193874561     2.153837034335
    H           -1.315868548552     0.761820248013    -1.831908144973
    H           -3.198997099178     1.799742685597    -0.741057030926
    H           -0.129471457546    -0.500440466304    -2.678470168661
    H            2.191881687952    -0.647161698577     0.967343802866
    H           -1.518147645121     0.755987897020     3.097447310748
    H            1.776686468416    -1.447496156419    -3.833107133813
    H            4.008843400437    -1.589257998717    -0.338237801810
    H            3.733496370561    -1.940156643105    -2.638258541082

	Cleaning optimization helper files.

*** Psi4 exiting successfully. Buy a developer a beer!
