
    -----------------------------------------------------------------------
          Psi4: An Open-Source Ab Initio Electronic Structure Package
                               Psi4 1.1 release

                         Git: Rev {HEAD} add49b9 


    R. M. Parrish, L. A. Burns, D. G. A. Smith, A. C. Simmonett,
    A. E. DePrince III, E. G. Hohenstein, U. Bozkaya, A. Yu. Sokolov,
    R. Di Remigio, R. M. Richard, J. F. Gonthier, A. M. James,
    H. R. McAlexander, A. Kumar, M. Saitow, X. Wang, B. P. Pritchard,
    P. Verma, H. F. Schaefer III, K. Patkowski, R. A. King, E. F. Valeev,
    F. A. Evangelista, J. M. Turney, T. D. Crawford, and C. D. Sherrill,
    J. Chem. Theory Comput. in press (2017).
    (doi: 10.1021/acs.jctc.7b00174)

    -----------------------------------------------------------------------


    Psi4 started on: Sunday, 12 November 2017 04:47PM

    Process ID:   3717
    PSIDATADIR: /cbio/jclab/home/chayas/anaconda/envs/py35/share/psi4
    Memory:     500.0 MiB
    Threads:    8
    
  ==> Input File <==

--------------------------------------------------------------------------

memory 5 Gb

molecule phepyrOH_zwitterion {
  symmetry C1
  0 1 
  C      1.885   -1.036   -0.112
  C      2.878   -1.652   2.002
  C      0.807   -0.463   0.561
  C      1.800   -1.079   2.676
  C      4.640   -1.550   -1.148
  C      4.518   -3.475   0.295
  C      5.711   -2.144   -1.800
  C      5.592   -4.021   -0.394
  C      2.921   -1.631   0.608
  C      4.040   -2.226   -0.090
  C      0.764   -0.484   1.955
  N      6.151   -3.348   -1.409
  O      -0.227   0.042   2.574
  H      1.904   -1.011   -1.199
  H      3.678   -2.112   2.577
  H      0.011   -0.006   -0.025
  H      1.791   -1.108   3.764
  H      4.288   -0.574   -1.470
  H      4.068   -4.025   1.116
  H      6.237   -1.693   -2.629
  H      6.028   -4.983   -0.164
  H      6.938   -3.768   -1.902
  units Angstrom
}

dih_string = "1 9 10 5 45"
set optking fixed_dihedral = $dih_string

optimize('MP2/aug-cc-PVTZ')
--------------------------------------------------------------------------

  Memory set to   4.657 GiB by Python driver.
gradient() will perform analytic gradient computation.

*** tstart() called on gpu-1-8.local
*** at Sun Nov 12 16:47:27 2017

    SCF Algorithm Type (re)set to DF.

*** tstart() called on gpu-1-8.local
*** at Sun Nov 12 16:47:27 2017

   => Loading Basis Set <=

    Name: AUG-CC-PVTZ
    Role: ORBITAL
    Keyword: BASIS
    atoms 1-11  entry C          line   221 file /cbio/jclab/home/chayas/anaconda/envs/py35/share/psi4/basis/aug-cc-pvtz.gbs 
    atoms 12    entry N          line   267 file /cbio/jclab/home/chayas/anaconda/envs/py35/share/psi4/basis/aug-cc-pvtz.gbs 
    atoms 13    entry O          line   313 file /cbio/jclab/home/chayas/anaconda/envs/py35/share/psi4/basis/aug-cc-pvtz.gbs 
    atoms 14-22 entry H          line    34 file /cbio/jclab/home/chayas/anaconda/envs/py35/share/psi4/basis/aug-cc-pvtz.gbs 


         ---------------------------------------------------------
                                   SCF
            by Justin Turney, Rob Parrish, and Andy Simmonett
                              RHF Reference
                        8 Threads,   4768 MiB Core
         ---------------------------------------------------------

  ==> Geometry <==

    Molecular point group: c1
    Full point group: C1

    Geometry (in Angstrom), charge = 0, multiplicity = 1:

       Center              X                  Y                   Z               Mass       
    ------------   -----------------  -----------------  -----------------  -----------------
           C         -1.297296954933     0.733896411890    -0.557114964934    12.000000000000
           C         -0.304296954933     0.117896411890     1.556885035066    12.000000000000
           C         -2.375296954933     1.306896411890     0.115885035066    12.000000000000
           C         -1.382296954933     0.690896411890     2.230885035066    12.000000000000
           C          1.457703045067     0.219896411890    -1.593114964934    12.000000000000
           C          1.335703045067    -1.705103588110    -0.150114964934    12.000000000000
           C          2.528703045067    -0.374103588110    -2.245114964934    12.000000000000
           C          2.409703045067    -2.251103588110    -0.839114964934    12.000000000000
           C         -0.261296954933     0.138896411890     0.162885035066    12.000000000000
           C          0.857703045067    -0.456103588110    -0.535114964934    12.000000000000
           C         -2.418296954933     1.285896411890     1.509885035066    12.000000000000
           N          2.968703045067    -1.578103588110    -1.854114964934    14.003074004780
           O         -3.409296954933     1.811896411890     2.128885035066    15.994914619560
           H         -1.278296954933     0.758896411890    -1.644114964934     1.007825032070
           H          0.495703045067    -0.342103588110     2.131885035066     1.007825032070
           H         -3.171296954933     1.763896411890    -0.470114964934     1.007825032070
           H         -1.391296954933     0.661896411890     3.318885035066     1.007825032070
           H          1.105703045067     1.195896411890    -1.915114964934     1.007825032070
           H          0.885703045067    -2.255103588110     0.670885035066     1.007825032070
           H          3.054703045067     0.076896411890    -3.074114964934     1.007825032070
           H          2.845703045067    -3.213103588110    -0.609114964934     1.007825032070
           H          3.755703045067    -1.998103588110    -2.347114964934     1.007825032070

  Running in c1 symmetry.

  Rotational constants: A =      0.09650  B =      0.01358  C =      0.01235 [cm^-1]
  Rotational constants: A =   2892.85404  B =    407.08965  C =    370.24360 [MHz]
  Nuclear repulsion =  701.030607226390543

  Charge       = 0
  Multiplicity = 1
  Electrons    = 90
  Nalpha       = 45
  Nbeta        = 45

  ==> Algorithm <==

  SCF Algorithm Type is DF.
  DIIS enabled.
  MOM disabled.
  Fractional occupation disabled.
  Guess Type is SAD.
  Energy threshold   = 1.00e-10
  Density threshold  = 1.00e-10
  Integral threshold = 0.00e+00

  ==> Primary Basis <==

  Basis Set: AUG-CC-PVTZ
    Blend: AUG-CC-PVTZ
    Number of shells: 263
    Number of basis function: 805
    Number of Cartesian functions: 940
    Spherical Harmonics?: true
    Max angular momentum: 3

   => Loading Basis Set <=

    Name: (AUG-CC-PVTZ AUX)
    Role: JKFIT
    Keyword: DF_BASIS_SCF
    atoms 1-11  entry C          line   161 file /cbio/jclab/home/chayas/anaconda/envs/py35/share/psi4/basis/aug-cc-pvtz-jkfit.gbs 
    atoms 12    entry N          line   223 file /cbio/jclab/home/chayas/anaconda/envs/py35/share/psi4/basis/aug-cc-pvtz-jkfit.gbs 
    atoms 13    entry O          line   285 file /cbio/jclab/home/chayas/anaconda/envs/py35/share/psi4/basis/aug-cc-pvtz-jkfit.gbs 
    atoms 14-22 entry H          line    69 file /cbio/jclab/home/chayas/anaconda/envs/py35/share/psi4/basis/aug-cc-pvtz-jkfit.gbs 

  ==> Pre-Iterations <==

   -------------------------------------------------------
    Irrep   Nso     Nmo     Nalpha   Nbeta   Ndocc  Nsocc
   -------------------------------------------------------
     A        805     805       0       0       0       0
   -------------------------------------------------------
    Total     805     805      45      45      45       0
   -------------------------------------------------------

  ==> Integral Setup <==

  ==> DFJK: Density-Fitted J/K Matrices <==

    J tasked:                  Yes
    K tasked:                  Yes
    wK tasked:                  No
    OpenMP threads:              8
    Integrals threads:           8
    Memory (MB):              3576
    Algorithm:                Disk
    Integral Cache:           NONE
    Schwarz Cutoff:          1E-12
    Fitting Condition:       1E-12

   => Auxiliary Basis Set <=

  Basis Set: (AUG-CC-PVTZ AUX)
    Blend: AUG-CC-PVTZ-JKFIT
    Number of shells: 516
    Number of basis function: 1766
    Number of Cartesian functions: 2198
    Spherical Harmonics?: true
    Max angular momentum: 4

  Minimum eigenvalue in the overlap matrix is 6.7719482913E-07.
  Using Symmetric Orthogonalization.

  SCF Guess: Superposition of Atomic Densities via on-the-fly atomic UHF.

  ==> Iterations <==

                           Total Energy        Delta E     RMS |[F,P]|

   @DF-RHF iter   0:  -558.90837206940205   -5.58908e+02   2.52913e-02 
   @DF-RHF iter   1:  -550.73926239526043    8.16911e+00   1.51403e-03 
   @DF-RHF iter   2:  -550.57268438832341    1.66578e-01   2.62458e-03 DIIS
   @DF-RHF iter   3:  -551.14184348230538   -5.69159e-01   8.69588e-04 DIIS
   @DF-RHF iter   4:  -551.19757699937259   -5.57335e-02   2.98781e-04 DIIS
   @DF-RHF iter   5:  -551.20555879837434   -7.98180e-03   8.30690e-05 DIIS
   @DF-RHF iter   6:  -551.20768192882815   -2.12313e-03   6.14022e-05 DIIS
   @DF-RHF iter   7:  -551.20825622061250   -5.74292e-04   3.00254e-05 DIIS
   @DF-RHF iter   8:  -551.20840821420029   -1.51994e-04   1.22364e-05 DIIS
   @DF-RHF iter   9:  -551.20844161651655   -3.34023e-05   5.18158e-06 DIIS
   @DF-RHF iter  10:  -551.20844857540465   -6.95889e-06   2.39134e-06 DIIS
   @DF-RHF iter  11:  -551.20845002101612   -1.44561e-06   8.90805e-07 DIIS
   @DF-RHF iter  12:  -551.20845027304813   -2.52032e-07   4.73116e-07 DIIS
   @DF-RHF iter  13:  -551.20845033041610   -5.73680e-08   1.92394e-07 DIIS
   @DF-RHF iter  14:  -551.20845034203887   -1.16228e-08   1.11155e-07 DIIS
   @DF-RHF iter  15:  -551.20845034513638   -3.09751e-09   3.44892e-08 DIIS
   @DF-RHF iter  16:  -551.20845034546642   -3.30033e-10   1.34990e-08 DIIS
   @DF-RHF iter  17:  -551.20845034550700   -4.05862e-11   4.85852e-09 DIIS
   @DF-RHF iter  18:  -551.20845034551314   -6.13909e-12   2.17683e-09 DIIS
   @DF-RHF iter  19:  -551.20845034552849   -1.53477e-11   9.75337e-10 DIIS
   @DF-RHF iter  20:  -551.20845034551030    1.81899e-11   3.63975e-10 DIIS
   @DF-RHF iter  21:  -551.20845034551598   -5.68434e-12   1.44069e-10 DIIS
   @DF-RHF iter  22:  -551.20845034552372   -7.73070e-12   6.45500e-11 DIIS

  ==> Post-Iterations <==

    Orbital Energies (a.u.)
    -----------------------

    Doubly Occupied:                                                      

       1A    -20.420528     2A    -15.707513     3A    -11.362390  
       4A    -11.362249     5A    -11.310131     6A    -11.290454  
       7A    -11.290408     8A    -11.236423     9A    -11.223888  
      10A    -11.223845    11A    -11.209682    12A    -11.181816  
      13A    -11.181785    14A     -1.390514    15A     -1.247065  
      16A     -1.182217    17A     -1.115918    18A     -1.105556  
      19A     -0.990237    20A     -0.989967    21A     -0.943007  
      22A     -0.903149    23A     -0.842878    24A     -0.808272  
      25A     -0.779729    26A     -0.740357    27A     -0.721200  
      28A     -0.694418    29A     -0.676584    30A     -0.659998  
      31A     -0.613968    32A     -0.613795    33A     -0.603457  
      34A     -0.587207    35A     -0.559118    36A     -0.530212  
      37A     -0.507169    38A     -0.480813    39A     -0.470545  
      40A     -0.459335    41A     -0.422699    42A     -0.391632  
      43A     -0.333445    44A     -0.318493    45A     -0.226354  

    Virtual:                                                              

      46A     -0.010752    47A      0.009484    48A      0.016025  
      49A      0.022088    50A      0.035255    51A      0.039416  
      52A      0.040274    53A      0.051594    54A      0.052217  
      55A      0.054775    56A      0.062417    57A      0.068585  
      58A      0.069196    59A      0.069584    60A      0.080267  
      61A      0.091174    62A      0.092575    63A      0.103284  
      64A      0.103822    65A      0.103983    66A      0.117336  
      67A      0.120268    68A      0.120494    69A      0.126468  
      70A      0.127708    71A      0.128893    72A      0.132083  
      73A      0.134850    74A      0.144712    75A      0.150358  
      76A      0.151487    77A      0.151803    78A      0.161034  
      79A      0.165186    80A      0.166066    81A      0.168576  
      82A      0.173236    83A      0.181516    84A      0.182100  
      85A      0.185797    86A      0.189966    87A      0.196305  
      88A      0.196815    89A      0.206870    90A      0.208856  
      91A      0.210436    92A      0.213125    93A      0.221477  
      94A      0.225965    95A      0.227339    96A      0.231252  
      97A      0.235850    98A      0.245982    99A      0.251933  
     100A      0.253520   101A      0.254201   102A      0.263403  
     103A      0.263953   104A      0.268081   105A      0.271073  
     106A      0.279499   107A      0.284173   108A      0.289209  
     109A      0.290187   110A      0.293195   111A      0.297238  
     112A      0.303204   113A      0.307363   114A      0.312133  
     115A      0.319339   116A      0.321390   117A      0.327146  
     118A      0.329876   119A      0.330559   120A      0.331566  
     121A      0.340891   122A      0.344447   123A      0.347281  
     124A      0.347364   125A      0.361150   126A      0.361469  
     127A      0.363225   128A      0.364447   129A      0.369788  
     130A      0.374168   131A      0.379525   132A      0.386046  
     133A      0.387898   134A      0.394351   135A      0.402075  
     136A      0.404149   137A      0.413862   138A      0.414455  
     139A      0.420199   140A      0.421993   141A      0.425426  
     142A      0.433673   143A      0.439323   144A      0.440836  
     145A      0.446001   146A      0.454020   147A      0.455709  
     148A      0.459932   149A      0.463887   150A      0.464435  
     151A      0.469461   152A      0.471596   153A      0.474797  
     154A      0.480295   155A      0.483288   156A      0.487829  
     157A      0.492858   158A      0.494591   159A      0.494863  
     160A      0.498724   161A      0.499300   162A      0.501587  
     163A      0.507651   164A      0.508441   165A      0.516041  
     166A      0.521533   167A      0.527976   168A      0.528931  
     169A      0.532764   170A      0.534980   171A      0.544278  
     172A      0.545336   173A      0.551438   174A      0.555930  
     175A      0.564281   176A      0.566309   177A      0.570219  
     178A      0.576511   179A      0.579254   180A      0.583792  
     181A      0.594196   182A      0.596546   183A      0.605182  
     184A      0.608096   185A      0.609052   186A      0.623888  
     187A      0.624358   188A      0.642709   189A      0.649106  
     190A      0.651186   191A      0.657333   192A      0.662155  
     193A      0.669474   194A      0.669746   195A      0.673889  
     196A      0.684136   197A      0.689848   198A      0.692930  
     199A      0.695197   200A      0.703361   201A      0.706159  
     202A      0.716928   203A      0.720602   204A      0.721545  
     205A      0.724520   206A      0.730666   207A      0.734716  
     208A      0.748045   209A      0.750140   210A      0.753491  
     211A      0.760377   212A      0.761259   213A      0.768283  
     214A      0.776611   215A      0.779206   216A      0.788559  
     217A      0.793317   218A      0.795405   219A      0.807538  
     220A      0.811170   221A      0.817518   222A      0.828230  
     223A      0.835937   224A      0.839006   225A      0.849411  
     226A      0.852193   227A      0.855522   228A      0.861335  
     229A      0.873189   230A      0.877154   231A      0.878760  
     232A      0.884642   233A      0.889612   234A      0.891969  
     235A      0.902633   236A      0.908060   237A      0.910390  
     238A      0.914943   239A      0.915026   240A      0.920059  
     241A      0.922691   242A      0.927098   243A      0.931596  
     244A      0.932103   245A      0.937791   246A      0.938065  
     247A      0.953106   248A      0.959608   249A      0.960995  
     250A      0.966400   251A      0.969376   252A      0.975527  
     253A      0.984844   254A      0.988678   255A      0.995567  
     256A      0.999888   257A      1.006736   258A      1.009558  
     259A      1.012416   260A      1.019287   261A      1.024188  
     262A      1.026200   263A      1.028283   264A      1.032657  
     265A      1.036558   266A      1.037152   267A      1.045345  
     268A      1.048031   269A      1.054929   270A      1.055995  
     271A      1.057604   272A      1.062270   273A      1.077203  
     274A      1.079389   275A      1.085959   276A      1.086477  
     277A      1.094090   278A      1.094739   279A      1.097808  
     280A      1.101461   281A      1.112297   282A      1.113921  
     283A      1.116426   284A      1.121483   285A      1.125853  
     286A      1.134940   287A      1.135484   288A      1.144181  
     289A      1.151553   290A      1.154483   291A      1.154919  
     292A      1.164206   293A      1.166542   294A      1.180655  
     295A      1.183574   296A      1.189514   297A      1.189704  
     298A      1.192343   299A      1.193767   300A      1.202410  
     301A      1.209973   302A      1.216642   303A      1.218600  
     304A      1.221539   305A      1.226461   306A      1.236324  
     307A      1.244077   308A      1.244430   309A      1.248290  
     310A      1.252408   311A      1.262346   312A      1.263321  
     313A      1.272481   314A      1.276501   315A      1.279616  
     316A      1.286309   317A      1.298010   318A      1.305872  
     319A      1.312411   320A      1.323251   321A      1.325731  
     322A      1.330363   323A      1.338178   324A      1.345655  
     325A      1.351661   326A      1.360517   327A      1.361838  
     328A      1.372474   329A      1.375457   330A      1.380009  
     331A      1.388997   332A      1.394843   333A      1.397361  
     334A      1.411571   335A      1.412621   336A      1.419220  
     337A      1.435042   338A      1.440992   339A      1.448581  
     340A      1.454235   341A      1.459449   342A      1.465190  
     343A      1.469553   344A      1.479967   345A      1.487013  
     346A      1.494796   347A      1.496685   348A      1.504384  
     349A      1.512951   350A      1.522045   351A      1.525775  
     352A      1.533376   353A      1.545886   354A      1.552541  
     355A      1.564673   356A      1.566312   357A      1.577887  
     358A      1.580271   359A      1.594966   360A      1.607358  
     361A      1.617211   362A      1.629542   363A      1.631691  
     364A      1.635285   365A      1.641911   366A      1.647305  
     367A      1.649966   368A      1.666117   369A      1.680613  
     370A      1.686359   371A      1.689709   372A      1.692936  
     373A      1.713060   374A      1.716884   375A      1.721402  
     376A      1.728105   377A      1.732629   378A      1.743608  
     379A      1.750097   380A      1.751796   381A      1.774147  
     382A      1.780552   383A      1.790227   384A      1.799457  
     385A      1.805950   386A      1.818136   387A      1.818840  
     388A      1.826701   389A      1.828584   390A      1.839924  
     391A      1.854058   392A      1.858507   393A      1.858599  
     394A      1.875581   395A      1.881900   396A      1.883908  
     397A      1.906774   398A      1.909056   399A      1.916443  
     400A      1.936288   401A      1.938266   402A      1.939653  
     403A      1.947461   404A      1.950784   405A      1.960820  
     406A      1.962168   407A      1.975104   408A      1.985230  
     409A      1.999767   410A      2.002946   411A      2.005926  
     412A      2.014346   413A      2.015929   414A      2.025486  
     415A      2.030731   416A      2.032870   417A      2.038317  
     418A      2.047378   419A      2.047790   420A      2.056185  
     421A      2.068383   422A      2.084433   423A      2.090609  
     424A      2.095657   425A      2.115707   426A      2.118232  
     427A      2.131664   428A      2.132154   429A      2.149962  
     430A      2.152674   431A      2.158050   432A      2.173531  
     433A      2.175368   434A      2.188267   435A      2.194038  
     436A      2.204066   437A      2.204934   438A      2.223989  
     439A      2.224633   440A      2.241045   441A      2.254523  
     442A      2.263906   443A      2.286086   444A      2.287183  
     445A      2.299518   446A      2.313614   447A      2.320540  
     448A      2.323427   449A      2.330869   450A      2.339723  
     451A      2.343022   452A      2.353134   453A      2.369979  
     454A      2.389429   455A      2.389828   456A      2.398376  
     457A      2.405042   458A      2.420425   459A      2.436693  
     460A      2.443419   461A      2.445448   462A      2.451486  
     463A      2.468448   464A      2.479371   465A      2.489415  
     466A      2.496409   467A      2.514847   468A      2.515280  
     469A      2.522470   470A      2.538444   471A      2.542510  
     472A      2.554013   473A      2.556393   474A      2.561025  
     475A      2.561538   476A      2.599313   477A      2.610677  
     478A      2.633937   479A      2.641180   480A      2.656984  
     481A      2.657752   482A      2.681995   483A      2.682100  
     484A      2.686675   485A      2.708186   486A      2.734153  
     487A      2.744167   488A      2.763687   489A      2.768964  
     490A      2.784442   491A      2.789331   492A      2.797265  
     493A      2.838200   494A      2.847300   495A      2.865388  
     496A      2.870251   497A      2.907187   498A      2.919412  
     499A      2.924045   500A      2.935999   501A      2.987909  
     502A      3.006134   503A      3.027696   504A      3.057151  
     505A      3.079884   506A      3.088320   507A      3.098002  
     508A      3.110143   509A      3.130442   510A      3.155753  
     511A      3.180456   512A      3.183787   513A      3.191975  
     514A      3.219749   515A      3.233352   516A      3.237075  
     517A      3.262171   518A      3.262829   519A      3.287225  
     520A      3.307448   521A      3.322450   522A      3.328336  
     523A      3.342710   524A      3.355692   525A      3.369644  
     526A      3.373149   527A      3.383780   528A      3.390824  
     529A      3.393327   530A      3.419001   531A      3.431624  
     532A      3.435692   533A      3.444398   534A      3.458315  
     535A      3.464486   536A      3.473022   537A      3.491532  
     538A      3.498564   539A      3.517580   540A      3.527850  
     541A      3.527988   542A      3.531894   543A      3.532066  
     544A      3.542783   545A      3.557204   546A      3.560680  
     547A      3.567743   548A      3.571294   549A      3.579774  
     550A      3.585425   551A      3.598144   552A      3.616200  
     553A      3.633123   554A      3.633467   555A      3.650622  
     556A      3.652869   557A      3.661075   558A      3.679597  
     559A      3.693606   560A      3.695830   561A      3.703880  
     562A      3.704820   563A      3.714682   564A      3.718957  
     565A      3.732340   566A      3.746691   567A      3.760410  
     568A      3.769349   569A      3.770299   570A      3.789269  
     571A      3.804645   572A      3.805419   573A      3.819184  
     574A      3.823291   575A      3.831556   576A      3.835788  
     577A      3.837571   578A      3.850919   579A      3.857868  
     580A      3.860488   581A      3.889979   582A      3.903700  
     583A      3.907685   584A      3.912046   585A      3.917694  
     586A      3.923030   587A      3.950131   588A      3.955374  
     589A      3.965460   590A      3.970755   591A      3.976380  
     592A      3.985220   593A      3.998793   594A      4.006548  
     595A      4.009163   596A      4.019025   597A      4.019550  
     598A      4.029617   599A      4.032994   600A      4.049210  
     601A      4.056179   602A      4.075519   603A      4.084880  
     604A      4.086487   605A      4.091479   606A      4.092829  
     607A      4.108723   608A      4.113333   609A      4.133615  
     610A      4.148891   611A      4.162989   612A      4.168626  
     613A      4.170033   614A      4.170476   615A      4.193394  
     616A      4.193970   617A      4.202064   618A      4.211278  
     619A      4.215028   620A      4.233323   621A      4.247112  
     622A      4.249028   623A      4.257263   624A      4.266797  
     625A      4.301360   626A      4.303873   627A      4.305139  
     628A      4.315552   629A      4.327624   630A      4.340988  
     631A      4.342291   632A      4.352112   633A      4.356027  
     634A      4.366898   635A      4.370313   636A      4.384892  
     637A      4.387029   638A      4.395365   639A      4.400876  
     640A      4.409541   641A      4.410174   642A      4.420299  
     643A      4.420844   644A      4.445595   645A      4.455211  
     646A      4.463972   647A      4.467599   648A      4.486842  
     649A      4.498901   650A      4.508826   651A      4.513243  
     652A      4.526219   653A      4.527633   654A      4.542905  
     655A      4.554806   656A      4.557479   657A      4.573777  
     658A      4.596213   659A      4.615981   660A      4.619415  
     661A      4.646996   662A      4.651548   663A      4.663489  
     664A      4.705749   665A      4.712550   666A      4.725828  
     667A      4.737731   668A      4.755092   669A      4.760484  
     670A      4.768881   671A      4.782577   672A      4.794198  
     673A      4.801663   674A      4.812050   675A      4.823386  
     676A      4.862785   677A      4.864420   678A      4.875306  
     679A      4.895299   680A      4.904797   681A      4.906332  
     682A      4.940157   683A      4.943448   684A      4.946269  
     685A      4.956792   686A      4.964458   687A      4.987564  
     688A      4.997246   689A      5.028813   690A      5.030544  
     691A      5.055193   692A      5.058518   693A      5.063604  
     694A      5.063899   695A      5.080606   696A      5.087005  
     697A      5.107782   698A      5.125204   699A      5.133619  
     700A      5.144286   701A      5.149021   702A      5.152788  
     703A      5.173027   704A      5.181906   705A      5.185265  
     706A      5.191936   707A      5.210599   708A      5.222694  
     709A      5.241027   710A      5.241914   711A      5.253684  
     712A      5.293131   713A      5.303608   714A      5.315726  
     715A      5.330969   716A      5.340997   717A      5.351679  
     718A      5.376378   719A      5.387736   720A      5.392688  
     721A      5.424485   722A      5.437471   723A      5.451513  
     724A      5.464208   725A      5.466507   726A      5.504440  
     727A      5.506606   728A      5.521195   729A      5.567624  
     730A      5.580587   731A      5.598867   732A      5.630830  
     733A      5.640491   734A      5.688923   735A      5.700690  
     736A      5.722156   737A      5.735089   738A      5.748092  
     739A      5.781513   740A      5.791428   741A      5.801765  
     742A      5.819382   743A      5.848707   744A      5.849211  
     745A      5.894286   746A      5.946677   747A      5.967346  
     748A      5.998706   749A      6.055686   750A      6.108866  
     751A      6.112740   752A      6.126927   753A      6.144077  
     754A      6.165206   755A      6.247727   756A      6.264489  
     757A      6.289965   758A      6.328747   759A      6.365166  
     760A      6.407784   761A      6.441684   762A      6.497887  
     763A      6.508392   764A      6.541613   765A      6.587866  
     766A      6.625899   767A      6.645402   768A      6.696661  
     769A      6.751009   770A      6.782148   771A      6.783927  
     772A      6.865898   773A      6.872078   774A      6.927337  
     775A      6.954285   776A      6.961075   777A      6.994849  
     778A      7.074090   779A      7.099406   780A      7.129915  
     781A      7.192603   782A      7.238960   783A      7.242070  
     784A      7.498687   785A      7.525514   786A      7.578321  
     787A      7.661230   788A      7.818986   789A      7.826562  
     790A      7.910920   791A      8.033357   792A      8.103058  
     793A     16.003864   794A     16.195869   795A     16.341601  
     796A     16.594841   797A     17.095978   798A     18.927759  
     799A     19.215049   800A     19.675770   801A     19.837037  
     802A     20.117998   803A     20.264439   804A     20.350060  
     805A     21.884834  

    Final Occupation by Irrep:
              A 
    DOCC [    45 ]

  Energy converged.

  @DF-RHF Final Energy:  -551.20845034552372

   => Energetics <=

    Nuclear Repulsion Energy =            701.0306072263905435
    One-Electron Energy =               -2138.6572749449010189
    Two-Electron Energy =                 886.4182173729866463
    DFT Exchange-Correlation Energy =       0.0000000000000000
    Empirical Dispersion Energy =           0.0000000000000000
    PCM Polarization Energy =               0.0000000000000000
    EFP Energy =                            0.0000000000000000
    Total Energy =                       -551.2084503455237154



Properties will be evaluated at   0.000000,   0.000000,   0.000000 Bohr

Properties computed using the SCF density matrix

  Nuclear Dipole Moment: (a.u.)
     X:     5.8832      Y:    -3.1281      Z:    -3.6762

  Electronic Dipole Moment: (a.u.)
     X:     0.2123      Y:    -0.1126      Z:    -0.1317

  Dipole Moment: (a.u.)
     X:     6.0956      Y:    -3.2407      Z:    -3.8078     Total:     7.8840

  Dipole Moment: (Debye)
     X:    15.4934      Y:    -8.2370      Z:    -9.6786     Total:    20.0392


*** tstop() called on gpu-1-8.local at Sun Nov 12 16:55:24 2017
Module time:
	user time   =    1157.10 seconds =      19.29 minutes
	system time =      52.15 seconds =       0.87 minutes
	total time  =        477 seconds =       7.95 minutes
Total time:
	user time   =    1157.11 seconds =      19.29 minutes
	system time =      52.15 seconds =       0.87 minutes
	total time  =        477 seconds =       7.95 minutes

  //>>>>>>>>>>>>>>>>>>>>>>>>>>>>>>>>>>>//
  //               DFMP2               //
  //<<<<<<<<<<<<<<<<<<<<<<<<<<<<<<<<<<<//

   => Loading Basis Set <=

    Name: (AUG-CC-PVTZ AUX)
    Role: RIFIT
    Keyword: DF_BASIS_MP2
    atoms 1-11  entry C          line   147 file /cbio/jclab/home/chayas/anaconda/envs/py35/share/psi4/basis/aug-cc-pvtz-ri.gbs 
    atoms 12    entry N          line   205 file /cbio/jclab/home/chayas/anaconda/envs/py35/share/psi4/basis/aug-cc-pvtz-ri.gbs 
    atoms 13    entry O          line   263 file /cbio/jclab/home/chayas/anaconda/envs/py35/share/psi4/basis/aug-cc-pvtz-ri.gbs 
    atoms 14-22 entry H          line    29 file /cbio/jclab/home/chayas/anaconda/envs/py35/share/psi4/basis/aug-cc-pvtz-ri.gbs 

	 --------------------------------------------------------
	                          DF-MP2                         
	      2nd-Order Density-Fitted Moller-Plesset Theory     
	              RMP2 Wavefunction,   8 Threads             
	                                                         
	        Rob Parrish, Justin Turney, Andy Simmonett,      
	           Ed Hohenstein, and C. David Sherrill          
	 --------------------------------------------------------

   => Auxiliary Basis Set <=

  Basis Set: (AUG-CC-PVTZ AUX)
    Blend: AUG-CC-PVTZ-RI
    Number of shells: 490
    Number of basis function: 1792
    Number of Cartesian functions: 2263
    Spherical Harmonics?: true
    Max angular momentum: 4

	 --------------------------------------------------------
	                 NBF =   805, NAUX =  1792
	 --------------------------------------------------------
	   CLASS    FOCC     OCC    AOCC    AVIR     VIR    FVIR
	   PAIRS       0      45      45     760     760       0
	 --------------------------------------------------------


         ------------------------------------------------------------
                                     CPHF                           
                                  Rob Parrish                       
         ------------------------------------------------------------

  ==> Geometry <==

    Molecular point group: c1
    Full point group: C1

    Geometry (in Angstrom), charge = 0, multiplicity = 1:

       Center              X                  Y                   Z               Mass       
    ------------   -----------------  -----------------  -----------------  -----------------
           C         -1.297296954933     0.733896411890    -0.557114964934    12.000000000000
           C         -0.304296954933     0.117896411890     1.556885035066    12.000000000000
           C         -2.375296954933     1.306896411890     0.115885035066    12.000000000000
           C         -1.382296954933     0.690896411890     2.230885035066    12.000000000000
           C          1.457703045067     0.219896411890    -1.593114964934    12.000000000000
           C          1.335703045067    -1.705103588110    -0.150114964934    12.000000000000
           C          2.528703045067    -0.374103588110    -2.245114964934    12.000000000000
           C          2.409703045067    -2.251103588110    -0.839114964934    12.000000000000
           C         -0.261296954933     0.138896411890     0.162885035066    12.000000000000
           C          0.857703045067    -0.456103588110    -0.535114964934    12.000000000000
           C         -2.418296954933     1.285896411890     1.509885035066    12.000000000000
           N          2.968703045067    -1.578103588110    -1.854114964934    14.003074004780
           O         -3.409296954933     1.811896411890     2.128885035066    15.994914619560
           H         -1.278296954933     0.758896411890    -1.644114964934     1.007825032070
           H          0.495703045067    -0.342103588110     2.131885035066     1.007825032070
           H         -3.171296954933     1.763896411890    -0.470114964934     1.007825032070
           H         -1.391296954933     0.661896411890     3.318885035066     1.007825032070
           H          1.105703045067     1.195896411890    -1.915114964934     1.007825032070
           H          0.885703045067    -2.255103588110     0.670885035066     1.007825032070
           H          3.054703045067     0.076896411890    -3.074114964934     1.007825032070
           H          2.845703045067    -3.213103588110    -0.609114964934     1.007825032070
           H          3.755703045067    -1.998103588110    -2.347114964934     1.007825032070

  Nuclear repulsion =  701.030607226390543
  Reference energy  = -551.208450345523715

  ==> Basis Set <==

  Basis Set: AUG-CC-PVTZ
    Blend: AUG-CC-PVTZ
    Number of shells: 263
    Number of basis function: 805
    Number of Cartesian functions: 940
    Spherical Harmonics?: true
    Max angular momentum: 3

  ==> CGRSolver (by Rob Parrish) <==

   Number of roots    =         1
   Preconditioning    =    JACOBI
   Convergence cutoff =     1E-06
   Maximum iterations =       100

  ==> CPHFRHamiltonian (by Rob Parrish) <== 

  ==> DFJK: Density-Fitted J/K Matrices <==

    J tasked:                  Yes
    K tasked:                  Yes
    wK tasked:                  No
    OpenMP threads:              8
    Integrals threads:           8
    Memory (MB):              3576
    Algorithm:                Disk
    Integral Cache:           NONE
    Schwarz Cutoff:          1E-12
    Fitting Condition:       1E-12

   => Auxiliary Basis Set <=

  Basis Set: (AUG-CC-PVTZ AUX)
    Blend: AUG-CC-PVTZ-JKFIT
    Number of shells: 516
    Number of basis function: 1766
    Number of Cartesian functions: 2198
    Spherical Harmonics?: true
    Max angular momentum: 4

  ==> CPHF Iterations <==

  => Iterations <=

             Iter  Converged  Remaining    Residual
  CGR           1          0          1   1.636E-01
  CGR           2          0          1   6.637E-02
  CGR           3          0          1   3.298E-02
  CGR           4          0          1   9.636E-03
  CGR           5          0          1   3.557E-03
  CGR           6          0          1   1.460E-03
  CGR           7          0          1   6.154E-04
  CGR           8          0          1   3.628E-04
  CGR           9          0          1   1.585E-04
  CGR          10          0          1   4.899E-05
  CGR          11          0          1   2.080E-05
  CGR          12          0          1   5.704E-06
  CGR          13          0          1   2.345E-06
  CGR          14          1          0   7.449E-07

    CGRSolver converged.

  ==> DFCorrGrad: Density-Fitted Correlated Gradients <==

    OpenMP threads:              8
    Integrals threads:           8
    Memory (MB):              3576
    Schwarz Cutoff:          0E+00
    Fitting Condition:       1E-12

   => Auxiliary Basis Set <=

  Basis Set: (AUG-CC-PVTZ AUX)
    Blend: AUG-CC-PVTZ-JKFIT
    Number of shells: 516
    Number of basis function: 1766
    Number of Cartesian functions: 2198
    Spherical Harmonics?: true
    Max angular momentum: 4

	-----------------------------------------------------------
	 ==================> DF-MP2 Energies <==================== 
	-----------------------------------------------------------
	 Reference Energy          =    -551.2084503455237154 [Eh]
	 Singles Energy            =      -0.0000000000000001 [Eh]
	 Same-Spin Energy          =      -0.6066370543600478 [Eh]
	 Opposite-Spin Energy      =      -1.8386234276642448 [Eh]
	 Correlation Energy        =      -2.4452604820242927 [Eh]
	 Total Energy              =    -553.6537108275480250 [Eh]
	-----------------------------------------------------------
	 ================> DF-SCS-MP2 Energies <================== 
	-----------------------------------------------------------
	 SCS Same-Spin Scale       =       0.3333333333333333 [-]
	 SCS Opposite-Spin Scale   =       1.2000000000000000 [-]
	 SCS Same-Spin Energy      =      -0.2022123514533493 [Eh]
	 SCS Opposite-Spin Energy  =      -2.2063481131970937 [Eh]
	 SCS Correlation Energy    =      -2.4085604646504430 [Eh]
	 SCS Total Energy          =    -553.6170108101741789 [Eh]
	-----------------------------------------------------------


  -Total Gradient:
     Atom            X                  Y                   Z
    ------   -----------------  -----------------  -----------------
       1        0.024344682830    -0.028823343403    -0.002416200138
       2        0.025263883960     0.002478852142    -0.028593305014
       3       -0.027404176111     0.013726855780     0.051861407713
       4       -0.052850298531     0.028792606755    -0.000846637627
       5       -0.023066137375     0.010098243892     0.032111105676
       6       -0.035073923315     0.020408005173     0.004724099043
       7        0.019713077790    -0.025422484369     0.001916925384
       8        0.018808331162     0.005283542573    -0.026468892092
       9       -0.035375578510     0.018823399362     0.022010115283
      10        0.047490206520    -0.025239477299    -0.029543089904
      11        0.065251913889    -0.034500301661    -0.041289967131
      12       -0.018474374123     0.009930069657     0.011563052192
      13       -0.019028741367     0.010040816985     0.011964021454
      14       -0.001096757278     0.001839759193    -0.003559795259
      15        0.001240539499    -0.001881235231     0.003339149894
      16       -0.001847231090     0.003269214513    -0.008893592590
      17        0.004178007271    -0.004496925576     0.007086699594
      18       -0.002599309238     0.005238358106    -0.003042043326
      19       -0.001583634347    -0.002794689797     0.005350158576
      20        0.001198596182    -0.000882882511    -0.002460705084
      21        0.002761960538    -0.001437808501     0.000300690597
      22        0.008148961624    -0.004450575772    -0.005113197254


*** tstop() called on gpu-1-8.local at Sun Nov 12 17:27:04 2017
Module time:
	user time   =    5246.19 seconds =      87.44 minutes
	system time =     111.01 seconds =       1.85 minutes
	total time  =       2377 seconds =      39.62 minutes
Total time:
	user time   =    5246.20 seconds =      87.44 minutes
	system time =     111.01 seconds =       1.85 minutes
	total time  =       2377 seconds =      39.62 minutes

			-----------------------------------------
			 OPTKING 2.0: for geometry optimizations 
			  - R.A. King,  Bethel University        
			-----------------------------------------

	Internal coordinates to be generated automatically.
	Detected frag 1 with atoms:  1 2 3 4 5 6 7 8 9 10 11 12 13 14 15 16 17 18 19 20
	 21 22
	---Fragment 1 Bond Connectivity---
	 1 : 3 9 14
	 2 : 4 9 15
	 3 : 1 11 16
	 4 : 2 11 17
	 5 : 7 10 18
	 6 : 8 10 19
	 7 : 5 12 20
	 8 : 6 12 21
	 9 : 1 2 10
	 10 : 5 6 9
	 11 : 3 4 13
	 12 : 7 8 22
	 13 : 11
	 14 : 1
	 15 : 2
	 16 : 3
	 17 : 4
	 18 : 5
	 19 : 6
	 20 : 7
	 21 : 8
	 22 : 12

	Assuming in current code that numbering for constraints corresponds to unified fragment.
	Fixed dihedral atom list: 
	     1     9    10     5
	---Fragment 1 Geometry and Gradient---
	 C          -2.4515359578        1.3868632284       -1.0527947083
	 C          -0.5750379079        0.2227919305        2.9420863367
	 C          -4.4886607291        2.4696763025        0.2189909792
	 C          -2.6121626791        1.3056050047        4.2157617502
	 C           2.7546595383        0.4155439961       -3.0105509819
	 C           2.5241129500       -3.2221788097       -0.2836761722
	 C           4.7785562266       -0.7069533269       -4.2426524206
	 C           4.5536788168       -4.2539692783       -1.5856974777
	 C          -0.4937796842        0.2624761793        0.3078081074
	 C           1.6208238585       -0.8619108698       -1.0112207333
	 C          -4.5699189528        2.4299920537        2.8532692084
	 N           5.6100357250       -2.9821835909       -3.5037695026
	 O          -6.4426375505        3.4239879996        4.0230096847
	 H          -2.4156311613        1.4341063817       -3.1069270147
	 H           0.9367429984       -0.6464820906        4.0286788631
	 H          -5.9928827309        3.3332811453       -0.8883885347
	 H          -2.6291702143        1.2508029468        6.2717837828
	 H           2.0894759395        2.2599167018       -3.6190427967
	 H           1.6737361902       -4.2615281828        1.2677889829
	 H           5.7725521725        0.1453131591       -5.8092353847
	 H           5.3775994107       -6.0718858181       -1.1510604672
	 H           7.0972501916       -3.7758685667       -4.4354044861
	             0.0243446828       -0.0288233434       -0.0024162001
	             0.0252638840        0.0024788521       -0.0285933050
	            -0.0274041761        0.0137268558        0.0518614077
	            -0.0528502985        0.0287926068       -0.0008466376
	            -0.0230661374        0.0100982439        0.0321111057
	            -0.0350739233        0.0204080052        0.0047240990
	             0.0197130778       -0.0254224844        0.0019169254
	             0.0188083312        0.0052835426       -0.0264688921
	            -0.0353755785        0.0188233994        0.0220101153
	             0.0474902065       -0.0252394773       -0.0295430899
	             0.0652519139       -0.0345003017       -0.0412899671
	            -0.0184743741        0.0099300697        0.0115630522
	            -0.0190287414        0.0100408170        0.0119640215
	            -0.0010967573        0.0018397592       -0.0035597953
	             0.0012405395       -0.0018812352        0.0033391499
	            -0.0018472311        0.0032692145       -0.0088935926
	             0.0041780073       -0.0044969256        0.0070866996
	            -0.0025993092        0.0052383581       -0.0030420433
	            -0.0015836343       -0.0027946898        0.0053501586
	             0.0011985962       -0.0008828825       -0.0024607051
	             0.0027619605       -0.0014378085        0.0003006906
	             0.0081489616       -0.0044505758       -0.0051131973

	Previous optimization step data not found.  Starting new optimization.

	---Fragment 1 Intrafragment Coordinates---
	 - Coordinate -           - BOHR/RAD -       - ANG/DEG -
	 R(1,3)           =         2.634350	       1.394038
	 R(1,9)           =         2.635962	       1.394891
	 R(1,14)          =         2.054989	       1.087453
	 R(2,4)           =         2.635263	       1.394521
	 R(2,9)           =         2.635830	       1.394821
	 R(2,15)          =         2.054702	       1.087302
	 R(3,11)          =         2.635830	       1.394821
	 R(3,16)          =         2.057860	       1.088972
	 R(4,11)          =         2.636938	       1.395407
	 R(4,17)          =         2.056823	       1.088424
	 R(5,7)           =         2.621876	       1.387437
	 R(5,10)          =         2.629600	       1.391524
	 R(5,18)          =         2.052911	       1.086354
	 R(6,8)           =         2.622783	       1.387917
	 R(6,10)          =         2.629851	       1.391657
	 R(6,19)          =         2.051934	       1.085837
	 R(7,12)          =         2.532583	       1.340185
	 R(7,20)          =         2.041707	       1.080425
	 R(8,12)          =         2.532258	       1.340013
	 R(8,21)          =         2.042688	       1.080944
	 R(9,10)          =         2.734160	       1.446855
	 R(11,13)         =         2.421445	       1.281373
	 R(12,22)         =         1.926055	       1.019224
	 B(1,3,11)        =         2.094553	     120.009056
	 B(1,3,16)        =         2.069123	     118.552025
	 B(1,9,2)         =         2.093692	     119.959722
	 B(1,9,10)        =         2.095337	     120.053983
	 B(2,4,11)        =         2.093699	     119.960108
	 B(2,4,17)        =         2.069829	     118.592446
	 B(2,9,10)        =         2.094156	     119.986294
	 B(3,1,9)         =         2.094940	     120.031219
	 B(3,1,14)        =         2.079025	     119.119344
	 B(3,11,4)        =         2.094306	     119.994870
	 B(3,11,13)       =         2.094918	     120.029973
	 B(4,2,9)         =         2.095181	     120.045019
	 B(4,2,15)        =         2.079455	     119.143974
	 B(4,11,13)       =         2.093961	     119.975136
	 B(5,7,12)        =         2.095496	     120.063093
	 B(5,7,20)        =         2.162373	     123.894851
	 B(5,10,6)        =         2.092364	     119.883620
	 B(5,10,9)        =         2.094967	     120.032763
	 B(6,8,12)        =         2.095842	     120.082909
	 B(6,8,21)        =         2.161085	     123.821039
	 B(6,10,9)        =         2.095854	     120.083615
	 B(7,5,10)        =         2.073908	     118.826190
	 B(7,5,18)        =         2.089169	     119.700589
	 B(7,12,8)        =         2.135573	     122.359346
	 B(7,12,22)       =         2.074409	     118.854862
	 B(8,6,10)        =         2.073186	     118.784823
	 B(8,6,19)        =         2.090678	     119.787033
	 B(8,12,22)       =         2.073202	     118.785710
	 B(9,1,14)        =         2.109221	     120.849435
	 B(9,2,15)        =         2.108550	     120.811005
	 B(10,5,18)       =         2.120108	     121.473222
	 B(10,6,19)       =         2.119319	     121.428031
	 B(11,3,16)       =         2.119509	     121.438903
	 B(11,4,17)       =         2.119657	     121.447411
	 B(12,7,20)       =         2.025316	     116.042045
	 B(12,8,21)       =         2.026258	     116.096005
	 D(1,3,11,4)      =        -0.000325	      -0.018609
	 D(1,3,11,13)     =        -3.141004	    -179.966279
	 D(1,9,2,4)       =         0.000325	       0.018608
	 D(1,9,2,15)      =        -3.141527	    -179.996257
	 D(1,9,10,5)      =         0.784984	      44.976286
	 D(1,9,10,6)      =        -2.356376	    -135.010411
	 D(2,4,11,3)      =         0.000301	       0.017261
	 D(2,4,11,13)     =         3.140981	     179.964960
	 D(2,9,1,3)       =        -0.000348	      -0.019945
	 D(2,9,1,14)      =         3.141027	     179.967567
	 D(2,9,10,5)      =        -2.356391	    -135.011274
	 D(2,9,10,6)      =         0.785434	      45.002029
	 D(3,1,9,10)      =         3.141462	     179.992491
	 D(3,11,4,17)     =         3.140700	     179.948827
	 D(4,2,9,10)      =        -3.141485	    -179.993820
	 D(4,11,3,16)     =         3.140472	     179.935781
	 D(5,7,12,8)      =        -0.000000	      -0.000000
	 D(5,7,12,22)     =         3.139749	     179.894342
	 D(5,10,6,8)      =        -0.000741	      -0.042462
	 D(5,10,6,19)     =        -3.140188	    -179.919542
	 D(6,8,12,7)      =        -0.000578	      -0.033144
	 D(6,8,12,22)     =        -3.140328	    -179.927557
	 D(6,10,5,7)      =         0.000184	       0.010567
	 D(6,10,5,18)     =        -3.141495	    -179.994382
	 D(7,5,10,9)      =        -3.141177	    -179.976157
	 D(7,12,8,21)     =        -3.140845	    -179.957158
	 D(8,6,10,9)      =         3.140620	     179.944255
	 D(8,12,7,20)     =         3.140947	     179.962989
	 D(9,1,3,11)      =         0.000348	       0.019955
	 D(9,1,3,16)      =        -3.140471	    -179.935743
	 D(9,2,4,11)      =        -0.000301	      -0.017270
	 D(9,2,4,17)      =        -3.140734	    -179.950778
	 D(9,10,5,18)     =         0.000330	       0.018894
	 D(9,10,6,19)     =         0.001172	       0.067175
	 D(10,5,7,12)     =         0.000196	       0.011234
	 D(10,5,7,20)     =        -3.140697	    -179.948705
	 D(10,6,8,12)     =         0.000939	       0.053778
	 D(10,6,8,21)     =         3.141098	     179.971638
	 D(10,9,1,14)     =        -0.000349	      -0.019997
	 D(10,9,2,15)     =        -0.000152	      -0.008685
	 D(11,3,1,14)     =        -3.141030	    -179.967773
	 D(11,4,2,15)     =         3.141546	     179.997347
	 D(12,7,5,18)     =        -3.141312	    -179.983907
	 D(12,8,6,19)     =         3.140422	     179.932923
	 D(13,11,3,16)    =        -0.000207	      -0.011889
	 D(13,11,4,17)    =        -0.001806	      -0.103475
	 D(14,1,3,16)     =         0.001336	       0.076530
	 D(15,2,4,17)     =         0.001114	       0.063839
	 D(18,5,7,20)     =         0.000980	       0.056154
	 D(19,6,8,21)     =        -0.002604	      -0.149216
	 D(20,7,12,22)    =        -0.002490	      -0.142669
	 D(21,8,12,22)    =         0.002591	       0.148429

	Current energy   :      -553.6537108275

	Generating empirical Hessian (Schlegel '84) for each fragment.
	Adding user-defined constraint: Fragment 1; Coordinate 64:
		Value =     0.784984; Fixed value    =     0.785398
		Force =     0.000207; Force constant =     0.500000
	Removing off-diagonal coupling between coordinate 64 and others.
	Taking RFO optimization step.
	Going to follow RFO solution 1.
	Using RFO vector 1.

	Determining step-restricting scale parameter for RS-RFO.
	Maximum step size allowed    0.10000

	 Iter      |step|        alpha        rfo_root  
	------------------------------------------------
	    0     0.40111       1.00000           1
	    1     0.26646       2.98203           1
	    2     0.19091       8.27520           1
	    3     0.14221      20.93252           1
	    4     0.11405      39.73848           1
	    5     0.10238      53.38528           1
	    6     0.10009      56.71974           1
	    7     0.10000      56.85396           1
	------------------------------------------------
	Norm of target step-size    0.10000
	Projected energy change by RFO approximation:        -0.0090620014

	Back-transformation to cartesian coordinates...
	Could not converge backtransformation.
	Using first guess instead.

	--- Internal Coordinate Step in ANG or DEG, aJ/ANG or AJ/DEG ---
	 ---------------------------------------------------------------------------
	   Coordinate                Previous        Force       Change         New 
	   ----------                --------       ------       ------       ------
	    1 R(1,3)          =      1.394038    -0.167539    -0.010927     1.383111
	    2 R(1,9)          =      1.394891     0.128535     0.008243     1.403134
	    3 R(1,14)         =      1.087453    -0.029506    -0.002171     1.085282
	    4 R(2,4)          =      1.394521    -0.170503    -0.011136     1.383385
	    5 R(2,9)          =      1.394821     0.129586     0.008318     1.403139
	    6 R(2,15)         =      1.087302    -0.028626    -0.002099     1.085202
	    7 R(3,11)         =      1.394821     0.274601     0.018208     1.413029
	    8 R(3,16)         =      1.088972    -0.061856    -0.004573     1.084400
	    9 R(4,11)         =      1.395407     0.271148     0.018015     1.413423
	   10 R(4,17)         =      1.088424    -0.059065    -0.004363     1.084061
	   11 R(5,7)          =      1.387437    -0.170817    -0.011014     1.376423
	   12 R(5,10)         =      1.391524     0.161284     0.010494     1.402019
	   13 R(5,18)         =      1.086354    -0.053141    -0.003912     1.082442
	   14 R(6,8)          =      1.387917    -0.173844    -0.011220     1.376697
	   15 R(6,10)         =      1.391657     0.160345     0.010432     1.402089
	   16 R(6,19)         =      1.085837    -0.050397    -0.003705     1.082131
	   17 R(7,12)         =      1.340185     0.133005     0.007902     1.348088
	   18 R(7,20)         =      1.080425    -0.017327    -0.001260     1.079165
	   19 R(8,12)         =      1.340013     0.133586     0.007931     1.347944
	   20 R(8,21)         =      1.080944    -0.020247    -0.001465     1.079479
	   21 R(9,10)         =      1.446855    -0.184167    -0.013076     1.433780
	   22 R(11,13)        =      1.281373    -0.202820    -0.010468     1.270905
	   23 R(12,22)        =      1.019224    -0.087326    -0.005827     1.013397
	   24 B(1,3,11)       =    120.009056     0.000470     0.488832   120.497888
	   25 B(1,3,16)       =    118.552025     0.000220     0.258549   118.810574
	   26 B(1,9,2)        =    119.959722    -0.000220    -0.273139   119.686583
	   27 B(1,9,10)       =    120.053983     0.000102     0.128657   120.182641
	   28 B(2,4,11)       =    119.960108     0.000484     0.499802   120.459911
	   29 B(2,4,17)       =    118.592446     0.000211     0.249794   118.842239
	   30 B(2,9,10)       =    119.986294     0.000118     0.144138   120.130432
	   31 B(3,1,9)        =    120.031219     0.000277     0.246069   120.277288
	   32 B(3,1,14)       =    119.119344     0.000007     0.038005   119.157350
	   33 B(3,11,4)       =    119.994870    -0.001292    -1.209755   118.785116
	   34 B(3,11,13)      =    120.029973     0.000638     0.598175   120.628148
	   35 B(4,2,9)        =    120.045019     0.000280     0.247810   120.292829
	   36 B(4,2,15)       =    119.143974     0.000001     0.031411   119.175386
	   37 B(4,11,13)      =    119.975136     0.000654     0.611555   120.586691
	   38 B(5,7,12)       =    120.063093    -0.000115    -0.116891   119.946202
	   39 B(5,7,20)       =    123.894851    -0.000063    -0.075406   123.819444
	   40 B(5,10,6)       =    119.883620    -0.000901    -0.895515   118.988106
	   41 B(5,10,9)       =    120.032763     0.000458     0.454909   120.487672
	   42 B(6,8,12)       =    120.082909    -0.000114    -0.118146   119.964763
	   43 B(6,8,21)       =    123.821039    -0.000054    -0.064423   123.756616
	   44 B(6,10,9)       =    120.083615     0.000443     0.440266   120.523881
	   45 B(7,5,10)       =    118.826190     0.000573     0.568909   119.395099
	   46 B(7,5,18)       =    119.700589    -0.000253    -0.249908   119.450681
	   47 B(7,12,8)       =    122.359346    -0.000027    -0.019185   122.340162
	   48 B(7,12,22)      =    118.854862     0.000008     0.003982   118.858844
	   49 B(8,6,10)       =    118.784823     0.000585     0.580716   119.365539
	   50 B(8,6,19)       =    119.787033    -0.000269    -0.267720   119.519313
	   51 B(8,12,22)      =    118.785710     0.000019     0.015241   118.800951
	   52 B(9,1,14)       =    120.849435    -0.000284    -0.284225   120.565210
	   53 B(9,2,15)       =    120.811005    -0.000281    -0.279428   120.531577
	   54 B(10,5,18)      =    121.473222    -0.000320    -0.319021   121.154201
	   55 B(10,6,19)      =    121.428031    -0.000316    -0.313184   121.114847
	   56 B(11,3,16)      =    121.438903    -0.000691    -0.747388   120.691515
	   57 B(11,4,17)      =    121.447411    -0.000695    -0.749580   120.697832
	   58 B(12,7,20)      =    116.042045     0.000178     0.192156   116.234201
	   59 B(12,8,21)      =    116.096005     0.000168     0.182616   116.278621
	   60 D(1,3,11,4)     =     -0.018609    -0.000016    -0.103632    -0.122241
	   61 D(1,3,11,13)    =   -179.966279    -0.000013    -0.078939  -180.045217
	   62 D(1,9,2,4)      =      0.018608    -0.000026    -0.188575    -0.169967
	   63 D(1,9,2,15)     =   -179.996257     0.000004    -0.006124  -180.002381
	   64 D(1,9,10,5)     =     44.976286    -0.000099    -0.443089    44.533197
	   65 D(1,9,10,6)     =   -135.010411    -0.000125    -0.671157  -135.681567
	   66 D(2,4,11,3)     =      0.017261    -0.000011    -0.063780    -0.046518
	   67 D(2,4,11,13)    =    179.964960    -0.000014    -0.088469   179.876491
	   68 D(2,9,1,3)      =     -0.019945    -0.000001     0.021058     0.001113
	   69 D(2,9,1,14)     =    179.967567     0.000025     0.176757   180.144323
	   70 D(2,9,10,5)     =   -135.011274    -0.000125    -0.669632  -135.680907
	   71 D(2,9,10,6)     =     45.002029    -0.000152    -0.897700    44.104329
	   72 D(3,1,9,10)     =    179.992491    -0.000027    -0.204530   179.787962
	   73 D(3,11,4,17)    =    179.948827    -0.000010    -0.044942   179.903884
	   74 D(4,2,9,10)     =   -179.993820     0.000001     0.036892  -179.956928
	   75 D(4,11,3,16)    =    179.935781    -0.000017    -0.112480   179.823301
	   76 D(5,7,12,8)     =      0.000000    -0.000001    -0.010622    -0.010622
	   77 D(5,7,12,22)    =    179.894342     0.000003     0.018383   179.912725
	   78 D(5,10,6,8)     =     -0.042462    -0.000011    -0.093158    -0.135620
	   79 D(5,10,6,19)    =   -179.919542     0.000002    -0.015509  -179.935051
	   80 D(6,8,12,7)     =     -0.033144     0.000004     0.028676    -0.004469
	   81 D(6,8,12,22)    =   -179.927557     0.000000    -0.000301  -179.927858
	   82 D(6,10,5,7)     =      0.010567     0.000014     0.110423     0.120989
	   83 D(6,10,5,18)    =   -179.994382     0.000024     0.167099  -179.827282
	   84 D(7,5,10,9)     =   -179.976157    -0.000013    -0.114352  -180.090509
	   85 D(7,12,8,21)    =   -179.957158    -0.000009    -0.042842  -180.000000
	   86 D(8,6,10,9)     =    179.944255     0.000016     0.131702   180.075957
	   87 D(8,12,7,20)    =    179.962989    -0.000017    -0.110028   179.852961
	   88 D(9,1,3,11)     =      0.019955     0.000022     0.124646     0.144600
	   89 D(9,1,3,16)     =   -179.935743     0.000024     0.133789  -179.801954
	   90 D(9,2,4,11)     =     -0.017270     0.000032     0.209233     0.191963
	   91 D(9,2,4,17)     =   -179.950778     0.000030     0.191428  -179.759350
	   92 D(9,10,5,18)    =      0.018894    -0.000003    -0.057675    -0.038781
	   93 D(9,10,6,19)    =      0.067175     0.000028     0.209351     0.276526
	   94 D(10,5,7,12)    =      0.011234    -0.000008    -0.060090    -0.048856
	   95 D(10,5,7,20)    =   -179.948705     0.000009     0.047136  -179.901569
	   96 D(10,6,8,12)    =      0.053778     0.000002     0.024684     0.078462
	   97 D(10,6,8,21)    =    179.971638     0.000016     0.101814   180.073452
	   98 D(10,9,1,14)    =     -0.019997    -0.000001    -0.048831    -0.068828
	   99 D(10,9,2,15)    =     -0.008685     0.000030     0.219342     0.210658
	  100 D(11,3,1,14)    =   -179.967773    -0.000004    -0.028831  -179.996604
	  101 D(11,4,2,15)    =    179.997347     0.000003     0.029291   180.026638
	  102 D(12,7,5,18)    =   -179.983907    -0.000018    -0.115786  -180.099693
	  103 D(12,8,6,19)    =    179.932923    -0.000010    -0.051790   179.881133
	  104 D(13,11,3,16)   =     -0.011889    -0.000015    -0.087787    -0.099676
	  105 D(13,11,4,17)   =     -0.103475    -0.000012    -0.069632    -0.173106
	  106 D(14,1,3,16)    =      0.076530    -0.000002    -0.019687     0.056842
	  107 D(15,2,4,17)    =      0.063839     0.000001     0.011486     0.075325
	  108 D(18,5,7,20)    =      0.056154    -0.000001    -0.008560     0.047594
	  109 D(19,6,8,21)    =     -0.149216     0.000004     0.025340    -0.123877
	  110 D(20,7,12,22)   =     -0.142669    -0.000013    -0.081024    -0.223692
	  111 D(21,8,12,22)   =      0.148429    -0.000012    -0.071642     0.076787
	 ---------------------------------------------------------------------------
	Successfully symmetrized geometry.
	 Forces used to impose fixed constraints are not included.
	  Forces zeroed: 64 

  ==> Convergence Check <==

  Measures of convergence in internal coordinates in au.
  Criteria marked as inactive (o), active & met (*), and active & unmet ( ).
  --------------------------------------------------------------------------------------------- ~
   Step     Total Energy     Delta E     MAX Force     RMS Force      MAX Disp      RMS Disp    ~
  --------------------------------------------------------------------------------------------- ~
    Convergence Criteria    1.00e-06 *    3.00e-04 *             o    1.20e-03 *             o  ~
  --------------------------------------------------------------------------------------------- ~
      1    -553.65371083   -5.54e+02      3.33e-02      8.75e-03 o    3.44e-02      9.49e-03 o  ~
  ---------------------------------------------------------------------------------------------

	Writing optimization data to binary file.
	Structure for next step:
	Cartesian Geometry (in Angstrom)
	    C    -1.2986051002   0.7435982349  -0.5605998751
	    C    -0.3073217591   0.1112275602   1.5619355800
	    C    -2.3700469838   1.3105798832   0.1053892400
	    C    -1.3747339389   0.6797809621   2.2335987242
	    C     1.4587306345   0.2174672359  -1.6034111162
	    C     1.3436473862  -1.7066159589  -0.1468771108
	    C     2.5216462523  -0.3700093623  -2.2511927427
	    C     2.4091464894  -2.2512653422  -0.8275841188
	    C    -0.2575136125   0.1388531556   0.1599533080
	    C     0.8499893871  -0.4522914960  -0.5326571184
	    C    -2.4286636167   1.2909908799   1.5170663534
	    N     2.9679980489  -1.5781392219  -1.8530304688
	    O    -3.4115846202   1.8119850666   2.1315832103
	    H    -1.2757758188   0.7709752965  -1.6452965706
	    H     0.4903424034  -0.3529038642   2.1328803896
	    H    -3.1630948196   1.7687343002  -0.4752074173
	    H    -1.3873116084   0.6485502188   3.3171367641
	    H     1.1079416763   1.1884417336  -1.9287361554
	    H     0.8992839427  -2.2541137664   0.6739729840
	    H     3.0432098726   0.0814760287  -3.0810903952
	    H     2.8443975931  -3.2105690914  -0.5918582026
	    H     3.7507851832  -1.9960313912  -2.3425044902
			--------------------------
			 OPTKING Finished Execution 
			--------------------------

    Structure for next step:
    Molecular point group: c1
    Full point group: C1

    Geometry (in Angstrom), charge = 0, multiplicity = 1:

    C           -1.298064649197     0.743306900067    -0.560847044779
    C           -0.306781308135     0.110936225418     1.561688410338
    C           -2.369506532842     1.310288548444     0.105142070325
    C           -1.374193487953     0.679489627301     2.233351554560
    C            1.459271085435     0.217175901063    -1.603658285882
    C            1.344187837192    -1.706907293699    -0.147124280518
    C            2.522186703273    -0.370300697075    -2.251439912355
    C            2.409686940325    -2.251556676973    -0.827831288533
    C           -0.256973161536     0.138561820787     0.159706138307
    C            0.850529838043    -0.452582830836    -0.532904288086
    C           -2.428123165697     1.290699545147     1.516819183675
    N            2.968538499877    -1.578430556674    -1.853277638523
    O           -3.411044169206     1.811693731768     2.131336040590
    H           -1.275235367798     0.770683961722    -1.645543740309
    H            0.490882854406    -0.353195199007     2.132633219965
    H           -3.162554368636     1.768442965379    -0.475454586954
    H           -1.386771157392     0.648258884023     3.316889594447
    H            1.108482127282     1.188150398778    -1.928983325088
    H            0.899824393677    -2.254405101196     0.673725814289
    H            3.043750323600     0.081184693946    -3.081337564863
    H            2.844938044075    -3.210860426140    -0.592105372275
    H            3.751325634146    -1.996322726006    -2.342751659929

gradient() will perform analytic gradient computation.

*** tstart() called on gpu-1-8.local
*** at Sun Nov 12 17:27:05 2017

    SCF Algorithm Type (re)set to DF.

*** tstart() called on gpu-1-8.local
*** at Sun Nov 12 17:27:05 2017

   => Loading Basis Set <=

    Name: AUG-CC-PVTZ
    Role: ORBITAL
    Keyword: BASIS
    atoms 1-11  entry C          line   221 file /cbio/jclab/home/chayas/anaconda/envs/py35/share/psi4/basis/aug-cc-pvtz.gbs 
    atoms 12    entry N          line   267 file /cbio/jclab/home/chayas/anaconda/envs/py35/share/psi4/basis/aug-cc-pvtz.gbs 
    atoms 13    entry O          line   313 file /cbio/jclab/home/chayas/anaconda/envs/py35/share/psi4/basis/aug-cc-pvtz.gbs 
    atoms 14-22 entry H          line    34 file /cbio/jclab/home/chayas/anaconda/envs/py35/share/psi4/basis/aug-cc-pvtz.gbs 


         ---------------------------------------------------------
                                   SCF
            by Justin Turney, Rob Parrish, and Andy Simmonett
                              RHF Reference
                        8 Threads,   4768 MiB Core
         ---------------------------------------------------------

  ==> Geometry <==

    Molecular point group: c1
    Full point group: C1

    Geometry (in Angstrom), charge = 0, multiplicity = 1:

       Center              X                  Y                   Z               Mass       
    ------------   -----------------  -----------------  -----------------  -----------------
           C         -1.298064649197     0.743306900067    -0.560847044779    12.000000000000
           C         -0.306781308135     0.110936225418     1.561688410338    12.000000000000
           C         -2.369506532842     1.310288548444     0.105142070325    12.000000000000
           C         -1.374193487953     0.679489627301     2.233351554560    12.000000000000
           C          1.459271085435     0.217175901063    -1.603658285882    12.000000000000
           C          1.344187837192    -1.706907293699    -0.147124280518    12.000000000000
           C          2.522186703273    -0.370300697075    -2.251439912355    12.000000000000
           C          2.409686940325    -2.251556676973    -0.827831288533    12.000000000000
           C         -0.256973161536     0.138561820787     0.159706138307    12.000000000000
           C          0.850529838043    -0.452582830836    -0.532904288086    12.000000000000
           C         -2.428123165697     1.290699545147     1.516819183675    12.000000000000
           N          2.968538499877    -1.578430556674    -1.853277638523    14.003074004780
           O         -3.411044169206     1.811693731768     2.131336040590    15.994914619560
           H         -1.275235367798     0.770683961722    -1.645543740309     1.007825032070
           H          0.490882854406    -0.353195199007     2.132633219965     1.007825032070
           H         -3.162554368636     1.768442965379    -0.475454586954     1.007825032070
           H         -1.386771157392     0.648258884023     3.316889594447     1.007825032070
           H          1.108482127282     1.188150398778    -1.928983325088     1.007825032070
           H          0.899824393677    -2.254405101196     0.673725814289     1.007825032070
           H          3.043750323600     0.081184693946    -3.081337564863     1.007825032070
           H          2.844938044075    -3.210860426140    -0.592105372275     1.007825032070
           H          3.751325634146    -1.996322726006    -2.342751659929     1.007825032070

  Running in c1 symmetry.

  Rotational constants: A =      0.09567  B =      0.01359  C =      0.01233 [cm^-1]
  Rotational constants: A =   2868.11724  B =    407.32314  C =    369.78467 [MHz]
  Nuclear repulsion =  700.370486320636701

  Charge       = 0
  Multiplicity = 1
  Electrons    = 90
  Nalpha       = 45
  Nbeta        = 45

  ==> Algorithm <==

  SCF Algorithm Type is DF.
  DIIS enabled.
  MOM disabled.
  Fractional occupation disabled.
  Guess Type is READ.
  Energy threshold   = 1.00e-10
  Density threshold  = 1.00e-10
  Integral threshold = 0.00e+00

  ==> Primary Basis <==

  Basis Set: AUG-CC-PVTZ
    Blend: AUG-CC-PVTZ
    Number of shells: 263
    Number of basis function: 805
    Number of Cartesian functions: 940
    Spherical Harmonics?: true
    Max angular momentum: 3

   => Loading Basis Set <=

    Name: (AUG-CC-PVTZ AUX)
    Role: JKFIT
    Keyword: DF_BASIS_SCF
    atoms 1-11  entry C          line   161 file /cbio/jclab/home/chayas/anaconda/envs/py35/share/psi4/basis/aug-cc-pvtz-jkfit.gbs 
    atoms 12    entry N          line   223 file /cbio/jclab/home/chayas/anaconda/envs/py35/share/psi4/basis/aug-cc-pvtz-jkfit.gbs 
    atoms 13    entry O          line   285 file /cbio/jclab/home/chayas/anaconda/envs/py35/share/psi4/basis/aug-cc-pvtz-jkfit.gbs 
    atoms 14-22 entry H          line    69 file /cbio/jclab/home/chayas/anaconda/envs/py35/share/psi4/basis/aug-cc-pvtz-jkfit.gbs 

  Reading orbitals from file 180, no projection.

  ==> Pre-Iterations <==

   -------------------------------------------------------
    Irrep   Nso     Nmo     Nalpha   Nbeta   Ndocc  Nsocc
   -------------------------------------------------------
     A        805     805       0       0       0       0
   -------------------------------------------------------
    Total     805     805      45      45      45       0
   -------------------------------------------------------

  ==> Integral Setup <==

  ==> DFJK: Density-Fitted J/K Matrices <==

    J tasked:                  Yes
    K tasked:                  Yes
    wK tasked:                  No
    OpenMP threads:              8
    Integrals threads:           8
    Memory (MB):              3576
    Algorithm:                Disk
    Integral Cache:           NONE
    Schwarz Cutoff:          1E-12
    Fitting Condition:       1E-12

   => Auxiliary Basis Set <=

  Basis Set: (AUG-CC-PVTZ AUX)
    Blend: AUG-CC-PVTZ-JKFIT
    Number of shells: 516
    Number of basis function: 1766
    Number of Cartesian functions: 2198
    Spherical Harmonics?: true
    Max angular momentum: 4

  Minimum eigenvalue in the overlap matrix is 6.8533328391E-07.
  Using Symmetric Orthogonalization.

  SCF Guess: Orbitals guess was supplied from a previous computation.

  ==> Iterations <==

                           Total Energy        Delta E     RMS |[F,P]|

   @DF-RHF iter   0:  -551.26784826024618   -5.51268e+02   5.16998e-04 
   @DF-RHF iter   1:  -551.21769457947971    5.01537e-02   9.50597e-05 
   @DF-RHF iter   2:  -551.21804506879937   -3.50489e-04   6.86901e-05 DIIS
   @DF-RHF iter   3:  -551.21827950661941   -2.34438e-04   1.21779e-05 DIIS
   @DF-RHF iter   4:  -551.21831102112856   -3.15145e-05   7.38412e-06 DIIS
   @DF-RHF iter   5:  -551.21832813205162   -1.71109e-05   4.32511e-06 DIIS
   @DF-RHF iter   6:  -551.21833477034784   -6.63830e-06   1.91894e-06 DIIS
   @DF-RHF iter   7:  -551.21833602778509   -1.25744e-06   5.94563e-07 DIIS
   @DF-RHF iter   8:  -551.21833610177043   -7.39853e-08   1.96953e-07 DIIS
   @DF-RHF iter   9:  -551.21833610680085   -5.03042e-09   8.75913e-08 DIIS
   @DF-RHF iter  10:  -551.21833610778299   -9.82141e-10   2.79720e-08 DIIS
   @DF-RHF iter  11:  -551.21833610792635   -1.43359e-10   1.14046e-08 DIIS
   @DF-RHF iter  12:  -551.21833610793567   -9.32232e-12   4.97713e-09 DIIS
   @DF-RHF iter  13:  -551.21833610795034   -1.46656e-11   2.26757e-09 DIIS
   @DF-RHF iter  14:  -551.21833610795488   -4.54747e-12   7.90643e-10 DIIS
   @DF-RHF iter  15:  -551.21833610794272    1.21645e-11   2.89595e-10 DIIS
   @DF-RHF iter  16:  -551.21833610793908    3.63798e-12   1.15339e-10 DIIS
   @DF-RHF iter  17:  -551.21833610795431   -1.52340e-11   5.57465e-11 DIIS

  ==> Post-Iterations <==

    Orbital Energies (a.u.)
    -----------------------

    Doubly Occupied:                                                      

       1A    -20.433692     2A    -15.697377     3A    -11.355850  
       4A    -11.355743     5A    -11.308017     6A    -11.284179  
       7A    -11.284134     8A    -11.247493     9A    -11.226203  
      10A    -11.226150    11A    -11.211102    12A    -11.185341  
      13A    -11.185272    14A     -1.379065    15A     -1.261341  
      16A     -1.177558    17A     -1.111531    18A     -1.105553  
      19A     -0.994707    20A     -0.991167    21A     -0.934502  
      22A     -0.899956    23A     -0.836072    24A     -0.807865  
      25A     -0.782693    26A     -0.733782    27A     -0.720359  
      28A     -0.690216    29A     -0.674132    30A     -0.651713  
      31A     -0.616028    32A     -0.614792    33A     -0.606510  
      34A     -0.581446    35A     -0.563166    36A     -0.535720  
      37A     -0.508072    38A     -0.482802    39A     -0.482331  
      40A     -0.458427    41A     -0.421299    42A     -0.394528  
      43A     -0.342571    44A     -0.324622    45A     -0.229072  

    Virtual:                                                              

      46A     -0.007986    47A      0.011196    48A      0.018452  
      49A      0.023553    50A      0.036369    51A      0.040333  
      52A      0.041226    53A      0.052355    54A      0.055602  
      55A      0.058247    56A      0.062336    57A      0.069018  
      58A      0.070577    59A      0.071264    60A      0.082171  
      61A      0.092701    62A      0.093722    63A      0.104770  
      64A      0.104929    65A      0.105386    66A      0.117813  
      67A      0.120109    68A      0.120860    69A      0.126838  
      70A      0.128632    71A      0.129326    72A      0.131651  
      73A      0.135786    74A      0.145516    75A      0.150618  
      76A      0.151691    77A      0.151833    78A      0.161369  
      79A      0.164308    80A      0.166166    81A      0.167735  
      82A      0.172294    83A      0.181192    84A      0.182037  
      85A      0.185213    86A      0.190549    87A      0.196390  
      88A      0.196474    89A      0.207017    90A      0.208810  
      91A      0.211917    92A      0.215003    93A      0.221953  
      94A      0.227173    95A      0.227651    96A      0.232478  
      97A      0.234956    98A      0.248711    99A      0.252439  
     100A      0.253506   101A      0.255027   102A      0.259754  
     103A      0.265329   104A      0.269381   105A      0.270907  
     106A      0.282167   107A      0.284216   108A      0.289598  
     109A      0.292596   110A      0.293962   111A      0.297602  
     112A      0.303386   113A      0.305176   114A      0.312365  
     115A      0.321584   116A      0.322069   117A      0.327762  
     118A      0.328459   119A      0.330834   120A      0.332802  
     121A      0.340708   122A      0.346446   123A      0.347956  
     124A      0.348041   125A      0.360728   126A      0.361897  
     127A      0.363817   128A      0.363926   129A      0.370101  
     130A      0.373656   131A      0.380367   132A      0.386940  
     133A      0.388559   134A      0.396601   135A      0.402584  
     136A      0.406096   137A      0.415594   138A      0.415806  
     139A      0.422188   140A      0.423728   141A      0.427287  
     142A      0.435208   143A      0.440435   144A      0.441118  
     145A      0.446922   146A      0.455222   147A      0.457525  
     148A      0.460643   149A      0.463829   150A      0.464686  
     151A      0.470615   152A      0.472746   153A      0.475376  
     154A      0.480446   155A      0.484704   156A      0.488592  
     157A      0.491861   158A      0.493914   159A      0.494341  
     160A      0.498432   161A      0.499250   162A      0.503806  
     163A      0.507969   164A      0.509839   165A      0.516933  
     166A      0.523117   167A      0.527389   168A      0.529078  
     169A      0.532837   170A      0.534063   171A      0.543693  
     172A      0.544187   173A      0.550586   174A      0.555167  
     175A      0.564431   176A      0.567132   177A      0.569513  
     178A      0.577071   179A      0.579130   180A      0.585286  
     181A      0.591860   182A      0.597417   183A      0.605296  
     184A      0.606458   185A      0.608232   186A      0.624179  
     187A      0.625682   188A      0.643680   189A      0.648800  
     190A      0.651089   191A      0.657090   192A      0.661870  
     193A      0.670402   194A      0.670872   195A      0.674291  
     196A      0.686303   197A      0.690942   198A      0.692616  
     199A      0.696228   200A      0.701677   201A      0.705113  
     202A      0.716893   203A      0.718737   204A      0.721174  
     205A      0.725644   206A      0.733050   207A      0.737634  
     208A      0.743021   209A      0.748366   210A      0.753036  
     211A      0.762190   212A      0.762325   213A      0.771529  
     214A      0.776775   215A      0.777025   216A      0.788730  
     217A      0.793582   218A      0.795204   219A      0.810378  
     220A      0.814422   221A      0.815371   222A      0.827552  
     223A      0.836706   224A      0.841389   225A      0.851626  
     226A      0.852306   227A      0.856247   228A      0.863996  
     229A      0.873568   230A      0.878047   231A      0.878389  
     232A      0.884612   233A      0.889703   234A      0.892815  
     235A      0.903453   236A      0.908040   237A      0.908172  
     238A      0.914515   239A      0.915019   240A      0.921736  
     241A      0.922172   242A      0.927101   243A      0.931942  
     244A      0.932276   245A      0.937749   246A      0.938745  
     247A      0.953546   248A      0.958443   249A      0.960756  
     250A      0.963901   251A      0.970350   252A      0.974189  
     253A      0.987410   254A      0.987729   255A      0.995852  
     256A      1.000104   257A      1.005661   258A      1.009082  
     259A      1.013714   260A      1.020125   261A      1.024180  
     262A      1.027438   263A      1.028212   264A      1.032334  
     265A      1.038367   266A      1.039688   267A      1.045066  
     268A      1.046054   269A      1.053723   270A      1.055195  
     271A      1.058007   272A      1.062655   273A      1.075448  
     274A      1.077854   275A      1.085184   276A      1.086068  
     277A      1.093128   278A      1.098051   279A      1.099809  
     280A      1.102685   281A      1.110114   282A      1.115361  
     283A      1.118376   284A      1.123214   285A      1.126031  
     286A      1.135048   287A      1.137198   288A      1.143374  
     289A      1.153463   290A      1.154590   291A      1.156008  
     292A      1.166311   293A      1.167082   294A      1.180916  
     295A      1.183340   296A      1.188379   297A      1.190794  
     298A      1.191866   299A      1.193382   300A      1.201177  
     301A      1.209767   302A      1.216100   303A      1.218647  
     304A      1.221542   305A      1.225687   306A      1.237337  
     307A      1.243596   308A      1.243984   309A      1.248763  
     310A      1.253337   311A      1.264088   312A      1.265180  
     313A      1.270790   314A      1.277875   315A      1.278244  
[...]
	    1 R(1,3)          =      1.358982    -0.005359    -0.001182     1.357799
	    2 R(1,9)          =      1.426383    -0.011378    -0.000940     1.425443
	    3 R(1,14)         =      1.085888    -0.018832    -0.002441     1.083447
	    4 R(2,4)          =      1.358481     0.001466    -0.000889     1.357592
	    5 R(2,9)          =      1.422065     0.006263     0.000569     1.422634
	    6 R(2,15)         =      1.081897    -0.000805    -0.001126     1.080770
	    7 R(3,11)         =      1.448838     0.000036     0.000248     1.449086
	    8 R(3,16)         =      1.080528    -0.004455    -0.000368     1.080159
	    9 R(4,11)         =      1.451516    -0.005789    -0.000523     1.450992
	   10 R(4,17)         =      1.081598    -0.008412    -0.001599     1.080000
	   11 R(5,7)          =      1.358383    -0.006610    -0.001198     1.357185
	   12 R(5,10)         =      1.425048     0.005042     0.001079     1.426128
	   13 R(5,18)         =      1.081071    -0.014892    -0.002178     1.078893
	   14 R(6,8)          =      1.359170    -0.006799    -0.001311     1.357859
	   15 R(6,10)         =      1.426248    -0.002462    -0.000261     1.425987
	   16 R(6,19)         =      1.077830    -0.001115    -0.000974     1.076855
	   17 R(7,12)         =      1.361146     0.001969    -0.000168     1.360978
	   18 R(7,20)         =      1.077931    -0.003962    -0.000229     1.077702
	   19 R(8,12)         =      1.359831    -0.003877     0.000113     1.359944
	   20 R(8,21)         =      1.079682    -0.012814    -0.002051     1.077631
	   21 R(9,10)         =      1.398694     0.001575    -0.001717     1.396977
	   22 R(11,13)        =      1.241515    -0.009541    -0.000635     1.240880
	   23 R(12,22)        =      1.006311    -0.010789    -0.001144     1.005168
	   24 B(1,3,11)       =    121.960676     0.000031     0.067741   122.028416
	   25 B(1,3,16)       =    120.851889     0.000000     0.162005   121.013894
	   26 B(1,9,2)        =    116.967030    -0.000009     0.032622   116.999651
	   27 B(1,9,10)       =    120.093723     0.000001    -0.126316   119.967407
	   28 B(2,4,11)       =    122.200123    -0.000024    -0.011708   122.188415
	   29 B(2,4,17)       =    120.821347     0.000042     0.278877   121.100224
	   30 B(2,9,10)       =    121.144122     0.000014     0.203381   121.347503
	   31 B(3,1,9)        =    121.905965     0.000003    -0.037682   121.868283
	   32 B(3,1,14)       =    119.178821     0.000025     0.157016   119.335837
	   33 B(3,11,4)       =    115.009780    -0.000007    -0.013026   114.996754
	   34 B(3,11,13)      =    122.616416     0.000015     0.012720   122.629136
	   35 B(4,2,9)        =    121.649212     0.000006     0.024618   121.673829
	   36 B(4,2,15)       =    119.213317    -0.000009    -0.115979   119.097338
	   37 B(4,11,13)      =    122.367397    -0.000008     0.003819   122.371216
	   38 B(5,7,12)       =    120.343922     0.000012     0.094890   120.438811
	   39 B(5,7,20)       =    123.053195     0.000002    -0.046648   123.006547
	   40 B(5,10,6)       =    114.587131     0.000003    -0.133692   114.453438
	   41 B(5,10,9)       =    121.585122     0.000110     0.216861   121.801983
	   42 B(6,8,12)       =    120.489724     0.000050     0.146981   120.636706
	   43 B(6,8,21)       =    122.961818    -0.000016    -0.002804   122.959014
	   44 B(6,10,9)       =    123.011775    -0.000114    -0.285121   122.726655
	   45 B(7,5,10)       =    121.998675    -0.000013     0.029899   122.028574
	   46 B(7,5,18)       =    118.203011    -0.000006    -0.185086   118.017925
	   47 B(7,12,8)       =    120.643143    -0.000031    -0.195125   120.448018
	   48 B(7,12,22)      =    119.672740     0.000019     0.128385   119.801125
	   49 B(8,6,10)       =    121.808065    -0.000022     0.008763   121.816828
	   50 B(8,6,19)       =    117.943623     0.000023     0.067614   118.011237
	   51 B(8,12,22)      =    119.669193     0.000011     0.054099   119.723291
	   52 B(9,1,14)       =    118.819921    -0.000027    -0.061746   118.758175
	   53 B(9,2,15)       =    118.911935     0.000004     0.128443   119.040378
	   54 B(10,5,18)      =    119.790062     0.000018     0.145568   119.935630
	   55 B(10,6,19)      =    120.151608    -0.000001    -0.066404   120.085204
	   56 B(11,3,16)      =    117.171977    -0.000032    -0.229767   116.942211
	   57 B(11,4,17)      =    116.975944    -0.000018    -0.265206   116.710738
	   58 B(12,7,20)      =    116.577210    -0.000015    -0.085821   116.491389
	   59 B(12,8,21)      =    116.548269    -0.000035    -0.148175   116.400094
	   60 D(1,3,11,4)     =     -3.094109     0.000003     0.534350    -2.559760
	   61 D(1,3,11,13)    =    177.807192    -0.000001     0.238756   178.045949
	   62 D(1,9,2,4)      =     -6.415400     0.000003     0.594072    -5.821329
	   63 D(1,9,2,15)     =    179.085594     0.000001     0.128339   179.213932
	   64 D(1,9,10,5)     =     44.369525     0.000000     0.129908    44.499433
	   65 D(1,9,10,6)     =   -146.538926    -0.000002    -1.146253  -147.685179
	   66 D(2,4,11,3)     =      0.047468    -0.000001    -0.038906     0.008562
	   67 D(2,4,11,13)    =    179.148658     0.000003     0.255931   179.404588
	   68 D(2,9,1,3)      =      3.362782    -0.000001    -0.096459     3.266323
	   69 D(2,9,1,14)     =   -173.057165    -0.000006    -1.427340  -174.484505
	   70 D(2,9,10,5)     =   -151.350526     0.000006     0.612342  -150.738184
	   71 D(2,9,10,6)     =     17.741023     0.000004    -0.663819    17.077204
	   72 D(3,1,9,10)     =    168.282247     0.000006     0.393261   168.675509
	   73 D(3,11,4,17)    =   -179.371660    -0.000005    -0.904065  -180.275726
	   74 D(4,2,9,10)     =   -171.166367    -0.000003     0.150446  -171.015921
	   75 D(4,11,3,16)    =    175.486476     0.000002     0.535512   176.021988
	   76 D(5,7,12,8)     =     -1.108495     0.000000    -0.426869    -1.535364
	   77 D(5,7,12,22)    =   -179.698579     0.000001     0.078096  -179.620483
	   78 D(5,10,6,8)     =     -4.088423    -0.000000    -0.653807    -4.742230
	   79 D(5,10,6,19)    =    179.561301    -0.000002    -0.849179   178.712122
	   80 D(6,8,12,7)     =      0.714979     0.000001     0.332981     1.047960
	   81 D(6,8,12,22)    =    179.305112    -0.000000    -0.170545   179.134567
	   82 D(6,10,5,7)     =      3.701172     0.000001     0.561595     4.262767
	   83 D(6,10,5,18)    =   -175.234781     0.000005     1.066164  -174.168617
	   84 D(7,5,10,9)     =    173.650902    -0.000004    -0.636068   173.014834
	   85 D(7,12,8,21)    =   -179.438260    -0.000003    -0.236520  -179.674780
	   86 D(8,6,10,9)     =   -173.877002    -0.000001     0.499419  -173.377584
	   87 D(8,12,7,20)    =    177.104138    -0.000004    -1.445908   175.658229
	   88 D(9,1,3,11)     =      1.354407    -0.000002    -0.473802     0.880605
	   89 D(9,1,3,16)     =   -177.174675    -0.000002    -0.469494  -177.644169
	   90 D(9,2,4,11)     =      4.774266    -0.000003    -0.528937     4.245329
	   91 D(9,2,4,17)     =   -175.828541     0.000001     0.370449  -175.458092
	   92 D(9,10,5,18)    =     -5.285051    -0.000001    -0.131500    -5.416550
	   93 D(9,10,6,19)    =      9.772721    -0.000002     0.304047    10.076768
	   94 D(10,5,7,12)    =     -1.258361    -0.000001    -0.046557    -1.304919
	   95 D(10,5,7,20)    =   -179.351175     0.000004     1.041549  -178.309626
	   96 D(10,6,8,12)    =      2.045680    -0.000001     0.237905     2.283585
	   97 D(10,6,8,21)    =   -177.790941     0.000003     0.846067  -176.944874
	   98 D(10,9,1,14)    =     -8.137699     0.000000    -0.937620    -9.075319
	   99 D(10,9,2,15)    =     14.334627    -0.000005    -0.315287    14.019340
	  100 D(11,3,1,14)    =    177.761885     0.000003     0.856912   178.618797
	  101 D(11,4,2,15)    =    179.257118    -0.000001    -0.049841   179.207277
	  102 D(12,7,5,18)    =    177.693805    -0.000004    -0.538522   177.155283
	  103 D(12,8,6,19)    =    178.473355     0.000001     0.424723   178.898079
	  104 D(13,11,3,16)   =     -3.612223    -0.000001     0.239919    -3.372304
	  105 D(13,11,4,17)   =     -0.270470    -0.000001    -0.609229    -0.879699
	  106 D(14,1,3,16)    =     -0.767196     0.000003     0.861219     0.094023
	  107 D(15,2,4,17)    =     -1.345689     0.000003     0.849546    -0.496143
	  108 D(18,5,7,20)    =     -0.399009     0.000001     0.549584     0.150576
	  109 D(19,6,8,21)    =     -1.363265     0.000004     1.032884    -0.330381
	  110 D(20,7,12,22)   =     -1.485946    -0.000004    -0.940944    -2.426890
	  111 D(21,8,12,22)   =     -0.848126    -0.000003    -0.740047    -1.588174
	 ---------------------------------------------------------------------------
	Successfully symmetrized geometry.
	 Forces used to impose fixed constraints are not included.
	  Forces zeroed: 64 

  ==> Convergence Check <==

  Measures of convergence in internal coordinates in au.
  Criteria marked as inactive (o), active & met (*), and active & unmet ( ).
  ---------------------------------------------------------------------------------------------
   Step     Total Energy     Delta E     MAX Force     RMS Force      MAX Disp      RMS Disp   
  ---------------------------------------------------------------------------------------------
    Convergence Criteria    1.00e-06 *    3.00e-04 *             o    1.20e-03 *             o
  ---------------------------------------------------------------------------------------------
     38    -553.67402841   -1.79e-04      2.29e-03      5.13e-04 o    2.52e-02      7.90e-03 o  ~
  ---------------------------------------------------------------------------------------------

	Writing optimization data to binary file.
	Structure for next step:
	Cartesian Geometry (in Angstrom)
	    C    -1.2421410258   0.9160026370  -0.5229869958
	    C    -0.3505503433   0.0218493480   1.5512813820
	    C    -2.3306523188   1.3891016528   0.1365124184
	    C    -1.4073291422   0.5328500570   2.2333022414
	    C     1.4000398926   0.1421365987  -1.7319467372
	    C     1.4402325630  -1.6107239328  -0.0958512636
	    C     2.4469038127  -0.4459956604  -2.3645036068
	    C     2.4806617425  -2.1777220384  -0.7590263029
	    C    -0.1848869604   0.2425595333   0.1556701031
	    C     0.7950318369  -0.4330453701  -0.5756720066
	    C    -2.4773598966   1.2561065284   1.5720055149
	    N     2.9747790347  -1.6073914671  -1.8904052779
	    O    -3.4501972427   1.7152275893   2.1905352311
	    H    -1.1878391110   1.0190750604  -1.6001518987
	    H     0.4252290248  -0.4972201753   2.0960722033
	    H    -3.1413641900   1.8639736130  -0.3963922489
	    H    -1.4864922136   0.4213671095   3.3046116896
	    H     1.0424126451   1.0857181137  -2.1137403057
	    H     1.0709558479  -2.1076957987   0.7852110296
	    H     2.9328392587  -0.0122914323  -3.2231122121
	    H     2.9505716894  -3.0933144715  -0.4393959274
	    H     3.7537683927  -2.0317150148  -2.3631497970
			--------------------------
			 OPTKING Finished Execution 
			--------------------------

    Structure for next step:
    Molecular point group: c1
    Full point group: C1

    Geometry (in Angstrom), charge = 0, multiplicity = 1:

    C           -1.240502451926     0.918658906981    -0.521644838195
    C           -0.348911769371     0.024505618019     1.552623539578
    C           -2.329013744926     1.391757922814     0.137854575924
    C           -1.405690568341     0.535506326946     2.234644398972
    C            1.401678466453     0.144792868689    -1.730604579668
    C            1.441871136915    -1.608067662865    -0.094509106013
    C            2.448542386596    -0.443339390437    -2.363161449216
    C            2.482300316403    -2.175065768450    -0.757684145320
    C           -0.183248386531     0.245215803226     0.157012260679
    C            0.796670410764    -0.430389100121    -0.574329849069
    C           -2.475721322694     1.258762798417     1.573347672452
    N            2.976417608574    -1.604735197112    -1.889063120360
    O           -3.448558668838     1.717883859302     2.191877388650
    H           -1.186200537130     1.021731330323    -1.598809741135
    H            0.426867598737    -0.494563905334     2.097414360910
    H           -3.139725616122     1.866629882932    -0.395050091321
    H           -1.484853639748     0.424023379468     3.305953847162
    H            1.044051218992     1.088374383692    -2.112398148081
    H            1.072594421807    -2.105039528754     0.786553187178
    H            2.934477832569    -0.009635162330    -3.221770054568
    H            2.952210263263    -3.090658201553    -0.438053769819
    H            3.755406966624    -2.029058744825    -2.361807639414

gradient() will perform analytic gradient computation.

*** tstart() called on gpu-1-8.local
*** at Mon Nov 13 16:43:08 2017

    SCF Algorithm Type (re)set to DF.

*** tstart() called on gpu-1-8.local
*** at Mon Nov 13 16:43:08 2017

   => Loading Basis Set <=

    Name: AUG-CC-PVTZ
    Role: ORBITAL
    Keyword: BASIS
    atoms 1-11  entry C          line   221 file /cbio/jclab/home/chayas/anaconda/envs/py35/share/psi4/basis/aug-cc-pvtz.gbs 
    atoms 12    entry N          line   267 file /cbio/jclab/home/chayas/anaconda/envs/py35/share/psi4/basis/aug-cc-pvtz.gbs 
    atoms 13    entry O          line   313 file /cbio/jclab/home/chayas/anaconda/envs/py35/share/psi4/basis/aug-cc-pvtz.gbs 
    atoms 14-22 entry H          line    34 file /cbio/jclab/home/chayas/anaconda/envs/py35/share/psi4/basis/aug-cc-pvtz.gbs 


         ---------------------------------------------------------
                                   SCF
            by Justin Turney, Rob Parrish, and Andy Simmonett
                              RHF Reference
                        8 Threads,   4768 MiB Core
         ---------------------------------------------------------

  ==> Geometry <==

    Molecular point group: c1
    Full point group: C1

    Geometry (in Angstrom), charge = 0, multiplicity = 1:

       Center              X                  Y                   Z               Mass       
    ------------   -----------------  -----------------  -----------------  -----------------
           C         -1.240502451926     0.918658906981    -0.521644838195    12.000000000000
           C         -0.348911769371     0.024505618019     1.552623539578    12.000000000000
           C         -2.329013744926     1.391757922814     0.137854575924    12.000000000000
           C         -1.405690568341     0.535506326946     2.234644398972    12.000000000000
           C          1.401678466453     0.144792868689    -1.730604579668    12.000000000000
           C          1.441871136915    -1.608067662865    -0.094509106013    12.000000000000
           C          2.448542386596    -0.443339390437    -2.363161449216    12.000000000000
           C          2.482300316403    -2.175065768450    -0.757684145320    12.000000000000
           C         -0.183248386531     0.245215803226     0.157012260679    12.000000000000
           C          0.796670410764    -0.430389100121    -0.574329849069    12.000000000000
           C         -2.475721322694     1.258762798417     1.573347672452    12.000000000000
           N          2.976417608574    -1.604735197112    -1.889063120360    14.003074004780
           O         -3.448558668838     1.717883859302     2.191877388650    15.994914619560
           H         -1.186200537130     1.021731330323    -1.598809741135     1.007825032070
           H          0.426867598737    -0.494563905334     2.097414360910     1.007825032070
           H         -3.139725616122     1.866629882932    -0.395050091321     1.007825032070
           H         -1.484853639748     0.424023379468     3.305953847162     1.007825032070
           H          1.044051218992     1.088374383692    -2.112398148081     1.007825032070
           H          1.072594421807    -2.105039528754     0.786553187178     1.007825032070
           H          2.934477832569    -0.009635162330    -3.221770054568     1.007825032070
           H          2.952210263263    -3.090658201553    -0.438053769819     1.007825032070
           H          3.755406966624    -2.029058744825    -2.361807639414     1.007825032070

  Running in c1 symmetry.

  Rotational constants: A =      0.09557  B =      0.01356  C =      0.01211 [cm^-1]
  Rotational constants: A =   2864.97485  B =    406.42312  C =    362.92060 [MHz]
  Nuclear repulsion =  698.739435226900468

  Charge       = 0
  Multiplicity = 1
  Electrons    = 90
  Nalpha       = 45
  Nbeta        = 45

  ==> Algorithm <==

  SCF Algorithm Type is DF.
  DIIS enabled.
  MOM disabled.
  Fractional occupation disabled.
  Guess Type is READ.
  Energy threshold   = 1.00e-10
  Density threshold  = 1.00e-10
  Integral threshold = 0.00e+00

  ==> Primary Basis <==

  Basis Set: AUG-CC-PVTZ
    Blend: AUG-CC-PVTZ
    Number of shells: 263
    Number of basis function: 805
    Number of Cartesian functions: 940
    Spherical Harmonics?: true
    Max angular momentum: 3

   => Loading Basis Set <=

    Name: (AUG-CC-PVTZ AUX)
    Role: JKFIT
    Keyword: DF_BASIS_SCF
    atoms 1-11  entry C          line   161 file /cbio/jclab/home/chayas/anaconda/envs/py35/share/psi4/basis/aug-cc-pvtz-jkfit.gbs 
    atoms 12    entry N          line   223 file /cbio/jclab/home/chayas/anaconda/envs/py35/share/psi4/basis/aug-cc-pvtz-jkfit.gbs 
    atoms 13    entry O          line   285 file /cbio/jclab/home/chayas/anaconda/envs/py35/share/psi4/basis/aug-cc-pvtz-jkfit.gbs 
    atoms 14-22 entry H          line    69 file /cbio/jclab/home/chayas/anaconda/envs/py35/share/psi4/basis/aug-cc-pvtz-jkfit.gbs 

  Reading orbitals from file 180, no projection.

  ==> Pre-Iterations <==

   -------------------------------------------------------
    Irrep   Nso     Nmo     Nalpha   Nbeta   Ndocc  Nsocc
   -------------------------------------------------------
     A        805     805       0       0       0       0
   -------------------------------------------------------
    Total     805     805      45      45      45       0
   -------------------------------------------------------

  ==> Integral Setup <==

  ==> DFJK: Density-Fitted J/K Matrices <==

    J tasked:                  Yes
    K tasked:                  Yes
    wK tasked:                  No
    OpenMP threads:              8
    Integrals threads:           8
    Memory (MB):              3576
    Algorithm:                Disk
    Integral Cache:           NONE
    Schwarz Cutoff:          1E-12
    Fitting Condition:       1E-12

   => Auxiliary Basis Set <=

  Basis Set: (AUG-CC-PVTZ AUX)
    Blend: AUG-CC-PVTZ-JKFIT
    Number of shells: 516
    Number of basis function: 1766
    Number of Cartesian functions: 2198
    Spherical Harmonics?: true
    Max angular momentum: 4

  Minimum eigenvalue in the overlap matrix is 7.0746941469E-07.
  Using Symmetric Orthogonalization.

  SCF Guess: Orbitals guess was supplied from a previous computation.

  ==> Iterations <==

                           Total Energy        Delta E     RMS |[F,P]|

   @DF-RHF iter   0:  -551.24221089147500   -5.51242e+02   1.59648e-04 
   @DF-RHF iter   1:  -551.23798726552411    4.22363e-03   1.84867e-05 
   @DF-RHF iter   2:  -551.23803673038958   -4.94649e-05   8.48946e-06 DIIS
   @DF-RHF iter   3:  -551.23804483891092   -8.10852e-06   4.49823e-06 DIIS
   @DF-RHF iter   4:  -551.23804794375701   -3.10485e-06   1.40067e-06 DIIS
   @DF-RHF iter   5:  -551.23804835272153   -4.08965e-07   5.83233e-07 DIIS
   @DF-RHF iter   6:  -551.23804843764606   -8.49245e-08   2.22138e-07 DIIS
   @DF-RHF iter   7:  -551.23804845288100   -1.52349e-08   1.08184e-07 DIIS
   @DF-RHF iter   8:  -551.23804845682298   -3.94198e-09   5.32520e-08 DIIS
   @DF-RHF iter   9:  -551.23804845807888   -1.25590e-09   2.34067e-08 DIIS
   @DF-RHF iter  10:  -551.23804845826226   -1.83377e-10   1.01828e-08 DIIS
