
    -----------------------------------------------------------------------
          Psi4: An Open-Source Ab Initio Electronic Structure Package
                               Psi4 1.1 release

                         Git: Rev {HEAD} add49b9 


    R. M. Parrish, L. A. Burns, D. G. A. Smith, A. C. Simmonett,
    A. E. DePrince III, E. G. Hohenstein, U. Bozkaya, A. Yu. Sokolov,
    R. Di Remigio, R. M. Richard, J. F. Gonthier, A. M. James,
    H. R. McAlexander, A. Kumar, M. Saitow, X. Wang, B. P. Pritchard,
    P. Verma, H. F. Schaefer III, K. Patkowski, R. A. King, E. F. Valeev,
    F. A. Evangelista, J. M. Turney, T. D. Crawford, and C. D. Sherrill,
    J. Chem. Theory Comput. in press (2017).
    (doi: 10.1021/acs.jctc.7b00174)

    -----------------------------------------------------------------------


    Psi4 started on: Tuesday, 14 November 2017 03:19AM

    Process ID:  16736
    PSIDATADIR: /cbio/jclab/home/chayas/anaconda/envs/py35/share/psi4
    Memory:     500.0 MiB
    Threads:    8
    
  ==> Input File <==

--------------------------------------------------------------------------

memory 5 Gb

molecule phepyrFOH_anion {
  symmetry C1
  -1 1 
  C      1.885   -1.036   -0.112
  C      0.807   -0.463   0.561
  C      5.074   -2.819   0.616
  C      4.078   -2.203   -1.485
  C      1.800   -1.079   2.676
  C      6.120   -3.374   -0.104
  C      5.169   -2.785   -2.111
  C      2.921   -1.631   0.608
  C      4.038   -2.224   -0.095
  C      0.764   -0.484   1.955
  C      2.878   -1.652   2.002
  N      6.194   -3.372   -1.454
  O      -0.227   0.043   2.574
  F      3.866   -2.220   2.709
  H      1.904   -1.013   -1.200
  H      0.011   -0.007   -0.025
  H      5.078   -2.856   1.701
  H      3.288   -1.748   -2.073
  H      1.791   -1.109   3.764
  H      6.952   -3.851   0.404
  H      5.248   -2.794   -3.192
  units Angstrom
}

dih_string = "1 8 9 3 180.001"
set optking { opt_coordinates = cartesian
              fixed_dihedral = $dih_string
              dynamic_level = 1
              geom_maxiter = 250
              print_trajectory_xyz_file = True }

optimize('MP2/aug-cc-PVTZ')
--------------------------------------------------------------------------

  Memory set to   4.657 GiB by Python driver.
gradient() will perform analytic gradient computation.

*** tstart() called on gpu-2-9.local
*** at Tue Nov 14 03:19:49 2017

    SCF Algorithm Type (re)set to DF.

*** tstart() called on gpu-2-9.local
*** at Tue Nov 14 03:19:49 2017

   => Loading Basis Set <=

    Name: AUG-CC-PVTZ
    Role: ORBITAL
    Keyword: BASIS
    atoms 1-11  entry C          line   221 file /cbio/jclab/home/chayas/anaconda/envs/py35/share/psi4/basis/aug-cc-pvtz.gbs 
    atoms 12    entry N          line   267 file /cbio/jclab/home/chayas/anaconda/envs/py35/share/psi4/basis/aug-cc-pvtz.gbs 
    atoms 13    entry O          line   313 file /cbio/jclab/home/chayas/anaconda/envs/py35/share/psi4/basis/aug-cc-pvtz.gbs 
    atoms 14    entry F          line   359 file /cbio/jclab/home/chayas/anaconda/envs/py35/share/psi4/basis/aug-cc-pvtz.gbs 
    atoms 15-21 entry H          line    34 file /cbio/jclab/home/chayas/anaconda/envs/py35/share/psi4/basis/aug-cc-pvtz.gbs 


         ---------------------------------------------------------
                                   SCF
            by Justin Turney, Rob Parrish, and Andy Simmonett
                              RHF Reference
                        8 Threads,   4768 MiB Core
         ---------------------------------------------------------

  ==> Geometry <==

    Molecular point group: c1
    Full point group: C1

    Geometry (in Angstrom), charge = -1, multiplicity = 1:

       Center              X                  Y                   Z               Mass       
    ------------   -----------------  -----------------  -----------------  -----------------
           C         -1.345088705454     0.767709745233    -0.780877824980    12.000000000000
           C         -2.423088705454     1.340709745233    -0.107877824980    12.000000000000
           C          1.843911294546    -1.015290254767    -0.052877824980    12.000000000000
           C          0.847911294546    -0.399290254767    -2.153877824980    12.000000000000
           C         -1.430088705454     0.724709745233     2.007122175020    12.000000000000
           C          2.889911294546    -1.570290254767    -0.772877824980    12.000000000000
           C          1.938911294546    -0.981290254767    -2.779877824980    12.000000000000
           C         -0.309088705454     0.172709745233    -0.060877824980    12.000000000000
           C          0.807911294546    -0.420290254767    -0.763877824980    12.000000000000
           C         -2.466088705454     1.319709745233     1.286122175020    12.000000000000
           C         -0.352088705454     0.151709745233     1.333122175020    12.000000000000
           N          2.963911294546    -1.568290254767    -2.122877824980    14.003074004780
           O         -3.457088705454     1.846709745233     1.905122175020    15.994914619560
           F          0.635911294546    -0.416290254767     2.040122175020    18.998403224000
           H         -1.326088705454     0.790709745233    -1.868877824980     1.007825032070
           H         -3.219088705454     1.796709745233    -0.693877824980     1.007825032070
           H          1.847911294546    -1.052290254767     1.032122175020     1.007825032070
           H          0.057911294546     0.055709745233    -2.741877824980     1.007825032070
           H         -1.439088705454     0.694709745233     3.095122175020     1.007825032070
           H          3.721911294546    -2.047290254767    -0.264877824980     1.007825032070
           H          2.017911294546    -0.990290254767    -3.860877824980     1.007825032070

  Running in c1 symmetry.

  Rotational constants: A =      0.06333  B =      0.01404  C =      0.01149 [cm^-1]
  Rotational constants: A =   1898.60410  B =    420.91258  C =    344.53142 [MHz]
  Nuclear repulsion =  805.720952470990483

  Charge       = -1
  Multiplicity = 1
  Electrons    = 98
  Nalpha       = 49
  Nbeta        = 49

  ==> Algorithm <==

  SCF Algorithm Type is DF.
  DIIS enabled.
  MOM disabled.
  Fractional occupation disabled.
  Guess Type is SAD.
  Energy threshold   = 1.00e-10
  Density threshold  = 1.00e-10
  Integral threshold = 0.00e+00

  ==> Primary Basis <==

  Basis Set: AUG-CC-PVTZ
    Blend: AUG-CC-PVTZ
    Number of shells: 259
    Number of basis function: 805
    Number of Cartesian functions: 945
    Spherical Harmonics?: true
    Max angular momentum: 3

   => Loading Basis Set <=

    Name: (AUG-CC-PVTZ AUX)
    Role: JKFIT
    Keyword: DF_BASIS_SCF
    atoms 1-11  entry C          line   161 file /cbio/jclab/home/chayas/anaconda/envs/py35/share/psi4/basis/aug-cc-pvtz-jkfit.gbs 
    atoms 12    entry N          line   223 file /cbio/jclab/home/chayas/anaconda/envs/py35/share/psi4/basis/aug-cc-pvtz-jkfit.gbs 
    atoms 13    entry O          line   285 file /cbio/jclab/home/chayas/anaconda/envs/py35/share/psi4/basis/aug-cc-pvtz-jkfit.gbs 
    atoms 14    entry F          line   347 file /cbio/jclab/home/chayas/anaconda/envs/py35/share/psi4/basis/aug-cc-pvtz-jkfit.gbs 
    atoms 15-21 entry H          line    69 file /cbio/jclab/home/chayas/anaconda/envs/py35/share/psi4/basis/aug-cc-pvtz-jkfit.gbs 

  ==> Pre-Iterations <==

   -------------------------------------------------------
    Irrep   Nso     Nmo     Nalpha   Nbeta   Ndocc  Nsocc
   -------------------------------------------------------
     A        805     805       0       0       0       0
   -------------------------------------------------------
    Total     805     805      49      49      49       0
   -------------------------------------------------------

  ==> Integral Setup <==

  ==> DFJK: Density-Fitted J/K Matrices <==

    J tasked:                  Yes
    K tasked:                  Yes
    wK tasked:                  No
    OpenMP threads:              8
    Integrals threads:           8
    Memory (MB):              3576
    Algorithm:                Disk
    Integral Cache:           NONE
    Schwarz Cutoff:          1E-12
    Fitting Condition:       1E-12

   => Auxiliary Basis Set <=

  Basis Set: (AUG-CC-PVTZ AUX)
    Blend: AUG-CC-PVTZ-JKFIT
    Number of shells: 518
    Number of basis function: 1778
    Number of Cartesian functions: 2219
    Spherical Harmonics?: true
    Max angular momentum: 4

  Minimum eigenvalue in the overlap matrix is 3.3894316680E-07.
  Using Symmetric Orthogonalization.

  SCF Guess: Superposition of Atomic Densities via on-the-fly atomic UHF.

  ==> Iterations <==

                           Total Energy        Delta E     RMS |[F,P]|

   @DF-RHF iter   0:  -659.23669436220132   -6.59237e+02   1.88383e-02 
   @DF-RHF iter   1:  -649.19568764490793    1.00410e+01   2.09328e-03 
   @DF-RHF iter   2:  -649.49827783893272   -3.02590e-01   1.21448e-03 DIIS
   @DF-RHF iter   3:  -649.57734231617678   -7.90645e-02   5.22939e-04 DIIS
   @DF-RHF iter   4:  -649.59538104825197   -1.80387e-02   8.38210e-05 DIIS
   @DF-RHF iter   5:  -649.59666568705279   -1.28464e-03   3.34907e-05 DIIS
   @DF-RHF iter   6:  -649.59687373991255   -2.08053e-04   1.37597e-05 DIIS
   @DF-RHF iter   7:  -649.59693021195892   -5.64720e-05   7.36090e-06 DIIS
   @DF-RHF iter   8:  -649.59694420704807   -1.39951e-05   3.85248e-06 DIIS
   @DF-RHF iter   9:  -649.59694790616356   -3.69912e-06   1.90303e-06 DIIS
   @DF-RHF iter  10:  -649.59694865551592   -7.49352e-07   8.27532e-07 DIIS
   @DF-RHF iter  11:  -649.59694882375015   -1.68234e-07   3.37400e-07 DIIS
   @DF-RHF iter  12:  -649.59694884474493   -2.09948e-08   1.53703e-07 DIIS
   @DF-RHF iter  13:  -649.59694884874716   -4.00223e-09   4.02588e-08 DIIS
   @DF-RHF iter  14:  -649.59694884948931   -7.42148e-10   2.00389e-08 DIIS
   @DF-RHF iter  15:  -649.59694884954865   -5.93445e-11   6.73125e-09 DIIS
   @DF-RHF iter  16:  -649.59694884956127   -1.26192e-11   3.45400e-09 DIIS
   @DF-RHF iter  17:  -649.59694884957150   -1.02318e-11   1.56133e-09 DIIS
   @DF-RHF iter  18:  -649.59694884955468    1.68257e-11   7.36796e-10 DIIS
   @DF-RHF iter  19:  -649.59694884956002   -5.34328e-12   2.53114e-10 DIIS
   @DF-RHF iter  20:  -649.59694884955672    3.29692e-12   1.18251e-10 DIIS
   @DF-RHF iter  21:  -649.59694884957344   -1.67120e-11   4.63285e-11 DIIS

  ==> Post-Iterations <==

    Orbital Energies (a.u.)
    -----------------------

    Doubly Occupied:                                                      

       1A    -26.198465     2A    -20.311175     3A    -15.442815  
       4A    -11.199313     5A    -11.163308     6A    -11.159717  
       7A    -11.144046     8A    -11.131870     9A    -11.115793  
      10A    -11.113923    11A    -11.102954    12A    -11.088302  
      13A    -11.071778    14A    -11.071695    15A     -1.524823  
      16A     -1.141896    17A     -1.132730    18A     -1.027004  
      19A     -0.964724    20A     -0.918122    21A     -0.881523  
      22A     -0.850590    23A     -0.753493    24A     -0.735876  
      25A     -0.709729    26A     -0.682229    27A     -0.610565  
      28A     -0.601168    29A     -0.587207    30A     -0.574189  
      31A     -0.546145    32A     -0.522853    33A     -0.500745  
      34A     -0.486704    35A     -0.467636    36A     -0.462457  
      37A     -0.431842    38A     -0.418117    39A     -0.404237  
      40A     -0.389421    41A     -0.378427    42A     -0.358615  
      43A     -0.323868    44A     -0.300386    45A     -0.246623  
      46A     -0.236934    47A     -0.229331    48A     -0.207152  
      49A     -0.117010  

    Virtual:                                                              

      50A      0.098897    51A      0.101632    52A      0.114207  
      53A      0.119634    54A      0.127775    55A      0.134847  
      56A      0.151390    57A      0.155943    58A      0.166730  
      59A      0.176621    60A      0.182982    61A      0.184950  
      62A      0.188032    63A      0.189630    64A      0.192477  
      65A      0.201395    66A      0.203727    67A      0.207150  
      68A      0.211247    69A      0.212351    70A      0.218479  
      71A      0.219486    72A      0.223843    73A      0.224622  
      74A      0.227166    75A      0.237289    76A      0.239353  
      77A      0.240293    78A      0.243881    79A      0.245321  
      80A      0.253129    81A      0.260940    82A      0.263626  
      83A      0.270527    84A      0.271129    85A      0.277082  
      86A      0.279174    87A      0.292511    88A      0.295609  
      89A      0.300952    90A      0.303263    91A      0.311610  
      92A      0.314661    93A      0.319060    94A      0.326964  
      95A      0.332928    96A      0.333522    97A      0.335831  
      98A      0.337826    99A      0.342560   100A      0.343432  
     101A      0.355571   102A      0.361505   103A      0.369721  
     104A      0.371592   105A      0.378428   106A      0.382223  
     107A      0.384487   108A      0.385697   109A      0.385802  
     110A      0.392012   111A      0.395517   112A      0.407192  
     113A      0.412337   114A      0.413676   115A      0.418626  
     116A      0.424771   117A      0.426173   118A      0.432725  
     119A      0.439280   120A      0.444661   121A      0.449328  
     122A      0.453739   123A      0.459938   124A      0.468523  
     125A      0.469459   126A      0.481296   127A      0.485051  
     128A      0.485156   129A      0.489619   130A      0.498451  
     131A      0.509635   132A      0.511769   133A      0.520284  
     134A      0.525785   135A      0.528691   136A      0.536453  
     137A      0.536746   138A      0.543514   139A      0.543716  
     140A      0.552182   141A      0.555573   142A      0.558880  
     143A      0.561475   144A      0.567171   145A      0.570759  
     146A      0.572118   147A      0.575292   148A      0.575337  
     149A      0.578922   150A      0.584496   151A      0.589685  
     152A      0.594286   153A      0.597871   154A      0.598639  
     155A      0.602744   156A      0.604204   157A      0.608134  
     158A      0.610656   159A      0.612156   160A      0.617254  
     161A      0.623674   162A      0.632685   163A      0.640581  
     164A      0.646297   165A      0.646976   166A      0.651273  
     167A      0.652164   168A      0.657179   169A      0.657258  
     170A      0.668232   171A      0.674262   172A      0.679677  
     173A      0.684108   174A      0.686449   175A      0.692223  
     176A      0.697178   177A      0.703955   178A      0.706817  
     179A      0.714185   180A      0.720574   181A      0.726331  
     182A      0.730191   183A      0.731599   184A      0.739491  
     185A      0.750346   186A      0.762741   187A      0.769070  
     188A      0.771119   189A      0.784124   190A      0.787263  
     191A      0.793984   192A      0.795600   193A      0.801986  
     194A      0.804463   195A      0.805570   196A      0.819633  
     197A      0.820889   198A      0.828301   199A      0.830763  
     200A      0.846217   201A      0.854271   202A      0.861373  
     203A      0.863321   204A      0.865877   205A      0.869333  
     206A      0.876240   207A      0.877981   208A      0.885002  
     209A      0.888729   210A      0.901055   211A      0.911097  
     212A      0.915753   213A      0.917304   214A      0.926293  
     215A      0.935899   216A      0.939898   217A      0.947613  
     218A      0.948988   219A      0.961601   220A      0.969605  
     221A      0.974038   222A      0.978076   223A      0.985385  
     224A      0.989098   225A      0.992741   226A      0.996109  
     227A      0.998564   228A      1.008626   229A      1.009249  
     230A      1.016243   231A      1.016777   232A      1.021541  
     233A      1.026578   234A      1.037378   235A      1.042973  
     236A      1.043363   237A      1.057779   238A      1.058067  
     239A      1.062433   240A      1.063456   241A      1.068574  
     242A      1.071579   243A      1.075807   244A      1.078458  
     245A      1.085160   246A      1.088577   247A      1.089328  
     248A      1.097870   249A      1.102899   250A      1.111488  
     251A      1.111812   252A      1.116481   253A      1.119562  
     254A      1.126002   255A      1.127758   256A      1.127927  
     257A      1.130406   258A      1.137038   259A      1.147287  
     260A      1.151337   261A      1.152233   262A      1.157149  
     263A      1.161329   264A      1.163966   265A      1.169309  
     266A      1.178101   267A      1.181275   268A      1.183917  
     269A      1.190705   270A      1.198363   271A      1.206947  
     272A      1.212836   273A      1.220750   274A      1.220952  
     275A      1.225156   276A      1.236003   277A      1.237903  
     278A      1.243670   279A      1.247764   280A      1.255948  
     281A      1.259413   282A      1.276136   283A      1.278495  
     284A      1.284555   285A      1.286916   286A      1.291824  
     287A      1.296467   288A      1.306427   289A      1.308894  
     290A      1.309976   291A      1.316839   292A      1.324590  
     293A      1.325824   294A      1.331598   295A      1.338391  
     296A      1.345457   297A      1.349224   298A      1.351343  
     299A      1.358354   300A      1.367215   301A      1.368444  
     302A      1.369773   303A      1.374883   304A      1.378420  
     305A      1.386565   306A      1.391632   307A      1.400833  
     308A      1.406476   309A      1.417726   310A      1.429559  
     311A      1.431824   312A      1.436563   313A      1.444518  
     314A      1.450129   315A      1.451212   316A      1.459278  
     317A      1.470337   318A      1.480610   319A      1.480977  
     320A      1.484334   321A      1.488677   322A      1.497741  
     323A      1.507613   324A      1.519977   325A      1.530862  
     326A      1.533182   327A      1.538543   328A      1.545377  
     329A      1.556353   330A      1.565596   331A      1.578020  
     332A      1.582085   333A      1.595015   334A      1.611449  
     335A      1.613883   336A      1.618737   337A      1.620070  
     338A      1.624727   339A      1.634182   340A      1.652800  
     341A      1.659467   342A      1.667767   343A      1.669484  
     344A      1.692710   345A      1.696964   346A      1.703057  
     347A      1.713782   348A      1.715592   349A      1.725940  
     350A      1.746830   351A      1.754268   352A      1.758052  
     353A      1.774040   354A      1.778603   355A      1.778713  
     356A      1.787078   357A      1.787577   358A      1.800821  
     359A      1.805199   360A      1.811400   361A      1.825630  
     362A      1.828178   363A      1.837628   364A      1.843246  
     365A      1.847248   366A      1.848425   367A      1.862749  
     368A      1.867606   369A      1.884209   370A      1.892643  
     371A      1.901807   372A      1.904250   373A      1.910629  
     374A      1.915220   375A      1.931273   376A      1.941676  
     377A      1.946440   378A      1.951536   379A      1.958076  
     380A      1.966571   381A      1.976394   382A      1.985467  
     383A      2.003386   384A      2.004401   385A      2.008499  
     386A      2.015581   387A      2.049863   388A      2.053407  
     389A      2.054884   390A      2.069132   391A      2.075752  
     392A      2.083536   393A      2.091265   394A      2.097183  
     395A      2.102797   396A      2.103616   397A      2.121459  
     398A      2.130144   399A      2.137294   400A      2.141013  
     401A      2.141506   402A      2.147840   403A      2.148563  
     404A      2.158870   405A      2.159778   406A      2.169053  
     407A      2.181005   408A      2.190960   409A      2.198160  
     410A      2.198341   411A      2.207354   412A      2.208635  
     413A      2.223595   414A      2.235217   415A      2.244873  
     416A      2.252141   417A      2.261150   418A      2.270701  
     419A      2.274841   420A      2.288294   421A      2.289620  
     422A      2.306519   423A      2.312829   424A      2.325996  
     425A      2.327503   426A      2.336238   427A      2.341525  
     428A      2.343057   429A      2.363367   430A      2.364684  
     431A      2.370792   432A      2.384497   433A      2.394957  
     434A      2.400501   435A      2.414001   436A      2.420143  
     437A      2.424011   438A      2.433292   439A      2.439878  
     440A      2.445870   441A      2.461837   442A      2.472030  
     443A      2.482975   444A      2.497265   445A      2.513386  
     446A      2.531626   447A      2.534019   448A      2.544924  
     449A      2.559320   450A      2.567418   451A      2.569660  
     452A      2.589049   453A      2.594636   454A      2.604314  
     455A      2.605331   456A      2.623130   457A      2.626581  
     458A      2.631719   459A      2.651548   460A      2.652928  
     461A      2.655435   462A      2.677809   463A      2.696823  
     464A      2.721519   465A      2.729070   466A      2.735960  
     467A      2.744411   468A      2.762800   469A      2.775974  
     470A      2.791164   471A      2.792216   472A      2.833033  
     473A      2.848314   474A      2.851371   475A      2.863393  
     476A      2.894832   477A      2.903099   478A      2.911234  
     479A      2.937026   480A      2.939949   481A      2.954749  
     482A      2.958323   483A      2.962705   484A      2.982243  
     485A      3.031882   486A      3.045117   487A      3.051830  
     488A      3.072979   489A      3.113461   490A      3.127310  
     491A      3.143718   492A      3.154428   493A      3.186945  
     494A      3.191329   495A      3.213637   496A      3.228089  
     497A      3.232461   498A      3.250068   499A      3.252297  
     500A      3.268713   501A      3.279190   502A      3.297445  
     503A      3.310636   504A      3.324576   505A      3.329688  
     506A      3.334783   507A      3.363238   508A      3.369264  
     509A      3.381091   510A      3.409493   511A      3.427724  
     512A      3.436834   513A      3.462276   514A      3.468998  
     515A      3.470537   516A      3.478822   517A      3.487728  
     518A      3.493518   519A      3.501731   520A      3.510587  
     521A      3.532776   522A      3.534083   523A      3.542566  
     524A      3.563989   525A      3.564523   526A      3.566642  
     527A      3.571681   528A      3.583042   529A      3.586109  
     530A      3.611649   531A      3.627993   532A      3.639866  
     533A      3.642465   534A      3.644788   535A      3.658468  
     536A      3.663220   537A      3.673072   538A      3.674114  
     539A      3.696178   540A      3.699356   541A      3.706146  
     542A      3.715324   543A      3.739877   544A      3.740812  
     545A      3.746257   546A      3.754364   547A      3.772560  
     548A      3.778970   549A      3.788953   550A      3.797333  
     551A      3.804962   552A      3.808231   553A      3.813979  
     554A      3.828970   555A      3.841481   556A      3.842743  
     557A      3.844134   558A      3.851753   559A      3.862979  
     560A      3.884313   561A      3.892087   562A      3.898095  
     563A      3.902874   564A      3.909013   565A      3.918771  
     566A      3.936201   567A      3.942293   568A      3.953978  
     569A      3.959132   570A      3.967885   571A      3.970980  
     572A      3.976259   573A      3.985596   574A      4.001240  
     575A      4.012992   576A      4.022272   577A      4.041128  
     578A      4.042993   579A      4.055758   580A      4.058853  
     581A      4.070906   582A      4.076783   583A      4.085016  
     584A      4.092013   585A      4.093374   586A      4.102580  
     587A      4.111705   588A      4.120201   589A      4.127037  
     590A      4.140118   591A      4.142494   592A      4.147860  
     593A      4.164687   594A      4.171031   595A      4.179921  
     596A      4.194952   597A      4.207690   598A      4.214698  
     599A      4.224291   600A      4.234343   601A      4.251370  
     602A      4.262881   603A      4.272946   604A      4.274012  
     605A      4.300702   606A      4.308941   607A      4.315882  
     608A      4.316000   609A      4.334028   610A      4.342333  
     611A      4.357331   612A      4.357394   613A      4.370793  
     614A      4.379687   615A      4.388921   616A      4.392463  
     617A      4.396756   618A      4.414246   619A      4.421550  
     620A      4.425088   621A      4.436073   622A      4.445910  
     623A      4.456533   624A      4.468890   625A      4.475470  
     626A      4.475786   627A      4.481584   628A      4.490962  
     629A      4.498310   630A      4.511260   631A      4.516142  
     632A      4.527531   633A      4.541209   634A      4.547287  
     635A      4.563753   636A      4.565026   637A      4.584525  
     638A      4.590904   639A      4.599143   640A      4.628630  
     641A      4.635678   642A      4.638419   643A      4.655964  
     644A      4.684430   645A      4.692226   646A      4.703697  
     647A      4.710001   648A      4.718221   649A      4.732002  
     650A      4.738485   651A      4.752062   652A      4.753836  
     653A      4.765903   654A      4.777944   655A      4.780714  
     656A      4.796304   657A      4.814450   658A      4.827653  
     659A      4.839634   660A      4.850889   661A      4.873947  
     662A      4.875133   663A      4.906162   664A      4.912178  
     665A      4.914975   666A      4.948280   667A      4.948667  
     668A      4.970425   669A      4.987451   670A      4.998517  
     671A      5.014052   672A      5.025295   673A      5.041463  
     674A      5.051565   675A      5.072088   676A      5.102178  
     677A      5.104570   678A      5.115169   679A      5.116981  
     680A      5.124482   681A      5.133879   682A      5.161795  
     683A      5.181877   684A      5.184928   685A      5.205398  
     686A      5.225254   687A      5.237000   688A      5.239157  
     689A      5.259595   690A      5.267265   691A      5.267409  
     692A      5.271737   693A      5.285080   694A      5.287179  
     695A      5.301573   696A      5.301719   697A      5.327289  
     698A      5.328741   699A      5.347896   700A      5.366011  
     701A      5.389714   702A      5.399619   703A      5.442259  
     704A      5.446546   705A      5.470371   706A      5.478985  
     707A      5.485281   708A      5.522751   709A      5.552519  
     710A      5.568459   711A      5.585910   712A      5.599879  
     713A      5.611644   714A      5.656404   715A      5.666780  
     716A      5.667113   717A      5.704600   718A      5.717442  
     719A      5.740040   720A      5.742380   721A      5.777055  
     722A      5.805724   723A      5.856953   724A      5.873610  
     725A      5.889832   726A      5.901583   727A      5.910000  
     728A      5.926259   729A      5.960559   730A      5.965598  
     731A      5.993234   732A      6.008491   733A      6.015915  
     734A      6.034819   735A      6.096436   736A      6.136417  
     737A      6.163148   738A      6.198818   739A      6.299670  
     740A      6.316624   741A      6.356882   742A      6.369623  
     743A      6.400884   744A      6.412159   745A      6.486997  
     746A      6.535824   747A      6.561293   748A      6.592223  
     749A      6.638976   750A      6.666841   751A      6.731178  
     752A      6.774580   753A      6.814747   754A      6.827070  
     755A      6.860968   756A      6.869237   757A      6.886259  
     758A      6.915707   759A      6.930878   760A      6.989527  
     761A      7.010611   762A      7.051488   763A      7.079304  
     764A      7.118528   765A      7.173835   766A      7.213463  
     767A      7.229569   768A      7.301011   769A      7.339972  
     770A      7.344460   771A      7.572774   772A      7.605173  
     773A      7.630268   774A      7.651062   775A      7.912570  
     776A      7.931023   777A      8.018242   778A      8.143215  
     779A      8.215569   780A      9.216090   781A      9.367387  
     782A      9.417443   783A      9.535357   784A      9.553250  
     785A      9.655668   786A      9.761665   787A      9.777859  
     788A      9.838611   789A      9.859490   790A     10.261623  
     791A     10.299819   792A     15.749050   793A     16.099172  
     794A     16.497981   795A     17.131293   796A     17.238829  
     797A     17.786101   798A     18.786364   799A     19.150425  
     800A     20.235200   801A     20.398532   802A     20.985166  
     803A     21.115089   804A     21.259166   805A     21.292763  

    Final Occupation by Irrep:
              A 
    DOCC [    49 ]

  Energy converged.

  @DF-RHF Final Energy:  -649.59694884957344

   => Energetics <=

    Nuclear Repulsion Energy =            805.7209524709904827
    One-Electron Energy =               -2500.5567464173013832
    Two-Electron Energy =                1045.2388450967373501
    DFT Exchange-Correlation Energy =       0.0000000000000000
    Empirical Dispersion Energy =           0.0000000000000000
    PCM Polarization Energy =               0.0000000000000000
    EFP Energy =                            0.0000000000000000
    Total Energy =                       -649.5969488495734367



Properties will be evaluated at   0.000000,   0.000000,   0.000000 Bohr

Properties computed using the SCF density matrix

  Nuclear Dipole Moment: (a.u.)
     X:     0.9324      Y:    -0.2989      Z:    -6.8808

  Electronic Dipole Moment: (a.u.)
     X:     1.3488      Y:    -0.9142      Z:     5.4297

  Dipole Moment: (a.u.)
     X:     2.2812      Y:    -1.2130      Z:    -1.4510     Total:     2.9632

  Dipole Moment: (Debye)
     X:     5.7981      Y:    -3.0833      Z:    -3.6881     Total:     7.5317


*** tstop() called on gpu-2-9.local at Tue Nov 14 03:27:29 2017
Module time:
	user time   =    1191.91 seconds =      19.87 minutes
	system time =      50.82 seconds =       0.85 minutes
	total time  =        460 seconds =       7.67 minutes
Total time:
	user time   =    1191.91 seconds =      19.87 minutes
	system time =      50.82 seconds =       0.85 minutes
	total time  =        460 seconds =       7.67 minutes

  //>>>>>>>>>>>>>>>>>>>>>>>>>>>>>>>>>>>//
  //               DFMP2               //
  //<<<<<<<<<<<<<<<<<<<<<<<<<<<<<<<<<<<//

   => Loading Basis Set <=

    Name: (AUG-CC-PVTZ AUX)
    Role: RIFIT
    Keyword: DF_BASIS_MP2
    atoms 1-11  entry C          line   147 file /cbio/jclab/home/chayas/anaconda/envs/py35/share/psi4/basis/aug-cc-pvtz-ri.gbs 
    atoms 12    entry N          line   205 file /cbio/jclab/home/chayas/anaconda/envs/py35/share/psi4/basis/aug-cc-pvtz-ri.gbs 
    atoms 13    entry O          line   263 file /cbio/jclab/home/chayas/anaconda/envs/py35/share/psi4/basis/aug-cc-pvtz-ri.gbs 
    atoms 14    entry F          line   321 file /cbio/jclab/home/chayas/anaconda/envs/py35/share/psi4/basis/aug-cc-pvtz-ri.gbs 
    atoms 15-21 entry H          line    29 file /cbio/jclab/home/chayas/anaconda/envs/py35/share/psi4/basis/aug-cc-pvtz-ri.gbs 

	 --------------------------------------------------------
	                          DF-MP2                         
	      2nd-Order Density-Fitted Moller-Plesset Theory     
	              RMP2 Wavefunction,   8 Threads             
	                                                         
	        Rob Parrish, Justin Turney, Andy Simmonett,      
	           Ed Hohenstein, and C. David Sherrill          
	 --------------------------------------------------------

   => Auxiliary Basis Set <=

  Basis Set: (AUG-CC-PVTZ AUX)
    Blend: AUG-CC-PVTZ-RI
    Number of shells: 490
    Number of basis function: 1806
    Number of Cartesian functions: 2289
    Spherical Harmonics?: true
    Max angular momentum: 4

	 --------------------------------------------------------
	                 NBF =   805, NAUX =  1806
	 --------------------------------------------------------
	   CLASS    FOCC     OCC    AOCC    AVIR     VIR    FVIR
	   PAIRS       0      49      49     756     756       0
	 --------------------------------------------------------


         ------------------------------------------------------------
                                     CPHF                           
                                  Rob Parrish                       
         ------------------------------------------------------------

  ==> Geometry <==

    Molecular point group: c1
    Full point group: C1

    Geometry (in Angstrom), charge = -1, multiplicity = 1:

       Center              X                  Y                   Z               Mass       
    ------------   -----------------  -----------------  -----------------  -----------------
           C         -1.345088705454     0.767709745233    -0.780877824980    12.000000000000
           C         -2.423088705454     1.340709745233    -0.107877824980    12.000000000000
           C          1.843911294546    -1.015290254767    -0.052877824980    12.000000000000
           C          0.847911294546    -0.399290254767    -2.153877824980    12.000000000000
           C         -1.430088705454     0.724709745233     2.007122175020    12.000000000000
           C          2.889911294546    -1.570290254767    -0.772877824980    12.000000000000
           C          1.938911294546    -0.981290254767    -2.779877824980    12.000000000000
           C         -0.309088705454     0.172709745233    -0.060877824980    12.000000000000
           C          0.807911294546    -0.420290254767    -0.763877824980    12.000000000000
           C         -2.466088705454     1.319709745233     1.286122175020    12.000000000000
           C         -0.352088705454     0.151709745233     1.333122175020    12.000000000000
           N          2.963911294546    -1.568290254767    -2.122877824980    14.003074004780
           O         -3.457088705454     1.846709745233     1.905122175020    15.994914619560
           F          0.635911294546    -0.416290254767     2.040122175020    18.998403224000
           H         -1.326088705454     0.790709745233    -1.868877824980     1.007825032070
           H         -3.219088705454     1.796709745233    -0.693877824980     1.007825032070
           H          1.847911294546    -1.052290254767     1.032122175020     1.007825032070
           H          0.057911294546     0.055709745233    -2.741877824980     1.007825032070
           H         -1.439088705454     0.694709745233     3.095122175020     1.007825032070
           H          3.721911294546    -2.047290254767    -0.264877824980     1.007825032070
           H          2.017911294546    -0.990290254767    -3.860877824980     1.007825032070

  Nuclear repulsion =  805.720952470990483
  Reference energy  = -649.596948849573437

  ==> Basis Set <==

  Basis Set: AUG-CC-PVTZ
    Blend: AUG-CC-PVTZ
    Number of shells: 259
    Number of basis function: 805
    Number of Cartesian functions: 945
    Spherical Harmonics?: true
    Max angular momentum: 3

  ==> CGRSolver (by Rob Parrish) <==

   Number of roots    =         1
   Preconditioning    =    JACOBI
   Convergence cutoff =     1E-06
   Maximum iterations =       100

  ==> CPHFRHamiltonian (by Rob Parrish) <== 

  ==> DFJK: Density-Fitted J/K Matrices <==

    J tasked:                  Yes
    K tasked:                  Yes
    wK tasked:                  No
    OpenMP threads:              8
    Integrals threads:           8
    Memory (MB):              3576
    Algorithm:                Disk
    Integral Cache:           NONE
    Schwarz Cutoff:          1E-12
    Fitting Condition:       1E-12

   => Auxiliary Basis Set <=

  Basis Set: (AUG-CC-PVTZ AUX)
    Blend: AUG-CC-PVTZ-JKFIT
    Number of shells: 518
    Number of basis function: 1778
    Number of Cartesian functions: 2219
    Spherical Harmonics?: true
    Max angular momentum: 4

  ==> CPHF Iterations <==

  => Iterations <=

             Iter  Converged  Remaining    Residual
  CGR           1          0          1   1.362E-01
  CGR           2          0          1   5.131E-02
  CGR           3          0          1   3.109E-02
  CGR           4          0          1   1.164E-02
  CGR           5          0          1   5.571E-03
  CGR           6          0          1   2.785E-03
  CGR           7          0          1   1.091E-03
  CGR           8          0          1   4.178E-04
  CGR           9          0          1   1.358E-04
  CGR          10          0          1   3.918E-05
  CGR          11          0          1   1.494E-05
  CGR          12          0          1   4.073E-06
  CGR          13          0          1   1.703E-06
  CGR          14          1          0   8.637E-07

    CGRSolver converged.

  ==> DFCorrGrad: Density-Fitted Correlated Gradients <==

    OpenMP threads:              8
    Integrals threads:           8
    Memory (MB):              3576
    Schwarz Cutoff:          0E+00
    Fitting Condition:       1E-12

   => Auxiliary Basis Set <=

  Basis Set: (AUG-CC-PVTZ AUX)
    Blend: AUG-CC-PVTZ-JKFIT
    Number of shells: 518
    Number of basis function: 1778
    Number of Cartesian functions: 2219
    Spherical Harmonics?: true
    Max angular momentum: 4

	-----------------------------------------------------------
	 ==================> DF-MP2 Energies <==================== 
	-----------------------------------------------------------
	 Reference Energy          =    -649.5969488495734367 [Eh]
	 Singles Energy            =      -0.0000000000000000 [Eh]
	 Same-Spin Energy          =      -0.6880324365180175 [Eh]
	 Opposite-Spin Energy      =      -2.0294594554378889 [Eh]
	 Correlation Energy        =      -2.7174918919559063 [Eh]
	 Total Energy              =    -652.3144407415293244 [Eh]
	-----------------------------------------------------------
	 ================> DF-SCS-MP2 Energies <================== 
	-----------------------------------------------------------
	 SCS Same-Spin Scale       =       0.3333333333333333 [-]
	 SCS Opposite-Spin Scale   =       1.2000000000000000 [-]
	 SCS Same-Spin Energy      =      -0.2293441455060058 [Eh]
	 SCS Opposite-Spin Energy  =      -2.4353513465254664 [Eh]
	 SCS Correlation Energy    =      -2.6646954920314720 [Eh]
	 SCS Total Energy          =    -652.2616443416048924 [Eh]
	-----------------------------------------------------------


  -Total Gradient:
     Atom            X                  Y                   Z
    ------   -----------------  -----------------  -----------------
       1        0.024180756467    -0.012677298973    -0.014410602246
       2       -0.024182375353     0.012041557978     0.043602114381
       3       -0.026011695719     0.013999802048     0.009389990339
       4       -0.016015314306     0.008274432979     0.010029227648
       5       -0.045786459705     0.025318931215    -0.002603309245
       6        0.001843105364    -0.001357357413     0.013765652153
       7       -0.005609367836     0.003345811416    -0.006515562349
       8       -0.027131578877     0.014331963024     0.011939261436
       9        0.023697496854    -0.012245034482    -0.015054063888
      10        0.049118050969    -0.026123927382    -0.031295372875
      11        0.048176541008    -0.026617102721     0.001837152264
      12        0.004257957144    -0.002281119636    -0.003405950555
      13       -0.004059070252     0.002205333403     0.001611313612
      14        0.005717222738    -0.002324777777    -0.025936148431
      15        0.000597554219    -0.000130800275    -0.009018245681
      16       -0.001803240844     0.001186183906    -0.008808345967
      17       -0.006511372245     0.002905737114     0.020927799069
      18       -0.006576717246     0.003762690545    -0.002661530482
      19        0.003763657510    -0.002293146047     0.006883032265
      20        0.001654843462    -0.000979770399     0.000259913832
      21        0.000680006655    -0.000342108506    -0.000536325273


*** tstop() called on gpu-2-9.local at Tue Nov 14 04:00:28 2017
Module time:
	user time   =    5457.77 seconds =      90.96 minutes
	system time =     116.43 seconds =       1.94 minutes
	total time  =       2439 seconds =      40.65 minutes
Total time:
	user time   =    5457.77 seconds =      90.96 minutes
	system time =     116.43 seconds =       1.94 minutes
	total time  =       2439 seconds =      40.65 minutes

			-----------------------------------------
			 OPTKING 2.0: for geometry optimizations 
			  - R.A. King,  Bethel University        
			-----------------------------------------
	At level 1: Red. Int., RFO, no backsteps, dynamic trust

	Internal coordinates to be generated automatically.
	Detected frag 1 with atoms:  1 2 3 4 5 6 7 8 9 10 11 12 13 14 15 16 17 18 19 20
	 21
	---Fragment 1 Bond Connectivity---
	 1 : 2 8 15
	 2 : 1 10 16
	 3 : 6 9 17
	 4 : 7 9 18
	 5 : 10 11 19
	 6 : 3 12 20
	 7 : 4 12 21
	 8 : 1 9 11
	 9 : 3 4 8
	 10 : 2 5 13
	 11 : 5 8 14
	 12 : 6 7
	 13 : 10
	 14 : 11
	 15 : 1
	 16 : 2
	 17 : 3
	 18 : 4
	 19 : 5
	 20 : 6
	 21 : 7

	Assuming in current code that numbering for constraints corresponds to unified fragment.
	Fixed dihedral atom list: 
	     1     8     9     3
	---Fragment 1 Geometry and Gradient---
	 C          -2.5418492777        1.4507611680       -1.4756452325
	 C          -4.5789740490        2.5335742422       -0.2038595450
	 C           3.4844873600       -1.9186205269       -0.0999246077
	 C           1.6023201317       -0.7545492290       -4.0702392129
	 C          -2.7024759990        1.3695029443        3.7929112260
	 C           5.4611408950       -2.9674185306       -1.4605274234
	 C           3.6640113427       -1.8543698384       -5.2532077721
	 C          -0.5840930041        0.3263741190       -0.1150424168
	 C           1.5267310864       -0.7942334778       -1.4435198882
	 C          -4.6602322727        2.4938899934        2.4304186842
	 C          -0.6653512278        0.2866898702        2.5192358125
	 N           5.6009806289       -2.9636390784       -4.0116577028
	 O          -6.5329508704        3.4897756654        3.6001591605
	 F           1.2016981915       -0.7866745733        3.8552721884
	 H          -2.5059444812        1.4942248691       -3.5316672650
	 H          -6.0831960508        3.3952893588       -1.3112390589
	 H           3.4920462646       -1.9885403938        1.9504282465
	 H           0.1094364867        0.1052761614       -5.1813981790
	 H          -2.7194835342        1.3128111603        5.8489332586
	 H           7.0333930376       -3.8688178960       -0.5005465479
	 H           3.8132997071       -1.8713773736       -7.2960017217
	             0.0241807565       -0.0126772990       -0.0144106022
	            -0.0241823754        0.0120415580        0.0436021144
	            -0.0260116957        0.0139998020        0.0093899903
	            -0.0160153143        0.0082744330        0.0100292276
	            -0.0457864597        0.0253189312       -0.0026033092
	             0.0018431054       -0.0013573574        0.0137656522
	            -0.0056093678        0.0033458114       -0.0065155623
	            -0.0271315789        0.0143319630        0.0119392614
	             0.0236974969       -0.0122450345       -0.0150540639
	             0.0491180510       -0.0261239274       -0.0312953729
	             0.0481765410       -0.0266171027        0.0018371523
	             0.0042579571       -0.0022811196       -0.0034059506
	            -0.0040590703        0.0022053334        0.0016113136
	             0.0057172227       -0.0023247778       -0.0259361484
	             0.0005975542       -0.0001308003       -0.0090182457
	            -0.0018032408        0.0011861839       -0.0088083460
	            -0.0065113722        0.0029057371        0.0209277991
	            -0.0065767172        0.0037626905       -0.0026615305
	             0.0037636575       -0.0022931460        0.0068830323
	             0.0016548435       -0.0009797704        0.0002599138
	             0.0006800067       -0.0003421085       -0.0005363253

	Previous optimization step data not found.  Starting new optimization.

	---Fragment 1 Intrafragment Coordinates---
	 - Coordinate -           - BOHR/RAD -       - ANG/DEG -
	 R(1,2)           =         2.634350	       1.394038
	 R(1,8)           =         2.635962	       1.394891
	 R(1,15)          =         2.056795	       1.088409
	 R(2,10)          =         2.635830	       1.394821
	 R(2,16)          =         2.057067	       1.088553
	 R(3,6)           =         2.618850	       1.385836
	 R(3,9)           =         2.627224	       1.390267
	 R(3,17)          =         2.051559	       1.085638
	 R(4,7)           =         2.619082	       1.385959
	 R(4,9)           =         2.628106	       1.390734
	 R(4,18)          =         2.050043	       1.084836
	 R(5,10)          =         2.636938	       1.395407
	 R(5,11)          =         2.635263	       1.394521
	 R(5,19)          =         2.056874	       1.088451
	 R(6,12)          =         2.554963	       1.352028
	 R(6,20)          =         2.050868	       1.085273
	 R(7,12)          =         2.554168	       1.351608
	 R(7,21)          =         2.048312	       1.083920
	 R(8,9)           =         2.734263	       1.446909
	 R(8,11)          =         2.635830	       1.394821
	 R(10,13)         =         2.422221	       1.281784
	 R(11,14)         =         2.534359	       1.341125
	 B(1,2,10)        =         2.094553	     120.009056
	 B(1,2,16)        =         2.068903	     118.539404
	 B(1,8,9)         =         2.091392	     119.827938
	 B(1,8,11)        =         2.093692	     119.959722
	 B(2,1,8)         =         2.094940	     120.031219
	 B(2,1,15)        =         2.079908	     119.169966
	 B(2,10,5)        =         2.094306	     119.994870
	 B(2,10,13)       =         2.094719	     120.018581
	 B(3,6,12)        =         2.164556	     124.019935
	 B(3,6,20)        =         2.107684	     120.761398
	 B(3,9,4)         =         2.089981	     119.747087
	 B(3,9,8)         =         2.096933	     120.145439
	 B(4,7,12)        =         2.164921	     124.040836
	 B(4,7,21)        =         2.107511	     120.751488
	 B(4,9,8)         =         2.096269	     120.107370
	 B(5,10,13)       =         2.094160	     119.986548
	 B(5,11,8)        =         2.095181	     120.045019
	 B(5,11,14)       =         2.081414	     119.256220
	 B(6,3,9)         =         2.057984	     117.913770
	 B(6,3,17)        =         2.097639	     120.185873
	 B(6,12,7)        =         2.031406	     116.390990
	 B(7,4,9)         =         2.057522	     117.887336
	 B(7,4,18)        =         2.099659	     120.301578
	 B(8,1,15)        =         2.108336	     120.798746
	 B(8,11,14)       =         2.106591	     120.698759
	 B(9,3,17)        =         2.127563	     121.900355
	 B(9,4,18)        =         2.126004	     121.811047
	 B(9,8,11)        =         2.098101	     120.212327
	 B(10,2,16)       =         2.119728	     121.451467
	 B(10,5,11)       =         2.093699	     119.960108
	 B(10,5,19)       =         2.120101	     121.472852
	 B(11,5,19)       =         2.069385	     118.567038
	 B(12,6,20)       =         2.010945	     115.218637
	 B(12,7,21)       =         2.010753	     115.207674
	 D(1,2,10,5)      =        -0.000325	      -0.018609
	 D(1,2,10,13)     =         3.141392	     179.988520
	 D(1,8,9,3)       =        -3.141378	    -179.987686
	 D(1,8,9,4)       =        -0.001841	      -0.105474
	 D(1,8,11,5)      =         0.000325	       0.018608
	 D(1,8,11,14)     =        -3.141528	    -179.996269
	 D(2,1,8,9)       =        -3.141211	    -179.978157
	 D(2,1,8,11)      =        -0.000348	      -0.019945
	 D(2,10,5,11)     =         0.000301	       0.017261
	 D(2,10,5,19)     =        -3.141543	    -179.997173
	 D(3,6,12,7)      =        -0.000100	      -0.005709
	 D(3,9,4,7)       =        -0.001385	      -0.079362
	 D(3,9,4,18)      =         3.141462	     179.992501
	 D(3,9,8,11)      =         0.000946	       0.054208
	 D(4,7,12,6)      =        -0.000540	      -0.030956
	 D(4,9,3,6)       =         0.000812	       0.046538
	 D(4,9,3,17)      =        -3.140522	    -179.938638
	 D(4,9,8,11)      =         3.140483	     179.936420
	 D(5,10,2,16)     =         3.139529	     179.881752
	 D(5,11,8,9)      =         3.141185	     179.976658
	 D(6,3,9,8)       =         3.140357	     179.929176
	 D(6,12,7,21)     =         3.141321	     179.984443
	 D(7,4,9,8)       =        -3.140930	    -179.962045
	 D(7,12,6,20)     =         3.140406	     179.932036
	 D(8,1,2,10)      =         0.000348	       0.019955
	 D(8,1,2,16)      =        -3.139556	    -179.883288
	 D(8,9,3,17)      =        -0.000977	      -0.056000
	 D(8,9,4,18)      =         0.001917	       0.109818
	 D(8,11,5,10)     =        -0.000301	      -0.017270
	 D(8,11,5,19)     =         3.141536	     179.996748
	 D(9,3,6,12)      =        -0.000050	      -0.002849
	 D(9,3,6,20)      =        -3.140498	    -179.937306
	 D(9,4,7,12)      =         0.001286	       0.073704
	 D(9,4,7,21)      =        -3.140589	    -179.942507
	 D(9,8,1,15)      =         0.002066	       0.118384
	 D(9,8,11,14)     =        -0.000667	      -0.038219
	 D(10,2,1,15)     =         3.140283	     179.924984
	 D(10,5,11,14)    =         3.141547	     179.997392
	 D(11,5,10,13)    =        -3.141416	    -179.989865
	 D(11,8,1,15)     =        -3.140256	    -179.923403
	 D(12,6,3,17)     =         3.141289	     179.982591
	 D(12,7,4,18)     =        -3.141541	    -179.997029
	 D(13,10,2,16)    =        -0.001939	      -0.111119
	 D(13,10,5,19)    =        -0.000075	      -0.004300
	 D(14,11,5,19)    =         0.000199	       0.011410
	 D(15,1,2,16)     =         0.000379	       0.021741
	 D(17,3,6,20)     =         0.000840	       0.048134
	 D(18,4,7,21)     =        -0.000231	      -0.013240
	 R(3,14)          =         4.704892	       2.489722

	Current energy   :      -652.3144407415

	Using model Hessian from Lindh (1995).
	 - Coordinate -           - BOHR/RAD -       - ANG/DEG -
	 R(1,2)           =         2.634350	       1.394038
	 R(1,8)           =         2.635962	       1.394891
	 R(1,15)          =         2.056795	       1.088409
	 R(2,10)          =         2.635830	       1.394821
	 R(2,16)          =         2.057067	       1.088553
	 R(3,6)           =         2.618850	       1.385836
	 R(3,9)           =         2.627224	       1.390267
	 R(3,17)          =         2.051559	       1.085638
	 R(4,7)           =         2.619082	       1.385959
	 R(4,9)           =         2.628106	       1.390734
	 R(4,18)          =         2.050043	       1.084836
	 R(5,10)          =         2.636938	       1.395407
	 R(5,11)          =         2.635263	       1.394521
	 R(5,19)          =         2.056874	       1.088451
	 R(6,12)          =         2.554963	       1.352028
	 R(6,20)          =         2.050868	       1.085273
	 R(7,12)          =         2.554168	       1.351608
	 R(7,21)          =         2.048312	       1.083920
	 R(8,9)           =         2.734263	       1.446909
	 R(8,11)          =         2.635830	       1.394821
	 R(10,13)         =         2.422221	       1.281784
	 R(11,14)         =         2.534359	       1.341125
	 R(12,20)         =         3.898597	       2.063048
	 R(12,21)         =         3.895607	       2.061466
	 R(14,17)         =         3.212259	       1.699854
	 R(15,18)         =         3.389839	       1.793826
	 B(1,2,10)        =         2.094553	     120.009056
	 B(1,2,16)        =         2.068903	     118.539404
	 B(1,8,9)         =         2.091392	     119.827938
	 B(1,8,11)        =         2.093692	     119.959722
	 B(1,15,18)       =         2.084374	     119.425832
	 B(2,1,8)         =         2.094940	     120.031219
	 B(2,1,15)        =         2.079908	     119.169966
	 B(2,10,5)        =         2.094306	     119.994870
	 B(2,10,13)       =         2.094719	     120.018581
	 B(3,6,12)        =         2.164556	     124.019935
	 B(3,6,20)        =         2.107684	     120.761398
	 B(3,9,4)         =         2.089981	     119.747087
	 B(3,9,8)         =         2.096933	     120.145439
	 B(3,17,14)       =         2.186172	     125.258405
	 B(4,7,12)        =         2.164921	     124.040836
	 B(4,7,21)        =         2.107511	     120.751488
	 B(4,9,8)         =         2.096269	     120.107370
	 B(4,18,15)       =         2.059993	     118.028893
	 B(5,10,13)       =         2.094160	     119.986548
	 B(5,11,8)        =         2.095181	     120.045019
	 B(5,11,14)       =         2.081414	     119.256220
	 B(6,3,9)         =         2.057984	     117.913770
	 B(6,3,17)        =         2.097639	     120.185873
	 B(6,12,7)        =         2.031406	     116.390990
	 B(6,12,20)       =         0.496003	      28.418882
	 B(6,12,21)       =         2.527198	     144.797787
	 B(6,20,12)       =         0.634645	      36.362481
	 B(7,4,9)         =         2.057522	     117.887336
	 B(7,4,18)        =         2.099659	     120.301578
	 B(7,12,20)       =         2.527409	     144.809843
	 B(7,12,21)       =         0.495792	      28.406798
	 B(7,21,12)       =         0.635047	      36.385528
	 B(8,1,15)        =         2.108336	     120.798746
	 B(8,11,14)       =         2.106591	     120.698759
	 B(9,3,17)        =         2.127563	     121.900355
	 B(9,4,18)        =         2.126004	     121.811047
	 B(9,8,11)        =         2.098101	     120.212327
	 B(10,2,16)       =         2.119728	     121.451467
	 B(10,5,11)       =         2.093699	     119.960108
	 B(10,5,19)       =         2.120101	     121.472852
	 B(11,5,19)       =         2.069385	     118.567038
	 B(11,14,17)      =         1.951011	     111.784689
	 B(12,6,20)       =         2.010945	     115.218637
	 B(12,7,21)       =         2.010753	     115.207674
	 B(20,12,21)      =         3.023200	     173.216607
	 D(1,2,10,5)      =        -0.000325	      -0.018609
	 D(1,2,10,13)     =         3.141392	     179.988520
	 D(1,8,9,3)       =        -3.141378	    -179.987686
	 D(1,8,9,4)       =        -0.001841	      -0.105474
	 D(1,8,11,5)      =         0.000325	       0.018608
	 D(1,8,11,14)     =        -3.141528	    -179.996269
	 D(1,15,18,4)     =         0.001873	       0.107314
	 D(2,1,8,9)       =        -3.141211	    -179.978157
	 D(2,1,8,11)      =        -0.000348	      -0.019945
	 D(2,1,15,18)     =         3.141382	     179.987942
	 D(2,10,5,11)     =         0.000301	       0.017261
	 D(2,10,5,19)     =        -3.141543	    -179.997173
	 D(3,6,12,7)      =        -0.000100	      -0.005709
	 D(3,6,12,20)     =        -3.140506	    -179.937745
	 D(3,6,12,21)     =         0.000124	       0.007130
	 D(3,6,20,12)     =         3.140545	     179.939952
	 D(3,9,4,7)       =        -0.001385	      -0.079362
	 D(3,9,4,18)      =         3.141462	     179.992501
	 D(3,9,8,11)      =         0.000946	       0.054208
	 D(3,17,14,11)    =        -0.000366	      -0.020997
	 D(4,7,12,6)      =        -0.000540	      -0.030956
	 D(4,7,12,20)     =         0.000439	       0.025170
	 D(4,7,12,21)     =         3.141324	     179.984602
	 D(4,7,21,12)     =        -3.141334	    -179.985153
	 D(4,9,3,6)       =         0.000812	       0.046538
	 D(4,9,3,17)      =        -3.140522	    -179.938638
	 D(4,9,8,11)      =         3.140483	     179.936420
	 D(5,10,2,16)     =         3.139529	     179.881752
	 D(5,11,8,9)      =         3.141185	     179.976658
	 D(5,11,14,17)    =        -3.141518	    -179.995716
	 D(6,3,9,8)       =         3.140357	     179.929176
	 D(6,3,17,14)     =        -3.140642	    -179.945550
	 D(6,12,7,21)     =         3.141321	     179.984443
	 D(6,12,21,7)     =        -0.000422	      -0.024175
	 D(6,20,12,7)     =        -0.001844	      -0.105642
	 D(6,20,12,21)    =        -0.004696	      -0.269038
	 D(7,4,9,8)       =        -3.140930	    -179.962045
	 D(7,4,18,15)     =         3.141173	     179.975951
	 D(7,12,6,20)     =         3.140406	     179.932036
	 D(7,21,12,20)    =         0.003455	       0.197935
	 D(8,1,2,10)      =         0.000348	       0.019955
	 D(8,1,2,16)      =        -3.139556	    -179.883288
	 D(8,1,15,18)     =        -0.001881	      -0.107779
	 D(8,9,3,17)      =        -0.000977	      -0.056000
	 D(8,9,4,18)      =         0.001917	       0.109818
	 D(8,11,5,10)     =        -0.000301	      -0.017270
	 D(8,11,5,19)     =         3.141536	     179.996748
	 D(8,11,14,17)    =         0.000332	       0.019045
	 D(9,3,6,12)      =        -0.000050	      -0.002849
	 D(9,3,6,20)      =        -3.140498	    -179.937306
	 D(9,3,17,14)     =         0.000686	       0.039296
	 D(9,4,7,12)      =         0.001286	       0.073704
	 D(9,4,7,21)      =        -3.140589	    -179.942507
	 D(9,4,18,15)     =        -0.001704	      -0.097618
	 D(9,8,1,15)      =         0.002066	       0.118384
	 D(9,8,11,14)     =        -0.000667	      -0.038219
	 D(10,2,1,15)     =         3.140283	     179.924984
	 D(10,5,11,14)    =         3.141547	     179.997392
	 D(11,5,10,13)    =        -3.141416	    -179.989865
	 D(11,8,1,15)     =        -3.140256	    -179.923403
	 D(12,6,3,17)     =         3.141289	     179.982591
	 D(12,7,4,18)     =        -3.141541	    -179.997029
	 D(13,10,2,16)    =        -0.001939	      -0.111119
	 D(13,10,5,19)    =        -0.000075	      -0.004300
	 D(14,11,5,19)    =         0.000199	       0.011410
	 D(15,1,2,16)     =         0.000379	       0.021741
	 D(17,3,6,20)     =         0.000840	       0.048134
	 D(18,4,7,21)     =        -0.000231	      -0.013240
	 D(20,6,12,21)    =         3.140631	     179.944875
	 D(20,12,7,21)    =        -3.140885	    -179.959431

	Adding user-defined constraint: Fragment 1; Coordinate 59:
		Value =    -3.141378; Fixed value    =    -3.141575
		Force =    -0.000099; Force constant =     0.500000
	Removing off-diagonal coupling between coordinate 59 and others.
	Taking RFO optimization step.
	Going to follow RFO solution 1.
	Using RFO vector 1.

	Determining step-restricting scale parameter for RS-RFO.
	Maximum step size allowed    0.10000

	 Iter      |step|        alpha        rfo_root  
	------------------------------------------------
	    0     0.37391       1.00000           1
	    1     0.25080       4.50979           1
	    2     0.17623      13.33321           1
	    3     0.13169      30.15123           1
	    4     0.10888      49.66823           1
	    5     0.10104      60.05652           1
	    6     0.10002      61.61811           1
	    7     0.10000      61.64504           1
	------------------------------------------------
	Norm of target step-size    0.10000
	Projected energy change by RFO approximation:        -0.0093598442

	Back-transformation to cartesian coordinates...
	Successfully converged to displaced geometry.

	--- Internal Coordinate Step in ANG or DEG, aJ/ANG or AJ/DEG ---
	 ---------------------------------------------------------------------------
	   Coordinate                Previous        Force       Change         New 
	   ----------                --------       ------       ------       ------
	    1 R(1,2)          =      1.394038    -0.085692    -0.004540     1.389498
	    2 R(1,8)          =      1.394891     0.089885     0.004768     1.399659
	    3 R(1,15)         =      1.088409    -0.074333    -0.004487     1.083922
	    4 R(2,10)         =      1.394821     0.212811     0.011273     1.406094
	    5 R(2,16)         =      1.088553    -0.054022    -0.003258     1.085295
	    6 R(3,6)          =      1.385836     0.012481     0.000551     1.386386
	    7 R(3,9)          =      1.390267     0.135333     0.006554     1.396821
	    8 R(3,17)         =      1.085638    -0.171302    -0.009256     1.076382
	    9 R(4,7)          =      1.385959    -0.023651    -0.001157     1.384801
	   10 R(4,9)          =      1.390734     0.092922     0.005234     1.395968
	   11 R(4,18)         =      1.084836    -0.064346    -0.003859     1.080977
	   12 R(5,10)         =      1.395407     0.183036     0.009802     1.405210
	   13 R(5,11)         =      1.394521    -0.139586    -0.007242     1.387279
	   14 R(5,19)         =      1.088451    -0.056950    -0.003465     1.084986
	   15 R(6,12)         =      1.352028    -0.112902    -0.005774     1.346254
	   16 R(6,20)         =      1.085273    -0.015001    -0.000862     1.084411
	   17 R(7,12)         =      1.351608    -0.120026    -0.006059     1.345548
	   18 R(7,21)         =      1.083920    -0.004840    -0.000265     1.083655
	   19 R(8,9)          =      1.446909     0.120849     0.007076     1.453986
	   20 R(8,11)         =      1.394821    -0.003848     0.000815     1.395636
	   21 R(10,13)        =      1.281784    -0.039736    -0.001757     1.280027
	   22 R(11,14)        =      1.341125     0.073808     0.004293     1.345418
	   23 B(1,2,10)       =    120.009056     0.000649     0.587008   120.596064
	   24 B(1,2,16)       =    118.539404     0.000166     0.161421   118.700825
	   25 B(1,8,9)        =    119.827938     0.001415     1.161413   120.989351
	   26 B(1,8,11)       =    119.959722    -0.001786    -1.594415   118.365306
	   27 B(2,1,8)        =    120.031219     0.000964     0.843612   120.874831
	   28 B(2,1,15)       =    119.169966    -0.000524    -0.464356   118.705610
	   29 B(2,10,5)       =    119.994870    -0.001909    -1.529623   118.465247
	   30 B(2,10,13)      =    120.018581     0.001030     0.820494   120.839075
	   31 B(3,6,12)       =    124.019935     0.000646     0.460384   124.480319
	   32 B(3,6,20)       =    120.761398    -0.000375    -0.286385   120.475014
	   33 B(3,9,4)        =    119.747087    -0.001972    -1.588183   118.158904
	   34 B(3,9,8)        =    120.145439     0.001182     0.860065   121.005504
	   35 B(4,7,12)       =    124.040836     0.000313     0.209252   124.250087
	   36 B(4,7,21)       =    120.751488    -0.000213    -0.158907   120.592581
	   37 B(4,9,8)        =    120.107370     0.000791     0.728131   120.835500
	   38 B(5,10,13)      =    119.986548     0.000879     0.709129   120.695677
	   39 B(5,11,8)       =    120.045019     0.001701     1.334269   121.379288
	   40 B(5,11,14)      =    119.256220    -0.000410    -0.440696   118.815525
	   41 B(6,3,9)        =    117.913770     0.000407     0.491890   118.405661
	   42 B(6,3,17)       =    120.185873    -0.000790    -0.555873   119.630000
	   43 B(6,12,7)       =    116.390990    -0.000367    -0.425555   115.965435
	   44 B(7,4,9)        =    117.887336     0.000973     0.852217   118.739553
	   45 B(7,4,18)       =    120.301578    -0.000633    -0.564843   119.736734
	   46 B(8,1,15)       =    120.798746    -0.000440    -0.379248   120.419498
	   47 B(8,11,14)      =    120.698759    -0.001291    -0.893573   119.805186
	   48 B(9,3,17)       =    121.900355     0.000383     0.063983   121.964338
	   49 B(9,4,18)       =    121.811047    -0.000341    -0.287370   121.523677
	   50 B(9,8,11)       =    120.212327     0.000371     0.433003   120.645330
	   51 B(10,2,16)      =    121.451467    -0.000815    -0.748423   120.703043
	   52 B(10,5,11)      =    119.960108     0.000381     0.359150   120.319258
	   53 B(10,5,19)      =    121.472852    -0.000532    -0.495385   120.977468
	   54 B(11,5,19)      =    118.567038     0.000151     0.136235   118.703273
	   55 B(12,6,20)      =    115.218637    -0.000271    -0.173995   115.044642
	   56 B(12,7,21)      =    115.207674    -0.000100    -0.050344   115.157330
	   57 D(1,2,10,5)     =     -0.018609     0.000000     0.000553    -0.018056
	   58 D(1,2,10,13)    =    179.988520    -0.000000    -0.000037   179.988483
	   59 D(1,8,9,3)      =   -179.987686    -0.000001    -0.003651  -179.991337
	   60 D(1,8,9,4)      =     -0.105474     0.000000     0.002174    -0.103300
	   61 D(1,8,11,5)     =      0.018608    -0.000000    -0.001102     0.017506
	   62 D(1,8,11,14)    =   -179.996269    -0.000000    -0.000482  -179.996752
	   63 D(2,1,8,9)      =   -179.978157     0.000000     0.000634  -179.977523
	   64 D(2,1,8,11)     =     -0.019945     0.000000     0.001822    -0.018122
	   65 D(2,10,5,11)    =      0.017261    -0.000000     0.000042     0.017304
	   66 D(2,10,5,19)    =   -179.997173    -0.000000    -0.000132  -179.997306
	   67 D(3,6,12,7)     =     -0.005709    -0.000000    -0.000078    -0.005787
	   68 D(3,9,4,7)      =     -0.079362     0.000001     0.005101    -0.074261
	   69 D(3,9,4,18)     =    179.992501     0.000000     0.001396   179.993898
	   70 D(3,9,8,11)     =      0.054208    -0.000001    -0.004021     0.050187
	   71 D(4,7,12,6)     =     -0.030956     0.000000     0.001777    -0.029178
	   72 D(4,9,3,6)      =      0.046538    -0.000001    -0.003810     0.042728
	   73 D(4,9,3,17)     =   -179.938638    -0.000001    -0.005274  -179.943912
	   74 D(4,9,8,11)     =    179.936420     0.000000     0.001803   179.938224
	   75 D(5,10,2,16)    =    179.881752     0.000001     0.004836   179.886588
	   76 D(5,11,8,9)     =    179.976658     0.000000     0.000394   179.977052
	   77 D(6,3,9,8)      =    179.929176     0.000001     0.004510   179.933686
	   78 D(6,12,7,21)    =    179.984443     0.000000     0.001109   179.985552
	   79 D(7,4,9,8)      =   -179.962045    -0.000001    -0.003368  -179.965413
	   80 D(7,12,6,20)    =    179.932036     0.000001     0.003623   179.935659
	   81 D(8,1,2,10)     =      0.019955    -0.000000    -0.001101     0.018854
	   82 D(8,1,2,16)     =   -179.883288    -0.000001    -0.004384  -179.887672
	   83 D(8,9,3,17)     =     -0.056000     0.000001     0.003046    -0.052954
	   84 D(8,9,4,18)     =      0.109818    -0.000001    -0.007072     0.102746
	   85 D(8,11,5,10)    =     -0.017270    -0.000000    -0.000216    -0.017486
	   86 D(8,11,5,19)    =    179.996748    -0.000000     0.000047   179.996794
	   87 D(9,3,6,12)     =     -0.002849     0.000000     0.000664    -0.002186
	   88 D(9,3,6,20)     =   -179.937306    -0.000001    -0.003327  -179.940633
	   89 D(9,4,7,12)     =      0.073704    -0.000001    -0.003293     0.070410
	   90 D(9,4,7,21)     =   -179.942507    -0.000000    -0.002571  -179.945079
	   91 D(9,8,1,15)     =      0.118384    -0.000001    -0.004560     0.113825
	   92 D(9,8,11,14)    =     -0.038219     0.000000     0.001013    -0.037206
	   93 D(10,2,1,15)    =    179.924984     0.000001     0.004059   179.929043
	   94 D(10,5,11,14)   =    179.997392    -0.000000    -0.000759   179.996633
	   95 D(11,5,10,13)   =   -179.989865     0.000000     0.000640  -179.989226
	   96 D(11,8,1,15)    =   -179.923403    -0.000001    -0.003372  -179.926775
	   97 D(12,6,3,17)    =    179.982591     0.000000     0.002184   179.984775
	   98 D(12,7,4,18)    =   -179.997029     0.000000     0.000527  -179.996501
	   99 D(13,10,2,16)   =     -0.111119     0.000001     0.004246    -0.106873
	  100 D(13,10,5,19)   =     -0.004300     0.000000     0.000465    -0.003835
	  101 D(14,11,5,19)   =      0.011410    -0.000000    -0.000496     0.010914
	  102 D(15,1,2,16)    =      0.021741     0.000000     0.000776     0.022517
	  103 D(17,3,6,20)    =      0.048134    -0.000000    -0.001807     0.046327
	  104 D(18,4,7,21)    =     -0.013240     0.000000     0.001249    -0.011990
	  105 R(3,14)         =      2.489722     0.245911     0.022759     2.512480
	 ---------------------------------------------------------------------------
	Successfully symmetrized geometry.
	 Forces used to impose fixed constraints are not included.
	  Forces zeroed: 59 

  ==> Convergence Check <==

  Measures of convergence in internal coordinates in au.
  Criteria marked as inactive (o), active & met (*), and active & unmet ( ).
  --------------------------------------------------------------------------------------------- ~
   Step     Total Energy     Delta E     MAX Force     RMS Force      MAX Disp      RMS Disp    ~
  --------------------------------------------------------------------------------------------- ~
    Convergence Criteria    1.00e-06 *    3.00e-04 *             o    1.20e-03 *             o  ~
  --------------------------------------------------------------------------------------------- ~
      1    -652.31444074   -6.52e+02      2.98e-02      9.34e-03 o    4.30e-02      9.76e-03 o  ~
  ---------------------------------------------------------------------------------------------

	Writing optimization data to binary file.
	Structure for next step:
	Cartesian Geometry (in Angstrom)
	    C    -1.3649019092   0.7782465353  -0.7696093226
	    C    -2.4390064505   1.3491970260  -0.0980283840
	    C     1.8572038342  -1.0223108631  -0.0636232289
	    C     0.8715581648  -0.4121687525  -2.1603991562
	    C    -1.4399237960   0.7299526215   2.0123209974
	    C     2.9027187780  -1.5769037018  -0.7856983495
	    C     1.9631164618  -0.9945678420  -2.7824814116
	    C    -0.3155223064   0.1763611488  -0.0656343245
	    C     0.8098611671  -0.4214003051  -0.7658254293
	    C    -2.4941764871   1.3345653579   1.3069071709
	    C    -0.3737752333   0.1637620721   1.3287288791
	    N     2.9840798002  -1.5791498221  -2.1294896251
	    O    -3.4813083533   1.8593375743   1.9303287621
	    F     0.6193629269  -0.4070556724   2.0344161163
	    H    -1.3542459733   0.8057780480  -1.8531293508
	    H    -3.2343851830   1.8048040099  -0.6791132026
	    H     1.8717495071  -1.0648007957   1.0118218408
	    H     0.0910306571   0.0378448022  -2.7577063298
	    H    -1.4408766709   0.6956269059   3.0967634368
	    H     3.7325094531  -2.0526565508  -0.2747639280
	    H     2.0420687983  -1.0035571464  -3.8632194851
			--------------------------
			 OPTKING Finished Execution 
			--------------------------

    Structure for next step:
    Molecular point group: c1
    Full point group: C1

    Geometry (in Angstrom), charge = -1, multiplicity = 1:

    C           -1.361269963039     0.776293102964    -0.770809096309
    C           -2.435374504338     1.347243593669    -0.099228157668
    C            1.860835780416    -1.024264295441    -0.064823002596
    C            0.875190110932    -0.414122184783    -2.161598929869
    C           -1.436291849847     0.727999189228     2.011121223777
    C            2.906350724148    -1.578857134061    -0.786898123174
    C            1.966748407977    -0.996521274249    -2.783681185260
    C           -0.311890360263     0.174407716515    -0.066834098166
    C            0.813493113284    -0.423353737399    -0.767025202923
    C           -2.490544540929     1.332611925606     1.305707397253
    C           -0.370143287087     0.161808639827     1.327529105429
    N            2.987711746351    -1.581103254443    -2.130689398788
    O           -3.477676407110     1.857384142011     1.929128988416
    F            0.622994873026    -0.409009104692     2.033216342679
    H           -1.350614027177     0.803824615666    -1.854329124416
    H           -3.230753236847     1.802850577619    -0.680312976255
    H            1.875381453270    -1.066754227995     1.010622067104
    H            0.094662603240     0.035891369868    -2.758906103452
    H           -1.437244724757     0.693673473583     3.095563663148
    H            3.736141399288    -2.054609983103    -0.275963701643
    H            2.045700744477    -1.005510578662    -3.864419258785

gradient() will perform analytic gradient computation.

*** tstart() called on gpu-2-9.local
*** at Tue Nov 14 04:00:30 2017

    SCF Algorithm Type (re)set to DF.

*** tstart() called on gpu-2-9.local
*** at Tue Nov 14 04:00:30 2017

   => Loading Basis Set <=

    Name: AUG-CC-PVTZ
    Role: ORBITAL
    Keyword: BASIS
    atoms 1-11  entry C          line   221 file /cbio/jclab/home/chayas/anaconda/envs/py35/share/psi4/basis/aug-cc-pvtz.gbs 
    atoms 12    entry N          line   267 file /cbio/jclab/home/chayas/anaconda/envs/py35/share/psi4/basis/aug-cc-pvtz.gbs 
    atoms 13    entry O          line   313 file /cbio/jclab/home/chayas/anaconda/envs/py35/share/psi4/basis/aug-cc-pvtz.gbs 
    atoms 14    entry F          line   359 file /cbio/jclab/home/chayas/anaconda/envs/py35/share/psi4/basis/aug-cc-pvtz.gbs 
    atoms 15-21 entry H          line    34 file /cbio/jclab/home/chayas/anaconda/envs/py35/share/psi4/basis/aug-cc-pvtz.gbs 


         ---------------------------------------------------------
                                   SCF
            by Justin Turney, Rob Parrish, and Andy Simmonett
                              RHF Reference
                        8 Threads,   4768 MiB Core
         ---------------------------------------------------------

  ==> Geometry <==

    Molecular point group: c1
    Full point group: C1

    Geometry (in Angstrom), charge = -1, multiplicity = 1:

       Center              X                  Y                   Z               Mass       
    ------------   -----------------  -----------------  -----------------  -----------------
           C         -1.361269963039     0.776293102964    -0.770809096309    12.000000000000
           C         -2.435374504338     1.347243593669    -0.099228157668    12.000000000000
           C          1.860835780416    -1.024264295441    -0.064823002596    12.000000000000
           C          0.875190110932    -0.414122184783    -2.161598929869    12.000000000000
           C         -1.436291849847     0.727999189228     2.011121223777    12.000000000000
           C          2.906350724148    -1.578857134061    -0.786898123174    12.000000000000
           C          1.966748407977    -0.996521274249    -2.783681185260    12.000000000000
           C         -0.311890360263     0.174407716515    -0.066834098166    12.000000000000
           C          0.813493113284    -0.423353737399    -0.767025202923    12.000000000000
           C         -2.490544540929     1.332611925606     1.305707397253    12.000000000000
           C         -0.370143287087     0.161808639827     1.327529105429    12.000000000000
           N          2.987711746351    -1.581103254443    -2.130689398788    14.003074004780
           O         -3.477676407110     1.857384142011     1.929128988416    15.994914619560
           F          0.622994873026    -0.409009104692     2.033216342679    18.998403224000
           H         -1.350614027177     0.803824615666    -1.854329124416     1.007825032070
           H         -3.230753236847     1.802850577619    -0.680312976255     1.007825032070
           H          1.875381453270    -1.066754227995     1.010622067104     1.007825032070
           H          0.094662603240     0.035891369868    -2.758906103452     1.007825032070
           H         -1.437244724757     0.693673473583     3.095563663148     1.007825032070
           H          3.736141399288    -2.054609983103    -0.275963701643     1.007825032070
           H          2.045700744477    -1.005510578662    -3.864419258785     1.007825032070

  Running in c1 symmetry.

  Rotational constants: A =      0.06392  B =      0.01381  C =      0.01136 [cm^-1]
  Rotational constants: A =   1916.21718  B =    414.07022  C =    340.49384 [MHz]
  Nuclear repulsion =  803.289399806723509

  Charge       = -1
  Multiplicity = 1
  Electrons    = 98
  Nalpha       = 49
  Nbeta        = 49

  ==> Algorithm <==

  SCF Algorithm Type is DF.
  DIIS enabled.
  MOM disabled.
  Fractional occupation disabled.
  Guess Type is READ.
  Energy threshold   = 1.00e-10
  Density threshold  = 1.00e-10
  Integral threshold = 0.00e+00

  ==> Primary Basis <==

  Basis Set: AUG-CC-PVTZ
    Blend: AUG-CC-PVTZ
    Number of shells: 259
    Number of basis function: 805
    Number of Cartesian functions: 945
    Spherical Harmonics?: true
    Max angular momentum: 3

   => Loading Basis Set <=

    Name: (AUG-CC-PVTZ AUX)
    Role: JKFIT
    Keyword: DF_BASIS_SCF
    atoms 1-11  entry C          line   161 file /cbio/jclab/home/chayas/anaconda/envs/py35/share/psi4/basis/aug-cc-pvtz-jkfit.gbs 
    atoms 12    entry N          line   223 file /cbio/jclab/home/chayas/anaconda/envs/py35/share/psi4/basis/aug-cc-pvtz-jkfit.gbs 
    atoms 13    entry O          line   285 file /cbio/jclab/home/chayas/anaconda/envs/py35/share/psi4/basis/aug-cc-pvtz-jkfit.gbs 
    atoms 14    entry F          line   347 file /cbio/jclab/home/chayas/anaconda/envs/py35/share/psi4/basis/aug-cc-pvtz-jkfit.gbs 
    atoms 15-21 entry H          line    69 file /cbio/jclab/home/chayas/anaconda/envs/py35/share/psi4/basis/aug-cc-pvtz-jkfit.gbs 

  Reading orbitals from file 180, no projection.

  ==> Pre-Iterations <==

   -------------------------------------------------------
    Irrep   Nso     Nmo     Nalpha   Nbeta   Ndocc  Nsocc
   -------------------------------------------------------
     A        805     805       0       0       0       0
   -------------------------------------------------------
    Total     805     805      49      49      49       0
   -------------------------------------------------------

  ==> Integral Setup <==

  ==> DFJK: Density-Fitted J/K Matrices <==

    J tasked:                  Yes
    K tasked:                  Yes
    wK tasked:                  No
    OpenMP threads:              8
    Integrals threads:           8
    Memory (MB):              3576
    Algorithm:                Disk
    Integral Cache:           NONE
    Schwarz Cutoff:          1E-12
    Fitting Condition:       1E-12

   => Auxiliary Basis Set <=

  Basis Set: (AUG-CC-PVTZ AUX)
    Blend: AUG-CC-PVTZ-JKFIT
    Number of shells: 518
    Number of basis function: 1778
    Number of Cartesian functions: 2219
    Spherical Harmonics?: true
    Max angular momentum: 4

  Minimum eigenvalue in the overlap matrix is 3.4984384498E-07.
  Using Symmetric Orthogonalization.

  SCF Guess: Orbitals guess was supplied from a previous computation.

  ==> Iterations <==

                           Total Energy        Delta E     RMS |[F,P]|

   @DF-RHF iter   0:  -649.71718876619605   -6.49717e+02   6.68575e-04 
   @DF-RHF iter   1:  -649.60614312013308    1.11046e-01   1.60664e-04 
   @DF-RHF iter   2:  -649.60692791595875   -7.84796e-04   1.08912e-04 DIIS
   @DF-RHF iter   3:  -649.60741546765553   -4.87552e-04   1.66713e-05 DIIS
   @DF-RHF iter   4:  -649.60742770752347   -1.22399e-05   5.29892e-06 DIIS
   @DF-RHF iter   5:  -649.60742992814460   -2.22062e-06   1.48330e-06 DIIS
   @DF-RHF iter   6:  -649.60743032356686   -3.95422e-07   9.38785e-07 DIIS
   @DF-RHF iter   7:  -649.60743046400103   -1.40434e-07   3.23768e-07 DIIS
   @DF-RHF iter   8:  -649.60743050804081   -4.40398e-08   1.35258e-07 DIIS
   @DF-RHF iter   9:  -649.60743051505926   -7.01846e-09   6.88441e-08 DIIS
   @DF-RHF iter  10:  -649.60743051616748   -1.10822e-09   2.29811e-08 DIIS
   @DF-RHF iter  11:  -649.60743051636609   -1.98611e-10   1.17338e-08 DIIS
   @DF-RHF iter  12:  -649.60743051641157   -4.54747e-11   6.03336e-09 DIIS
   @DF-RHF iter  13:  -649.60743051642930   -1.77351e-11   2.66136e-09 DIIS
   @DF-RHF iter  14:  -649.60743051639668    3.26281e-11   6.67251e-10 DIIS
   @DF-RHF iter  15:  -649.60743051641646   -1.97815e-11   3.00972e-10 DIIS
   @DF-RHF iter  16:  -649.60743051639702    1.94404e-11   1.13934e-10 DIIS
   @DF-RHF iter  17:  -649.60743051641873   -2.17142e-11   5.63737e-11 DIIS

  ==> Post-Iterations <==

    Orbital Energies (a.u.)
    -----------------------

    Doubly Occupied:                                                      

       1A    -26.194808     2A    -20.316363     3A    -15.442607  
       4A    -11.198613     5A    -11.162497     6A    -11.159065  
       7A    -11.147808     8A    -11.136772     9A    -11.116243  
      10A    -11.114496    11A    -11.104237    12A    -11.090017  
[...]
	 D(5,11,14,17)    =        -3.141289	    -179.982589
	 D(5,19,11,8)     =        -0.000043	      -0.002438
	 D(5,19,11,14)    =        -3.141488	    -179.994004
	 D(6,3,9,8)       =         3.140996	     179.965797
	 D(6,3,17,14)     =        -3.140927	    -179.961856
	 D(6,12,7,18)     =        -0.000322	      -0.018455
	 D(6,12,7,21)     =         3.141471	     179.993011
	 D(6,12,21,7)     =        -0.000184	      -0.010521
	 D(6,17,3,9)      =         3.141562	     179.998243
	 D(6,17,14,11)    =        -0.001567	      -0.089777
	 D(6,20,12,7)     =        -0.000795	      -0.045538
	 D(6,20,12,21)    =        -0.001710	      -0.098001
	 D(7,4,9,8)       =        -3.141341	    -179.985562
	 D(7,4,18,15)     =         3.141529	     179.996340
	 D(7,12,6,17)     =        -0.000100	      -0.005715
	 D(7,12,6,20)     =         3.141067	     179.969876
	 D(7,18,4,9)      =         3.141036	     179.968126
	 D(7,21,12,20)    =         0.001164	       0.066696
	 D(8,1,2,10)      =         0.000104	       0.005978
	 D(8,1,2,15)      =        -3.140866	    -179.958362
	 D(8,1,2,16)      =        -3.140510	    -179.937956
	 D(8,1,15,18)     =        -0.000856	      -0.049073
	 D(8,9,3,17)      =        -0.000566	      -0.032412
	 D(8,9,4,18)      =         0.000826	       0.047304
	 D(8,11,5,10)     =        -0.000255	      -0.014622
	 D(8,11,5,19)     =         3.141568	     179.998584
	 D(8,11,14,17)    =         0.000435	       0.024925
	 D(9,3,6,12)      =         0.000042	       0.002417
	 D(9,3,6,17)      =        -3.141563	    -179.998273
	 D(9,3,6,20)      =        -3.141099	    -179.971741
	 D(9,3,17,14)     =         0.000635	       0.036387
	 D(9,4,7,12)      =         0.000639	       0.036593
	 D(9,4,7,18)      =        -3.141031	    -179.967844
	 D(9,4,7,21)      =        -3.141086	    -179.970997
	 D(9,4,18,15)     =        -0.000620	      -0.035535
	 D(9,8,1,15)      =         0.001075	       0.061581
	 D(9,8,11,14)     =        -0.000411	      -0.023550
	 D(9,8,11,19)     =         3.141348	     179.985976
	 D(10,2,1,15)     =         3.140970	     179.964340
	 D(10,2,15,18)    =        -0.001368	      -0.078384
	 D(10,5,11,14)    =         3.141480	     179.993525
	 D(10,5,11,19)    =         3.141362	     179.986794
	 D(10,5,19,11)    =        -3.141368	    -179.987131
	 D(11,5,10,13)    =        -3.141346	    -179.985840
	 D(11,8,1,15)     =        -3.140870	    -179.958574
	 D(12,6,3,17)     =         3.141593	     180.000000
	 D(12,6,17,14)    =         0.001421	       0.081405
	 D(12,7,4,18)     =        -3.141515	    -179.995563
	 D(12,7,18,15)    =         0.000000	       0.000000
	 D(12,20,6,17)    =         3.141392	     179.988508
	 D(12,21,7,18)    =        -3.141496	    -179.994453
	 D(13,10,2,15)    =        -3.141208	    -179.977983
	 D(13,10,2,16)    =        -0.001137	      -0.065164
	 D(13,10,5,19)    =         0.000017	       0.000976
	 D(14,11,5,19)    =         0.000117	       0.006731
	 D(14,17,6,20)    =        -3.139787	    -179.896563
	 D(15,1,2,16)     =         0.000356	       0.020406
	 D(15,18,7,21)    =         3.141421	     179.990161
	 D(16,2,15,18)    =         3.141575	     179.998994
	 D(17,3,6,20)     =         0.000463	       0.026532
	 D(17,6,12,20)    =        -3.141167	    -179.975591
	 D(17,6,12,21)    =        -0.000000	      -0.000000
	 D(17,14,11,19)   =        -3.141236	    -179.979592
	 D(18,4,7,21)     =        -0.000055	      -0.003153
	 D(18,7,12,20)    =         0.000094	       0.005381
	 D(18,7,12,21)    =         3.141393	     179.988535
	 D(20,6,12,21)    =         3.141162	     179.975351
	 D(20,12,7,21)    =        -3.141299	    -179.983154

	Adding user-defined constraint: Fragment 1; Coordinate 59:
		Value =     3.141593; Fixed value    =    -3.141575
		Force =    -3.141584; Force constant =     0.500000
	Removing off-diagonal coupling between coordinate 59 and others.
	Taking RFO optimization step.
	Going to follow RFO solution 1.
	Using RFO vector 1.

	Determining step-restricting scale parameter for RS-RFO.
	Maximum step size allowed    0.10000

	 Iter      |step|        alpha        rfo_root  
	------------------------------------------------
	    0     0.96802       1.00000           1
	    1     0.58069       2.85360           1
	    2     0.35685       7.67063           1
	    3     0.22864      18.84396           1
	    4     0.15690      40.20871           1
	    5     0.11947      69.52133           1
	    6     0.10375      92.26674           1
	    7     0.10019      98.96724           1
	    8     0.10000      99.34867           1
	------------------------------------------------
	Norm of target step-size    0.10000
	Projected energy change by RFO approximation:        -0.1161513121

	Back-transformation to cartesian coordinates...
	Successfully converged to displaced geometry.

	--- Internal Coordinate Step in ANG or DEG, aJ/ANG or AJ/DEG ---
	 ---------------------------------------------------------------------------
	   Coordinate                Previous        Force       Change         New 
	   ----------                --------       ------       ------       ------
	    1 R(1,2)          =      1.372323    -0.004210    -0.000006     1.372316
	    2 R(1,8)          =      1.409903     0.004977     0.000126     1.410029
	    3 R(1,15)         =      1.079634     0.001917     0.000022     1.079656
	    4 R(2,10)         =      1.436862     0.002315     0.000011     1.436873
	    5 R(2,16)         =      1.080967     0.001972     0.000019     1.080986
	    6 R(3,6)          =      1.385380    -0.007034    -0.000019     1.385361
	    7 R(3,9)          =      1.407251     0.000612     0.000109     1.407361
	    8 R(3,17)         =      1.069762     0.006038     0.000044     1.069806
	    9 R(4,7)          =      1.380576    -0.000901    -0.000002     1.380574
	   10 R(4,9)          =      1.405277    -0.000994     0.000014     1.405291
	   11 R(4,18)         =      1.077440     0.000414     0.000011     1.077452
	   12 R(5,10)         =      1.432777     0.001070     0.000003     1.432780
	   13 R(5,11)         =      1.365405    -0.001686    -0.000005     1.365401
	   14 R(5,19)         =      1.079038     0.001266     0.000008     1.079046
	   15 R(6,12)         =      1.337629    -0.000901    -0.000006     1.337623
	   16 R(6,20)         =      1.083313    -0.000599     0.000006     1.083319
	   17 R(7,12)         =      1.338832     0.001791     0.000008     1.338839
	   18 R(7,21)         =      1.083341    -0.000742    -0.000002     1.083339
	   19 R(8,9)          =      1.442894    -0.006980    -0.000006     1.442889
	   20 R(8,11)         =      1.400031    -0.000636     0.000014     1.400046
	   21 R(10,13)        =      1.259503    -0.001429    -0.000007     1.259496
	   22 R(11,14)        =      1.367730     0.006226     0.000042     1.367772
	   23 B(1,2,10)       =    122.747726     0.000012     0.000445   122.748171
	   24 B(1,2,16)       =    119.703377     0.000026     0.002219   119.705596
	   25 B(1,8,9)        =    122.588337     0.000007    -0.002293   122.586044
	   26 B(1,8,11)       =    113.455784    -0.000063    -0.011842   113.443942
	   27 B(2,1,8)        =    123.404864     0.000034    -0.003028   123.401836
	   28 B(2,1,15)       =    117.616948    -0.000017    -0.002585   117.614363
	   29 B(2,10,5)       =    113.504134    -0.000035    -0.002743   113.501391
	   30 B(2,10,13)      =    123.360888     0.000020     0.001415   123.362302
	   31 B(3,6,12)       =    125.404389    -0.000020    -0.001405   125.402985
	   32 B(3,6,20)       =    118.992608    -0.000007     0.000144   118.992752
	   33 B(3,9,4)        =    114.105315    -0.000043    -0.010995   114.094319
	   34 B(3,9,8)        =    124.434678     0.000035    -0.001783   124.432896
	   35 B(4,7,12)       =    124.440607     0.000004    -0.000181   124.440426
	   36 B(4,7,21)       =    119.567164    -0.000010    -0.000268   119.566896
	   37 B(4,9,8)        =    121.459986     0.000025    -0.000652   121.459335
	   38 B(5,10,13)      =    123.134979     0.000015     0.001139   123.136117
	   39 B(5,11,8)       =    125.260159     0.000040     0.003376   125.263535
	   40 B(5,11,14)      =    117.033687    -0.000100    -0.007124   117.026563
	   41 B(6,3,9)        =    120.129690     0.000061    -0.001700   120.127991
	   42 B(6,3,17)       =    118.112405    -0.000005    -0.001963   118.110442
	   43 B(6,12,7)       =    114.616820    -0.000008    -0.001149   114.615671
	   44 B(7,4,9)        =    121.303169     0.000011     0.001533   121.304702
	   45 B(7,4,18)       =    118.234866    -0.000008    -0.001404   118.233462
	   46 B(8,1,15)       =    118.978175    -0.000029    -0.005602   118.972574
	   47 B(8,11,14)      =    117.706153     0.000060     0.003745   117.709898
	   48 B(9,3,17)       =    121.757904    -0.000056    -0.007548   121.750356
	   49 B(9,4,18)       =    120.461957    -0.000002    -0.000135   120.461823
	   50 B(9,8,11)       =    123.955875     0.000049     0.000987   123.956863
	   51 B(10,2,16)      =    117.548874    -0.000039    -0.002797   117.546078
	   52 B(10,5,11)      =    121.627331     0.000012     0.000273   121.627604
	   53 B(10,5,19)      =    119.098516    -0.000014    -0.000904   119.097612
	   54 B(11,5,19)      =    119.274152     0.000002     0.000493   119.274645
	   55 B(12,6,20)      =    115.602998     0.000027     0.001142   115.604140
	   56 B(12,7,21)      =    115.992229     0.000006     0.000316   115.992546
	   57 D(1,2,10,5)     =     -0.013867     0.000157     0.044109     0.030242
	   58 D(1,2,10,13)    =    179.989763    -0.000407    -0.113763   179.876001
	   59 D(1,8,9,3)      =    180.000000    -0.007647    -2.139560   177.860440
	   60 D(1,8,9,4)      =     -0.055594    -0.002394    -0.669796    -0.725390
	   61 D(1,8,11,5)     =      0.005120     0.003538     0.989555     0.994675
	   62 D(1,8,11,14)    =    179.996923     0.003648     1.020400   181.017323
	   63 D(2,1,8,9)      =   -179.980593    -0.000492    -0.137483  -180.118077
	   64 D(2,1,8,11)     =      0.000000    -0.004966    -1.389670    -1.389670
	   65 D(2,10,5,11)    =      0.017781    -0.001597    -0.447006    -0.429225
	   66 D(2,10,5,19)    =   -179.995403    -0.001061    -0.297030  -180.292433
	   67 D(3,6,12,7)     =     -0.005060     0.000082     0.023159     0.018099
	   68 D(3,9,4,7)      =     -0.035798     0.003647     1.020105     0.984307
	   69 D(3,9,4,18)     =    179.997068     0.003678     1.028876   181.025944
	   70 D(3,9,8,11)     =      0.022295    -0.002699    -0.755340    -0.733046
	   71 D(4,7,12,6)     =     -0.014334    -0.001605    -0.449116    -0.463450
	   72 D(4,9,3,6)      =      0.017752    -0.004985    -1.394587    -1.376835
	   73 D(4,9,3,17)     =   -179.980456    -0.000555    -0.155157  -180.135613
	   74 D(4,9,8,11)     =    179.966697     0.002554     0.714427   180.681124
	   75 D(5,10,2,16)    =    179.931206    -0.000160    -0.044775   179.886430
	   76 D(5,11,8,9)     =    179.984647    -0.001006    -0.281690   179.702956
	   77 D(6,3,9,8)      =    179.965797    -0.000076    -0.021217   179.944580
	   78 D(6,12,7,21)    =    179.993011    -0.001154    -0.322876   179.670135
	   79 D(7,4,9,8)      =   -179.985562    -0.001100    -0.307820  -180.293382
	   80 D(7,12,6,20)    =    179.969876    -0.000290    -0.081321   179.888555
	   81 D(8,1,2,10)     =      0.005978     0.003342     0.934861     0.940839
	   82 D(8,1,2,16)     =   -179.937956     0.003666     1.025596  -178.912359
	   83 D(8,9,3,17)     =     -0.032412     0.004354     1.218214     1.185802
	   84 D(8,9,4,18)     =      0.047304    -0.001069    -0.299049    -0.251745
	   85 D(8,11,5,10)    =     -0.014622    -0.000353    -0.098773    -0.113395
	   86 D(8,11,5,19)    =    179.998584    -0.000890    -0.249008   179.749576
	   87 D(9,3,6,12)     =      0.002417     0.003404     0.952201     0.954618
	   88 D(9,3,6,20)     =   -179.971741     0.003788     1.059920  -178.911822
	   89 D(9,4,7,12)     =      0.036593    -0.000381    -0.106643    -0.070051
	   90 D(9,4,7,21)     =   -179.970997    -0.000848    -0.237102  -180.208100
	   91 D(9,8,1,15)     =      0.061581     0.003824     1.069718     1.131298
	   92 D(9,8,11,14)    =     -0.023550    -0.000897    -0.250846    -0.274396
	   93 D(10,2,1,15)    =    179.964340    -0.000919    -0.257031   179.707309
	   94 D(10,5,11,14)   =    179.993525    -0.000462    -0.129429   179.864096
	   95 D(11,5,10,13)   =   -179.985840    -0.001035    -0.289542  -180.275383
	   96 D(11,8,1,15)    =   -179.958574    -0.000649    -0.181721  -180.140295
	   97 D(12,6,3,17)    =    180.000000    -0.000867    -0.242000   179.758000
	   98 D(12,7,4,18)    =   -179.995563    -0.000412    -0.115225  -180.110788
	   99 D(13,10,2,16)   =     -0.065164    -0.000724    -0.202647    -0.267811
	  100 D(13,10,5,19)   =      0.000976    -0.000498    -0.139566    -0.138591
	  101 D(14,11,5,19)   =      0.006731    -0.001000    -0.279663    -0.272932
	  102 D(15,1,2,16)    =      0.020406    -0.000595    -0.166296    -0.145890
	  103 D(17,3,6,20)    =      0.026532    -0.000483    -0.134971    -0.108439
	  104 D(18,4,7,21)    =     -0.003153    -0.000878    -0.245684    -0.248837
	  105 R(3,14)         =      2.659759     0.040095     0.000232     2.659990
	  106 R(1,X)          =     -1.354033     0.654269     0.003613    -1.350420
	  107 R(1,Y)          =      0.770974     1.186055     0.006474     0.777449
	  108 R(1,Z)          =     -0.739073     0.041493     0.000250    -0.738823
	  109 R(2,X)          =     -2.427275     0.466565     0.002567    -2.424708
	  110 R(2,Y)          =      1.342902     0.840532     0.004597     1.347499
	  111 R(2,Z)          =     -0.103212     0.026371     0.000155    -0.103056
	  112 R(3,X)          =      1.924714     0.709859     0.003850     1.928564
	  113 R(3,Y)          =     -1.058554     1.274145     0.006996    -1.051557
	  114 R(3,Z)          =     -0.101382     0.028996     0.000139    -0.101243
	  115 R(4,X)          =      0.920628    -0.609571    -0.003325     0.917303
	  116 R(4,Y)          =     -0.439663    -1.108224    -0.006078    -0.445741
	  117 R(4,Z)          =     -2.145714    -0.036116    -0.000190    -2.145904
	  118 R(5,X)          =     -1.467614    -0.075492    -0.000414    -1.468029
	  119 R(5,Y)          =      0.745266    -0.135269    -0.000742     0.744524
	  120 R(5,Z)          =      2.013718    -0.006500    -0.000038     2.013680
	  121 R(6,X)          =      2.954995     0.468357     0.002552     2.957546
	  122 R(6,Y)          =     -1.603489     0.842345     0.004622    -1.598867
	  123 R(6,Z)          =     -0.850278     0.023965     0.000121    -0.850157
	  124 R(7,X)          =      1.994042    -0.075705    -0.000414     1.993628
	  125 R(7,Y)          =     -1.010999    -0.138175    -0.000758    -1.011757
	  126 R(7,Z)          =     -2.799433    -0.005399    -0.000027    -2.799460
	  127 R(8,X)          =     -0.283475    -1.235607    -0.006783    -0.290258
	  128 R(8,Y)          =      0.158221    -2.254682    -0.012334     0.145887
	  129 R(8,Z)          =     -0.056238    -0.072862    -0.000406    -0.056644
	  130 R(9,X)          =      0.836945    -1.265585    -0.006908     0.830037
	  131 R(9,Y)          =     -0.437643    -2.292213    -0.012562    -0.450205
	  132 R(9,Z)          =     -0.742932    -0.074541    -0.000400    -0.743332
	  133 R(10,X)         =     -2.559171     0.035825     0.000198    -2.558973
	  134 R(10,Y)         =      1.369945     0.072685     0.000398     1.370343
	  135 R(10,Z)         =      1.327329     0.003497     0.000020     1.327348
	  136 R(11,X)         =     -0.420371    -0.599270    -0.003293    -0.423665
	  137 R(11,Y)         =      0.189103    -1.080263    -0.005910     0.183193
	  138 R(11,Z)         =      1.336742    -0.037002    -0.000210     1.336532
	  139 R(12,X)         =      3.027499     0.060070     0.000329     3.027827
	  140 R(12,Y)         =     -1.600967     0.102576     0.000563    -1.600403
	  141 R(12,Z)         =     -2.185939     0.001308     0.000007    -2.185931
	  142 R(13,X)         =     -3.538725     0.043420     0.000238    -3.538487
	  143 R(13,Y)         =      1.891677     0.083842     0.000461     1.892138
	  144 R(13,Z)         =      1.922826     0.003194     0.000016     1.922842
	  145 R(14,X)         =      0.571075    -0.429960    -0.002357     0.568718
	  146 R(14,Y)         =     -0.382191    -0.753615    -0.004128    -0.386319
	  147 R(14,Z)         =      2.085970    -0.000610    -0.000017     2.085953
	  148 R(15,X)         =     -1.339691     0.595033     0.003282    -1.336409
	  149 R(15,Y)         =      0.796889     1.081856     0.005911     0.802801
	  150 R(15,Z)         =     -1.818301     0.036287     0.000211    -1.818090
	  151 R(16,X)         =     -3.216416     0.504982     0.002775    -3.213641
	  152 R(16,Y)         =      1.795991     0.917711     0.005024     1.801015
	  153 R(16,Z)         =     -0.686698     0.030691     0.000170    -0.686528
	  154 R(17,X)         =      1.985858     0.679265     0.003694     1.989552
	  155 R(17,Y)         =     -1.126252     1.224736     0.006721    -1.119532
	  156 R(17,Z)         =      0.964483     0.033672     0.000175     0.964658
	  157 R(18,X)         =      0.141932    -0.501067    -0.002740     0.139192
	  158 R(18,Y)         =      0.009025    -0.912180    -0.005001     0.004024
	  159 R(18,Z)         =     -2.740010    -0.031026    -0.000163    -2.740174
	  160 R(19,X)         =     -1.474640     0.042387     0.000234    -1.474406
	  161 R(19,Y)         =      0.714539     0.077543     0.000422     0.714962
	  162 R(19,Z)         =      3.092295     0.001597     0.000007     3.092302
	  163 R(20,X)         =      3.783136     0.456362     0.002492     3.785628
	  164 R(20,Y)         =     -2.077513     0.827965     0.004542    -2.072971
	  165 R(20,Z)         =     -0.337394     0.028777     0.000157    -0.337237
	  166 R(21,X)         =      2.030078     0.075863     0.000413     2.030491
	  167 R(21,Y)         =     -0.996271     0.142631     0.000781    -0.995490
	  168 R(21,Z)         =     -3.882074     0.004208     0.000025    -3.882049
	 ---------------------------------------------------------------------------
	Successfully symmetrized geometry.
	 Forces used to impose fixed constraints are not included.
	  Forces zeroed: 59 

  ==> Convergence Check <==

  Measures of convergence in internal coordinates in au.
  Criteria marked as inactive (o), active & met (*), and active & unmet ( ).
  --------------------------------------------------------------------------------------------- ~
   Step     Total Energy     Delta E     MAX Force     RMS Force      MAX Disp      RMS Disp    ~
  --------------------------------------------------------------------------------------------- ~
    Convergence Criteria    1.00e-06 *    3.00e-04 *             o    1.20e-03 *             o  ~
  --------------------------------------------------------------------------------------------- ~
      1    -652.33490276   -6.52e+02      2.86e-01      8.40e-02 o    3.73e-02      7.72e-03 o  ~
  ---------------------------------------------------------------------------------------------

	Writing optimization data to binary file.
	
Fatal Error: PSIO Error
Error occurred in file: /scratch/psilocaluser/conda-builds/psi4_1495011512596/work/psi4/src/psi4/libpsio/error.cc on line: 129
The most recent 5 function calls were:

psi::PsiException::PsiException(std::__cxx11::basic_string<char, std::char_traits<char>, std::allocator<char> >, char const*, int)
psi::psio_error(unsigned int, unsigned int)
psi::PSIO::write(unsigned int, char const*, char*, unsigned long, psi::psio_address, psi::psio_address*)
psi::PSIO::write_entry(unsigned int, char const*, char*, unsigned long)
psi::psio_write_entry(unsigned int, char const*, char*, unsigned long)
