
    -----------------------------------------------------------------------
          Psi4: An Open-Source Ab Initio Electronic Structure Package
                               Psi4 1.1 release

                         Git: Rev {HEAD} add49b9 


    R. M. Parrish, L. A. Burns, D. G. A. Smith, A. C. Simmonett,
    A. E. DePrince III, E. G. Hohenstein, U. Bozkaya, A. Yu. Sokolov,
    R. Di Remigio, R. M. Richard, J. F. Gonthier, A. M. James,
    H. R. McAlexander, A. Kumar, M. Saitow, X. Wang, B. P. Pritchard,
    P. Verma, H. F. Schaefer III, K. Patkowski, R. A. King, E. F. Valeev,
    F. A. Evangelista, J. M. Turney, T. D. Crawford, and C. D. Sherrill,
    J. Chem. Theory Comput. in press (2017).
    (doi: 10.1021/acs.jctc.7b00174)

    -----------------------------------------------------------------------


    Psi4 started on: Sunday, 12 November 2017 04:18AM

    Process ID:    434
    PSIDATADIR: /cbio/jclab/home/chayas/anaconda/envs/py35/share/psi4
    Memory:     500.0 MiB
    Threads:    8
    
  ==> Input File <==

--------------------------------------------------------------------------

memory 5 Gb

molecule phepyrOH_anion {
  symmetry C1
  -1 1 
  C      1.885   -1.036   -0.112
  C      2.878   -1.652   2.002
  C      0.807   -0.463   0.561
  C      1.800   -1.079   2.676
  C      4.442   -1.721   -1.322
  C      4.718   -3.303   0.469
  C      5.520   -2.325   -1.949
  C      5.783   -3.837   -0.239
  C      2.921   -1.631   0.608
  C      4.040   -2.226   -0.090
  C      0.764   -0.484   1.955
  N      6.203   -3.374   -1.437
  O      -0.227   0.042   2.574
  H      1.904   -1.011   -1.199
  H      3.678   -2.112   2.577
  H      0.011   -0.006   -0.025
  H      1.791   -1.108   3.764
  H      3.939   -0.881   -1.789
  H      4.432   -3.724   1.428
  H      5.874   -1.968   -2.911
  H      6.344   -4.678   0.153
  units Angstrom
}

dih_string = "1 9 10 5 30"
set optking fixed_dihedral = $dih_string

optimize('MP2/aug-cc-PVTZ')
--------------------------------------------------------------------------

  Memory set to   4.657 GiB by Python driver.
gradient() will perform analytic gradient computation.

*** tstart() called on gpu-1-11.local
*** at Sun Nov 12 04:18:24 2017

    SCF Algorithm Type (re)set to DF.

*** tstart() called on gpu-1-11.local
*** at Sun Nov 12 04:18:24 2017

   => Loading Basis Set <=

    Name: AUG-CC-PVTZ
    Role: ORBITAL
    Keyword: BASIS
    atoms 1-11  entry C          line   221 file /cbio/jclab/home/chayas/anaconda/envs/py35/share/psi4/basis/aug-cc-pvtz.gbs 
    atoms 12    entry N          line   267 file /cbio/jclab/home/chayas/anaconda/envs/py35/share/psi4/basis/aug-cc-pvtz.gbs 
    atoms 13    entry O          line   313 file /cbio/jclab/home/chayas/anaconda/envs/py35/share/psi4/basis/aug-cc-pvtz.gbs 
    atoms 14-21 entry H          line    34 file /cbio/jclab/home/chayas/anaconda/envs/py35/share/psi4/basis/aug-cc-pvtz.gbs 


         ---------------------------------------------------------
                                   SCF
            by Justin Turney, Rob Parrish, and Andy Simmonett
                              RHF Reference
                        8 Threads,   4768 MiB Core
         ---------------------------------------------------------

  ==> Geometry <==

    Molecular point group: c1
    Full point group: C1

    Geometry (in Angstrom), charge = -1, multiplicity = 1:

       Center              X                  Y                   Z               Mass       
    ------------   -----------------  -----------------  -----------------  -----------------
           C         -1.279272895891     0.723771510520    -0.569308349993    12.000000000000
           C         -0.286272895891     0.107771510520     1.544691650007    12.000000000000
           C         -2.357272895891     1.296771510520     0.103691650007    12.000000000000
           C         -1.364272895891     0.680771510520     2.218691650007    12.000000000000
           C          1.277727104109     0.038771510520    -1.779308349993    12.000000000000
           C          1.553727104109    -1.543228489480     0.011691650007    12.000000000000
           C          2.355727104109    -0.565228489480    -2.406308349993    12.000000000000
           C          2.618727104109    -2.077228489480    -0.696308349993    12.000000000000
           C         -0.243272895891     0.128771510520     0.150691650007    12.000000000000
           C          0.875727104109    -0.466228489480    -0.547308349993    12.000000000000
           C         -2.400272895891     1.275771510520     1.497691650007    12.000000000000
           N          3.038727104109    -1.614228489480    -1.894308349993    14.003074004780
           O         -3.391272895891     1.801771510520     2.116691650007    15.994914619560
           H         -1.260272895891     0.748771510520    -1.656308349993     1.007825032070
           H          0.513727104109    -0.352228489480     2.119691650007     1.007825032070
           H         -3.153272895891     1.753771510520    -0.482308349993     1.007825032070
           H         -1.373272895891     0.651771510520     3.306691650007     1.007825032070
           H          0.774727104109     0.878771510520    -2.246308349993     1.007825032070
           H          1.267727104109    -1.964228489480     0.970691650007     1.007825032070
           H          2.709727104109    -0.208228489480    -3.368308349993     1.007825032070
           H          3.179727104109    -2.918228489480    -0.304308349993     1.007825032070

  Running in c1 symmetry.

  Rotational constants: A =      0.09732  B =      0.01393  C =      0.01240 [cm^-1]
  Rotational constants: A =   2917.66865  B =    417.73380  C =    371.63474 [MHz]
  Nuclear repulsion =  686.991696618250558

  Charge       = -1
  Multiplicity = 1
  Electrons    = 90
  Nalpha       = 45
  Nbeta        = 45

  ==> Algorithm <==

  SCF Algorithm Type is DF.
  DIIS enabled.
  MOM disabled.
  Fractional occupation disabled.
  Guess Type is SAD.
  Energy threshold   = 1.00e-10
  Density threshold  = 1.00e-10
  Integral threshold = 0.00e+00

  ==> Primary Basis <==

  Basis Set: AUG-CC-PVTZ
    Blend: AUG-CC-PVTZ
    Number of shells: 254
    Number of basis function: 782
    Number of Cartesian functions: 915
    Spherical Harmonics?: true
    Max angular momentum: 3

   => Loading Basis Set <=

    Name: (AUG-CC-PVTZ AUX)
    Role: JKFIT
    Keyword: DF_BASIS_SCF
    atoms 1-11  entry C          line   161 file /cbio/jclab/home/chayas/anaconda/envs/py35/share/psi4/basis/aug-cc-pvtz-jkfit.gbs 
    atoms 12    entry N          line   223 file /cbio/jclab/home/chayas/anaconda/envs/py35/share/psi4/basis/aug-cc-pvtz-jkfit.gbs 
    atoms 13    entry O          line   285 file /cbio/jclab/home/chayas/anaconda/envs/py35/share/psi4/basis/aug-cc-pvtz-jkfit.gbs 
    atoms 14-21 entry H          line    69 file /cbio/jclab/home/chayas/anaconda/envs/py35/share/psi4/basis/aug-cc-pvtz-jkfit.gbs 

  ==> Pre-Iterations <==

   -------------------------------------------------------
    Irrep   Nso     Nmo     Nalpha   Nbeta   Ndocc  Nsocc
   -------------------------------------------------------
     A        782     782       0       0       0       0
   -------------------------------------------------------
    Total     782     782      45      45      45       0
   -------------------------------------------------------

  ==> Integral Setup <==

  ==> DFJK: Density-Fitted J/K Matrices <==

    J tasked:                  Yes
    K tasked:                  Yes
    wK tasked:                  No
    OpenMP threads:              8
    Integrals threads:           8
    Memory (MB):              3576
    Algorithm:                Disk
    Integral Cache:           NONE
    Schwarz Cutoff:          1E-12
    Fitting Condition:       1E-12

   => Auxiliary Basis Set <=

  Basis Set: (AUG-CC-PVTZ AUX)
    Blend: AUG-CC-PVTZ-JKFIT
    Number of shells: 502
    Number of basis function: 1720
    Number of Cartesian functions: 2143
    Spherical Harmonics?: true
    Max angular momentum: 4

  Minimum eigenvalue in the overlap matrix is 6.7781003521E-07.
  Using Symmetric Orthogonalization.

  SCF Guess: Superposition of Atomic Densities via on-the-fly atomic UHF.

  ==> Iterations <==

                           Total Energy        Delta E     RMS |[F,P]|

   @DF-RHF iter   0:  -560.29116213704435   -5.60291e+02   1.64067e-02 
   @DF-RHF iter   1:  -550.27506176132408    1.00161e+01   2.21509e-03 
   @DF-RHF iter   2:  -550.59390388298618   -3.18842e-01   1.62918e-03 DIIS
   @DF-RHF iter   3:  -550.69171544035521   -9.78116e-02   5.98380e-04 DIIS
   @DF-RHF iter   4:  -550.71290385154123   -2.11884e-02   1.09626e-04 DIIS
   @DF-RHF iter   5:  -550.71521634024793   -2.31249e-03   6.75629e-05 DIIS
   @DF-RHF iter   6:  -550.71572788015987   -5.11540e-04   3.19831e-05 DIIS
   @DF-RHF iter   7:  -550.71585181795786   -1.23938e-04   9.49857e-06 DIIS
   @DF-RHF iter   8:  -550.71587575389515   -2.39359e-05   4.03177e-06 DIIS
   @DF-RHF iter   9:  -550.71588267537879   -6.92148e-06   2.34231e-06 DIIS
   @DF-RHF iter  10:  -550.71588458025280   -1.90487e-06   9.00046e-07 DIIS
   @DF-RHF iter  11:  -550.71588492420437   -3.43952e-07   2.69510e-07 DIIS
   @DF-RHF iter  12:  -550.71588495237836   -2.81740e-08   1.40628e-07 DIIS
   @DF-RHF iter  13:  -550.71588495503408   -2.65572e-09   5.85517e-08 DIIS
   @DF-RHF iter  14:  -550.71588495558910   -5.55019e-10   1.81177e-08 DIIS
   @DF-RHF iter  15:  -550.71588495566652   -7.74207e-11   8.18607e-09 DIIS
   @DF-RHF iter  16:  -550.71588495567539   -8.86757e-12   4.78044e-09 DIIS
   @DF-RHF iter  17:  -550.71588495567767   -2.27374e-12   1.51273e-09 DIIS
   @DF-RHF iter  18:  -550.71588495567971   -2.04636e-12   7.73372e-10 DIIS
   @DF-RHF iter  19:  -550.71588495567460    5.11591e-12   2.49650e-10 DIIS
   @DF-RHF iter  20:  -550.71588495567130    3.29692e-12   1.34030e-10 DIIS
   @DF-RHF iter  21:  -550.71588495566778    3.52429e-12   5.69512e-11 DIIS

  ==> Post-Iterations <==

    Orbital Energies (a.u.)
    -----------------------

    Doubly Occupied:                                                      

       1A    -20.298540     2A    -15.447571     3A    -11.166617  
       4A    -11.166457     5A    -11.142923     6A    -11.117473  
       7A    -11.117371     8A    -11.116561     9A    -11.100677  
      10A    -11.100638    11A    -11.075393    12A    -11.061799  
      13A    -11.061757    14A     -1.137233    15A     -1.129918  
      16A     -1.019670    17A     -0.957095    18A     -0.922674  
      19A     -0.868642    20A     -0.837873    21A     -0.747098  
      22A     -0.732160    23A     -0.679918    24A     -0.648346  
      25A     -0.597131    26A     -0.549942    27A     -0.543744  
      28A     -0.500862    29A     -0.491579    30A     -0.482878  
      31A     -0.482336    32A     -0.442892    33A     -0.429515  
      34A     -0.409017    35A     -0.408047    36A     -0.380245  
      37A     -0.356578    38A     -0.351423    39A     -0.310548  
      40A     -0.306598    41A     -0.244925    42A     -0.241834  
      43A     -0.215647    44A     -0.199092    45A     -0.106062  

    Virtual:                                                              

      46A      0.098990    47A      0.099690    48A      0.116718  
      49A      0.116767    50A      0.125556    51A      0.128349  
      52A      0.133458    53A      0.134208    54A      0.163538  
      55A      0.166042    56A      0.177346    57A      0.184036  
      58A      0.186186    59A      0.189210    60A      0.189488  
      61A      0.197774    62A      0.199183    63A      0.206670  
      64A      0.207927    65A      0.212324    66A      0.213515  
      67A      0.213908    68A      0.221005    69A      0.226306  
      70A      0.231476    71A      0.232602    72A      0.237559  
      73A      0.238810    74A      0.239972    75A      0.247583  
      76A      0.251006    77A      0.252004    78A      0.260061  
      79A      0.263900    80A      0.267585    81A      0.269594  
      82A      0.277337    83A      0.281839    84A      0.291620  
      85A      0.293066    86A      0.300699    87A      0.315802  
      88A      0.316999    89A      0.318855    90A      0.323874  
      91A      0.324246    92A      0.327373    93A      0.331954  
      94A      0.334824    95A      0.337271    96A      0.344231  
      97A      0.347813    98A      0.351675    99A      0.366163  
     100A      0.366645   101A      0.375032   102A      0.376800  
     103A      0.381216   104A      0.384111   105A      0.391008  
     106A      0.391194   107A      0.398084   108A      0.400506  
     109A      0.405429   110A      0.413716   111A      0.417527  
     112A      0.422248   113A      0.424061   114A      0.428664  
     115A      0.430656   116A      0.432653   117A      0.441932  
     118A      0.442089   119A      0.451078   120A      0.463073  
     121A      0.463302   122A      0.471176   123A      0.474771  
     124A      0.479784   125A      0.483159   126A      0.489304  
     127A      0.489733   128A      0.506761   129A      0.510490  
     130A      0.515208   131A      0.516208   132A      0.520301  
     133A      0.533561   134A      0.538665   135A      0.545337  
     136A      0.546088   137A      0.555419   138A      0.560025  
     139A      0.560133   140A      0.562208   141A      0.566705  
     142A      0.574858   143A      0.575042   144A      0.578797  
     145A      0.581576   146A      0.583248   147A      0.589912  
     148A      0.590602   149A      0.598073   150A      0.599426  
     151A      0.602386   152A      0.603925   153A      0.609611  
     154A      0.615112   155A      0.615725   156A      0.625403  
     157A      0.626196   158A      0.629981   159A      0.630355  
     160A      0.636323   161A      0.637509   162A      0.644746  
     163A      0.645970   164A      0.650223   165A      0.654730  
     166A      0.658553   167A      0.664343   168A      0.668212  
     169A      0.672632   170A      0.672961   171A      0.682754  
     172A      0.690610   173A      0.699357   174A      0.701882  
     175A      0.702512   176A      0.704742   177A      0.719726  
     178A      0.720505   179A      0.730463   180A      0.735469  
     181A      0.742755   182A      0.747028   183A      0.750406  
     184A      0.760566   185A      0.766948   186A      0.777888  
     187A      0.787663   188A      0.796070   189A      0.802519  
     190A      0.805622   191A      0.809043   192A      0.809497  
     193A      0.813212   194A      0.831738   195A      0.832267  
     196A      0.838668   197A      0.839796   198A      0.843938  
     199A      0.844266   200A      0.859423   201A      0.860365  
     202A      0.863691   203A      0.868303   204A      0.869787  
     205A      0.877179   206A      0.885833   207A      0.894400  
     208A      0.901289   209A      0.906689   210A      0.915605  
     211A      0.920819   212A      0.921446   213A      0.939337  
     214A      0.949998   215A      0.955385   216A      0.961922  
     217A      0.963298   218A      0.975862   219A      0.979502  
     220A      0.984139   221A      0.989019   222A      0.991590  
     223A      0.998485   224A      1.001111   225A      1.001901  
     226A      1.010029   227A      1.013114   228A      1.020134  
     229A      1.020554   230A      1.022499   231A      1.031733  
     232A      1.035207   233A      1.042867   234A      1.049373  
     235A      1.055591   236A      1.059013   237A      1.068067  
     238A      1.068870   239A      1.072834   240A      1.074291  
     241A      1.081517   242A      1.090405   243A      1.093232  
     244A      1.097146   245A      1.102795   246A      1.105156  
     247A      1.112171   248A      1.112298   249A      1.121506  
     250A      1.122560   251A      1.127398   252A      1.133706  
     253A      1.138675   254A      1.138954   255A      1.145697  
     256A      1.146670   257A      1.147812   258A      1.155430  
     259A      1.161618   260A      1.170514   261A      1.173031  
     262A      1.177861   263A      1.179019   264A      1.182727  
     265A      1.186211   266A      1.194051   267A      1.199201  
     268A      1.205010   269A      1.208866   270A      1.213421  
     271A      1.219756   272A      1.222739   273A      1.230563  
     274A      1.236887   275A      1.239822   276A      1.242009  
     277A      1.255971   278A      1.258614   279A      1.263773  
     280A      1.267982   281A      1.271871   282A      1.281120  
     283A      1.292310   284A      1.296486   285A      1.297687  
     286A      1.299670   287A      1.304250   288A      1.306574  
     289A      1.315441   290A      1.318253   291A      1.321084  
     292A      1.321318   293A      1.331897   294A      1.335477  
     295A      1.340573   296A      1.345448   297A      1.349183  
     298A      1.351915   299A      1.360186   300A      1.361257  
     301A      1.367008   302A      1.380835   303A      1.384829  
     304A      1.389028   305A      1.394444   306A      1.403313  
     307A      1.406076   308A      1.419598   309A      1.422852  
     310A      1.437771   311A      1.439295   312A      1.445045  
     313A      1.461702   314A      1.462055   315A      1.475105  
     316A      1.478753   317A      1.486178   318A      1.487217  
     319A      1.489305   320A      1.502472   321A      1.506648  
     322A      1.519102   323A      1.532340   324A      1.537538  
     325A      1.559321   326A      1.561940   327A      1.571986  
     328A      1.577949   329A      1.579073   330A      1.586343  
     331A      1.596108   332A      1.605573   333A      1.616659  
     334A      1.630659   335A      1.631432   336A      1.642974  
     337A      1.644218   338A      1.654748   339A      1.663819  
     340A      1.669879   341A      1.670630   342A      1.678795  
     343A      1.705543   344A      1.707938   345A      1.710193  
     346A      1.718901   347A      1.736205   348A      1.738175  
     349A      1.749171   350A      1.763973   351A      1.767059  
     352A      1.770518   353A      1.782922   354A      1.795249  
     355A      1.796739   356A      1.811579   357A      1.818504  
     358A      1.825930   359A      1.830042   360A      1.830132  
     361A      1.839785   362A      1.848778   363A      1.857003  
     364A      1.858186   365A      1.861755   366A      1.877799  
     367A      1.879391   368A      1.892671   369A      1.910803  
     370A      1.913793   371A      1.922413   372A      1.936468  
     373A      1.937302   374A      1.946969   375A      1.949098  
     376A      1.962420   377A      1.971058   378A      1.979812  
     379A      1.985656   380A      1.989421   381A      1.997565  
     382A      2.010638   383A      2.026767   384A      2.036754  
     385A      2.039246   386A      2.046591   387A      2.052426  
     388A      2.058081   389A      2.073301   390A      2.084749  
     391A      2.095168   392A      2.102459   393A      2.103455  
     394A      2.105561   395A      2.115714   396A      2.120624  
     397A      2.121916   398A      2.137526   399A      2.146426  
     400A      2.153910   401A      2.158891   402A      2.166941  
     403A      2.167381   404A      2.176154   405A      2.181613  
     406A      2.184776   407A      2.200343   408A      2.202401  
     409A      2.213674   410A      2.220203   411A      2.234649  
     412A      2.237227   413A      2.237515   414A      2.247546  
     415A      2.257154   416A      2.258765   417A      2.271758  
     418A      2.275568   419A      2.296700   420A      2.304451  
     421A      2.308104   422A      2.323151   423A      2.324546  
     424A      2.330090   425A      2.332176   426A      2.352464  
     427A      2.360099   428A      2.366003   429A      2.376752  
     430A      2.383606   431A      2.406971   432A      2.416152  
     433A      2.433833   434A      2.434870   435A      2.439773  
     436A      2.458811   437A      2.465765   438A      2.476660  
     439A      2.495243   440A      2.495668   441A      2.503099  
     442A      2.510052   443A      2.518246   444A      2.520482  
     445A      2.533379   446A      2.548540   447A      2.550138  
     448A      2.558782   449A      2.563062   450A      2.589941  
     451A      2.598080   452A      2.618643   453A      2.622507  
     454A      2.628401   455A      2.652262   456A      2.659133  
     457A      2.678972   458A      2.682007   459A      2.685788  
     460A      2.691741   461A      2.708504   462A      2.711621  
     463A      2.724665   464A      2.726468   465A      2.759631  
     466A      2.762793   467A      2.774703   468A      2.791588  
     469A      2.826972   470A      2.835418   471A      2.838915  
     472A      2.872788   473A      2.896528   474A      2.905342  
     475A      2.917452   476A      2.927048   477A      2.929403  
     478A      2.945250   479A      2.975065   480A      2.980573  
     481A      3.001283   482A      3.007922   483A      3.039828  
     484A      3.055189   485A      3.077901   486A      3.105961  
     487A      3.114910   488A      3.135076   489A      3.152074  
     490A      3.172182   491A      3.187324   492A      3.204396  
     493A      3.250389   494A      3.258745   495A      3.271829  
     496A      3.309442   497A      3.319823   498A      3.324608  
     499A      3.350286   500A      3.355373   501A      3.372044  
     502A      3.390659   503A      3.394028   504A      3.429874  
     505A      3.446054   506A      3.449563   507A      3.468089  
     508A      3.480559   509A      3.490102   510A      3.493560  
     511A      3.502222   512A      3.512436   513A      3.526066  
     514A      3.537631   515A      3.542401   516A      3.548126  
     517A      3.558244   518A      3.561305   519A      3.584167  
     520A      3.591429   521A      3.593687   522A      3.617843  
     523A      3.636193   524A      3.651020   525A      3.662046  
     526A      3.667524   527A      3.667720   528A      3.669236  
     529A      3.675975   530A      3.676165   531A      3.691537  
     532A      3.696304   533A      3.696856   534A      3.709832  
     535A      3.723498   536A      3.739902   537A      3.740547  
     538A      3.746580   539A      3.759377   540A      3.760404  
     541A      3.782631   542A      3.786998   543A      3.798645  
     544A      3.810022   545A      3.820887   546A      3.825971  
     547A      3.834621   548A      3.835290   549A      3.861382  
     550A      3.865213   551A      3.893052   552A      3.903183  
     553A      3.910352   554A      3.917146   555A      3.917473  
     556A      3.928630   557A      3.942457   558A      3.947865  
     559A      3.948237   560A      3.959249   561A      3.963168  
     562A      3.969989   563A      3.992292   564A      4.004196  
     565A      4.014332   566A      4.031366   567A      4.033699  
     568A      4.035355   569A      4.040778   570A      4.055031  
     571A      4.066541   572A      4.071161   573A      4.079185  
     574A      4.089679   575A      4.094812   576A      4.107590  
     577A      4.126265   578A      4.131877   579A      4.139801  
     580A      4.151023   581A      4.151698   582A      4.159547  
     583A      4.160328   584A      4.169740   585A      4.176799  
     586A      4.176834   587A      4.195696   588A      4.210175  
     589A      4.222218   590A      4.231764   591A      4.245128  
     592A      4.245289   593A      4.254568   594A      4.271121  
     595A      4.273127   596A      4.288844   597A      4.298129  
     598A      4.306683   599A      4.317529   600A      4.337952  
     601A      4.351511   602A      4.357359   603A      4.364963  
     604A      4.369944   605A      4.379865   606A      4.383201  
     607A      4.391657   608A      4.410003   609A      4.427141  
     610A      4.433879   611A      4.442264   612A      4.445335  
     613A      4.465461   614A      4.465888   615A      4.479410  
     616A      4.486147   617A      4.493921   618A      4.502976  
     619A      4.515579   620A      4.517270   621A      4.530483  
     622A      4.532459   623A      4.542181   624A      4.546037  
     625A      4.561316   626A      4.574429   627A      4.575442  
     628A      4.587050   629A      4.597264   630A      4.602121  
     631A      4.616077   632A      4.631316   633A      4.638263  
     634A      4.652250   635A      4.654987   636A      4.669633  
     637A      4.688019   638A      4.688414   639A      4.709154  
     640A      4.739142   641A      4.762475   642A      4.766073  
     643A      4.769592   644A      4.779866   645A      4.793697  
     646A      4.829168   647A      4.833917   648A      4.840020  
     649A      4.863347   650A      4.884323   651A      4.895739  
     652A      4.898084   653A      4.912389   654A      4.936311  
     655A      4.941046   656A      4.970693   657A      4.984635  
     658A      4.999879   659A      5.012224   660A      5.020902  
     661A      5.035703   662A      5.046212   663A      5.062959  
     664A      5.067622   665A      5.080834   666A      5.098694  
     667A      5.104246   668A      5.121674   669A      5.137302  
     670A      5.160701   671A      5.170083   672A      5.178259  
     673A      5.183267   674A      5.202186   675A      5.212734  
     676A      5.223534   677A      5.238638   678A      5.247747  
     679A      5.266497   680A      5.267985   681A      5.275836  
     682A      5.284392   683A      5.285859   684A      5.293013  
     685A      5.307441   686A      5.315994   687A      5.326994  
     688A      5.336044   689A      5.365529   690A      5.382255  
     691A      5.389357   692A      5.413481   693A      5.440202  
     694A      5.452641   695A      5.463566   696A      5.472726  
     697A      5.485150   698A      5.494998   699A      5.515095  
     700A      5.552581   701A      5.553815   702A      5.563693  
     703A      5.568191   704A      5.605750   705A      5.607398  
     706A      5.628970   707A      5.652186   708A      5.672353  
     709A      5.682394   710A      5.703759   711A      5.730669  
     712A      5.755469   713A      5.819985   714A      5.827089  
     715A      5.830777   716A      5.874557   717A      5.884410  
     718A      5.911898   719A      5.915021   720A      5.946456  
     721A      5.952773   722A      5.969939   723A      5.987762  
     724A      5.996063   725A      6.025908   726A      6.072165  
     727A      6.108332   728A      6.197439   729A      6.257991  
     730A      6.259415   731A      6.300934   732A      6.306600  
     733A      6.347172   734A      6.385953   735A      6.418452  
     736A      6.437948   737A      6.522138   738A      6.569439  
     739A      6.593879   740A      6.604293   741A      6.622191  
     742A      6.650868   743A      6.743719   744A      6.747839  
     745A      6.822749   746A      6.835459   747A      6.851506  
     748A      6.867759   749A      6.899172   750A      6.987596  
     751A      6.996467   752A      7.051040   753A      7.059046  
     754A      7.073495   755A      7.115824   756A      7.188310  
     757A      7.210126   758A      7.247153   759A      7.311629  
     760A      7.359382   761A      7.363603   762A      7.546676  
     763A      7.615953   764A      7.644585   765A      7.935014  
     766A      7.945096   767A      8.027079   768A      8.147344  
     769A      8.221338   770A     15.766938   771A     16.107244  
     772A     16.518193   773A     16.869288   774A     17.088934  
     775A     18.546676   776A     18.981962   777A     19.296511  
     778A     19.910603   779A     20.148141   780A     20.319866  
     781A     20.703047   782A     21.837223  

    Final Occupation by Irrep:
              A 
    DOCC [    45 ]

  Energy converged.

  @DF-RHF Final Energy:  -550.71588495566778

   => Energetics <=

    Nuclear Repulsion Energy =            686.9916966182505575
    One-Electron Energy =               -2124.0045633656850441
    Two-Electron Energy =                 886.2969817917668252
    DFT Exchange-Correlation Energy =       0.0000000000000000
    Empirical Dispersion Energy =           0.0000000000000000
    PCM Polarization Energy =               0.0000000000000000
    EFP Energy =                            0.0000000000000000
    Total Energy =                       -550.7158849556677751



Properties will be evaluated at   0.000000,   0.000000,   0.000000 Bohr

Properties computed using the SCF density matrix

  Nuclear Dipole Moment: (a.u.)
     X:     2.4674      Y:    -1.3083      Z:    -1.5410

  Electronic Dipole Moment: (a.u.)
     X:     0.2521      Y:    -0.1362      Z:    -0.1573

  Dipole Moment: (a.u.)
     X:     2.7196      Y:    -1.4445      Z:    -1.6983     Total:     3.5167

  Dipole Moment: (Debye)
     X:     6.9125      Y:    -3.6717      Z:    -4.3166     Total:     8.9385


*** tstop() called on gpu-1-11.local at Sun Nov 12 04:25:51 2017
Module time:
	user time   =    1082.50 seconds =      18.04 minutes
	system time =      50.87 seconds =       0.85 minutes
	total time  =        447 seconds =       7.45 minutes
Total time:
	user time   =    1082.50 seconds =      18.04 minutes
	system time =      50.87 seconds =       0.85 minutes
	total time  =        447 seconds =       7.45 minutes

  //>>>>>>>>>>>>>>>>>>>>>>>>>>>>>>>>>>>//
  //               DFMP2               //
  //<<<<<<<<<<<<<<<<<<<<<<<<<<<<<<<<<<<//

   => Loading Basis Set <=

    Name: (AUG-CC-PVTZ AUX)
    Role: RIFIT
    Keyword: DF_BASIS_MP2
    atoms 1-11  entry C          line   147 file /cbio/jclab/home/chayas/anaconda/envs/py35/share/psi4/basis/aug-cc-pvtz-ri.gbs 
    atoms 12    entry N          line   205 file /cbio/jclab/home/chayas/anaconda/envs/py35/share/psi4/basis/aug-cc-pvtz-ri.gbs 
    atoms 13    entry O          line   263 file /cbio/jclab/home/chayas/anaconda/envs/py35/share/psi4/basis/aug-cc-pvtz-ri.gbs 
    atoms 14-21 entry H          line    29 file /cbio/jclab/home/chayas/anaconda/envs/py35/share/psi4/basis/aug-cc-pvtz-ri.gbs 

	 --------------------------------------------------------
	                          DF-MP2                         
	      2nd-Order Density-Fitted Moller-Plesset Theory     
	              RMP2 Wavefunction,   8 Threads             
	                                                         
	        Rob Parrish, Justin Turney, Andy Simmonett,      
	           Ed Hohenstein, and C. David Sherrill          
	 --------------------------------------------------------

   => Auxiliary Basis Set <=

  Basis Set: (AUG-CC-PVTZ AUX)
    Blend: AUG-CC-PVTZ-RI
    Number of shells: 476
    Number of basis function: 1746
    Number of Cartesian functions: 2208
    Spherical Harmonics?: true
    Max angular momentum: 4

	 --------------------------------------------------------
	                 NBF =   782, NAUX =  1746
	 --------------------------------------------------------
	   CLASS    FOCC     OCC    AOCC    AVIR     VIR    FVIR
	   PAIRS       0      45      45     737     737       0
	 --------------------------------------------------------


         ------------------------------------------------------------
                                     CPHF                           
                                  Rob Parrish                       
         ------------------------------------------------------------

  ==> Geometry <==

    Molecular point group: c1
    Full point group: C1

    Geometry (in Angstrom), charge = -1, multiplicity = 1:

       Center              X                  Y                   Z               Mass       
    ------------   -----------------  -----------------  -----------------  -----------------
           C         -1.279272895891     0.723771510520    -0.569308349993    12.000000000000
           C         -0.286272895891     0.107771510520     1.544691650007    12.000000000000
           C         -2.357272895891     1.296771510520     0.103691650007    12.000000000000
           C         -1.364272895891     0.680771510520     2.218691650007    12.000000000000
           C          1.277727104109     0.038771510520    -1.779308349993    12.000000000000
           C          1.553727104109    -1.543228489480     0.011691650007    12.000000000000
           C          2.355727104109    -0.565228489480    -2.406308349993    12.000000000000
           C          2.618727104109    -2.077228489480    -0.696308349993    12.000000000000
           C         -0.243272895891     0.128771510520     0.150691650007    12.000000000000
           C          0.875727104109    -0.466228489480    -0.547308349993    12.000000000000
           C         -2.400272895891     1.275771510520     1.497691650007    12.000000000000
           N          3.038727104109    -1.614228489480    -1.894308349993    14.003074004780
           O         -3.391272895891     1.801771510520     2.116691650007    15.994914619560
           H         -1.260272895891     0.748771510520    -1.656308349993     1.007825032070
           H          0.513727104109    -0.352228489480     2.119691650007     1.007825032070
           H         -3.153272895891     1.753771510520    -0.482308349993     1.007825032070
           H         -1.373272895891     0.651771510520     3.306691650007     1.007825032070
           H          0.774727104109     0.878771510520    -2.246308349993     1.007825032070
           H          1.267727104109    -1.964228489480     0.970691650007     1.007825032070
           H          2.709727104109    -0.208228489480    -3.368308349993     1.007825032070
           H          3.179727104109    -2.918228489480    -0.304308349993     1.007825032070

  Nuclear repulsion =  686.991696618250558
  Reference energy  = -550.715884955667775

  ==> Basis Set <==

  Basis Set: AUG-CC-PVTZ
    Blend: AUG-CC-PVTZ
    Number of shells: 254
    Number of basis function: 782
    Number of Cartesian functions: 915
    Spherical Harmonics?: true
    Max angular momentum: 3

  ==> CGRSolver (by Rob Parrish) <==

   Number of roots    =         1
   Preconditioning    =    JACOBI
   Convergence cutoff =     1E-06
   Maximum iterations =       100

  ==> CPHFRHamiltonian (by Rob Parrish) <== 

  ==> DFJK: Density-Fitted J/K Matrices <==

    J tasked:                  Yes
    K tasked:                  Yes
    wK tasked:                  No
    OpenMP threads:              8
    Integrals threads:           8
    Memory (MB):              3576
    Algorithm:                Disk
    Integral Cache:           NONE
    Schwarz Cutoff:          1E-12
    Fitting Condition:       1E-12

   => Auxiliary Basis Set <=

  Basis Set: (AUG-CC-PVTZ AUX)
    Blend: AUG-CC-PVTZ-JKFIT
    Number of shells: 502
    Number of basis function: 1720
    Number of Cartesian functions: 2143
    Spherical Harmonics?: true
    Max angular momentum: 4

  ==> CPHF Iterations <==

  => Iterations <=

             Iter  Converged  Remaining    Residual
  CGR           1          0          1   1.392E-01
  CGR           2          0          1   5.442E-02
  CGR           3          0          1   3.206E-02
  CGR           4          0          1   1.141E-02
  CGR           5          0          1   5.500E-03
  CGR           6          0          1   3.014E-03
  CGR           7          0          1   8.799E-04
  CGR           8          0          1   2.860E-04
  CGR           9          0          1   1.108E-04
  CGR          10          0          1   3.319E-05
  CGR          11          0          1   1.264E-05
  CGR          12          0          1   5.017E-06
  CGR          13          0          1   2.254E-06
  CGR          14          1          0   9.562E-07

    CGRSolver converged.

  ==> DFCorrGrad: Density-Fitted Correlated Gradients <==

    OpenMP threads:              8
    Integrals threads:           8
    Memory (MB):              3576
    Schwarz Cutoff:          0E+00
    Fitting Condition:       1E-12

   => Auxiliary Basis Set <=

  Basis Set: (AUG-CC-PVTZ AUX)
    Blend: AUG-CC-PVTZ-JKFIT
    Number of shells: 502
    Number of basis function: 1720
    Number of Cartesian functions: 2143
    Spherical Harmonics?: true
    Max angular momentum: 4

	-----------------------------------------------------------
	 ==================> DF-MP2 Energies <==================== 
	-----------------------------------------------------------
	 Reference Energy          =    -550.7158849556677751 [Eh]
	 Singles Energy            =      -0.0000000000000001 [Eh]
	 Same-Spin Energy          =      -0.6140445894633849 [Eh]
	 Opposite-Spin Energy      =      -1.8386499872455158 [Eh]
	 Correlation Energy        =      -2.4526945767089008 [Eh]
	 Total Energy              =    -553.1685795323767252 [Eh]
	-----------------------------------------------------------
	 ================> DF-SCS-MP2 Energies <================== 
	-----------------------------------------------------------
	 SCS Same-Spin Scale       =       0.3333333333333333 [-]
	 SCS Opposite-Spin Scale   =       1.2000000000000000 [-]
	 SCS Same-Spin Energy      =      -0.2046815298211283 [Eh]
	 SCS Opposite-Spin Energy  =      -2.2063799846946188 [Eh]
	 SCS Correlation Energy    =      -2.4110615145157470 [Eh]
	 SCS Total Energy          =    -553.1269464701834977 [Eh]
	-----------------------------------------------------------


  -Total Gradient:
     Atom            X                  Y                   Z
    ------   -----------------  -----------------  -----------------
       1        0.015164927534    -0.013066902367    -0.007615743085
       2        0.017347264138    -0.004199189197    -0.012719805604
       3       -0.023510583760     0.011505713308     0.039225576059
       4       -0.041265090906     0.022776718360     0.002108388285
       5       -0.013122851860     0.010367614044     0.009220031578
       6       -0.015946373754     0.005835521841     0.008196112020
       7       -0.004202326703     0.008292187824    -0.002674617686
       8       -0.003593525567    -0.004299688318     0.007450013014
       9       -0.014624703544     0.007787790487     0.009135503615
      10        0.023146952868    -0.012738078033    -0.014040419926
      11        0.049901258043    -0.026337575630    -0.031681437742
      12        0.006587663354    -0.003900330797    -0.003474356155
      13       -0.000353713647     0.000120200435     0.000297106211
      14       -0.000561862206     0.002356904522    -0.003940191200
      15        0.001319543066    -0.002744890169     0.003342674119
      16       -0.001563390035     0.001916913513    -0.008926786431
      17        0.005117225287    -0.003796475849     0.006360321922
      18       -0.002357265639     0.002861451918    -0.004338536457
      19        0.000674681215    -0.002237954851     0.005781541589
      20        0.000712279737     0.000014831691    -0.001768418778
      21        0.001129892375    -0.000514762730     0.000063044655


*** tstop() called on gpu-1-11.local at Sun Nov 12 04:54:30 2017
Module time:
	user time   =    4741.36 seconds =      79.02 minutes
	system time =     104.51 seconds =       1.74 minutes
	total time  =       2166 seconds =      36.10 minutes
Total time:
	user time   =    4741.36 seconds =      79.02 minutes
	system time =     104.51 seconds =       1.74 minutes
	total time  =       2166 seconds =      36.10 minutes

			-----------------------------------------
			 OPTKING 2.0: for geometry optimizations 
			  - R.A. King,  Bethel University        
			-----------------------------------------

	Internal coordinates to be generated automatically.
	Detected frag 1 with atoms:  1 2 3 4 5 6 7 8 9 10 11 12 13 14 15 16 17 18 19 20
	 21
	---Fragment 1 Bond Connectivity---
	 1 : 3 9 14
	 2 : 4 9 15
	 3 : 1 11 16
	 4 : 2 11 17
	 5 : 7 10 18
	 6 : 8 10 19
	 7 : 5 12 20
	 8 : 6 12 21
	 9 : 1 2 10
	 10 : 5 6 9
	 11 : 3 4 13
	 12 : 7 8
	 13 : 11
	 14 : 1
	 15 : 2
	 16 : 3
	 17 : 4
	 18 : 5
	 19 : 6
	 20 : 7
	 21 : 8

	Assuming in current code that numbering for constraints corresponds to unified fragment.
	Fixed dihedral atom list: 
	     1     9    10     5
	---Fragment 1 Geometry and Gradient---
	 C          -2.4174754225        1.3677299377       -1.0758368667
	 C          -0.5409773725        0.2036586398        2.9190441783
	 C          -4.4546001937        2.4505430118        0.1959488208
	 C          -2.5781021438        1.2864717140        4.1927195918
	 C           2.4145542993        0.0732675366       -3.3624054874
	 C           2.9361187120       -2.9162792056        0.0220940166
	 C           4.4516790706       -1.0681270476       -4.5472637728
	 C           4.9486770435       -3.9253929605       -1.3158320855
	 C          -0.4597191488        0.2433428886        0.2847659490
	 C           1.6548843939       -0.8810441605       -1.0342628917
	 C          -4.5358584174        2.4108587630        2.8302270500
	 N           5.7423620193       -3.0504497610       -3.5797239927
	 O          -6.4085770151        3.4048547089        3.9999675263
	 H          -2.3815706259        1.4149730910       -3.1299691731
	 H           0.9708035338       -0.6656153813        4.0056367047
	 H          -5.9588221955        3.3141478545       -0.9114306931
	 H          -2.5951096789        1.2316696561        6.2487416244
	 H           1.4640220545        1.6606374883       -4.2449075915
	 H           2.3956570380       -3.7118539075        1.8343413780
	 H           5.1206421216       -0.3934948182       -6.3651803126
	 H           6.0088134041       -5.5146526383       -0.5750594414
	             0.0151649275       -0.0130669024       -0.0076157431
	             0.0173472641       -0.0041991892       -0.0127198056
	            -0.0235105838        0.0115057133        0.0392255761
	            -0.0412650909        0.0227767184        0.0021083883
	            -0.0131228519        0.0103676140        0.0092200316
	            -0.0159463738        0.0058355218        0.0081961120
	            -0.0042023267        0.0082921878       -0.0026746177
	            -0.0035935256       -0.0042996883        0.0074500130
	            -0.0146247035        0.0077877905        0.0091355036
	             0.0231469529       -0.0127380780       -0.0140404199
	             0.0499012580       -0.0263375756       -0.0316814377
	             0.0065876634       -0.0039003308       -0.0034743562
	            -0.0003537136        0.0001202004        0.0002971062
	            -0.0005618622        0.0023569045       -0.0039401912
	             0.0013195431       -0.0027448902        0.0033426741
	            -0.0015633900        0.0019169135       -0.0089267864
	             0.0051172253       -0.0037964758        0.0063603219
	            -0.0023572656        0.0028614519       -0.0043385365
	             0.0006746812       -0.0022379549        0.0057815416
	             0.0007122797        0.0000148317       -0.0017684188
	             0.0011298924       -0.0005147627        0.0000630447

	Previous optimization step data not found.  Starting new optimization.

	---Fragment 1 Intrafragment Coordinates---
	 - Coordinate -           - BOHR/RAD -       - ANG/DEG -
	 R(1,3)           =         2.634350	       1.394038
	 R(1,9)           =         2.635962	       1.394891
	 R(1,14)          =         2.054989	       1.087453
	 R(2,4)           =         2.635263	       1.394521
	 R(2,9)           =         2.635830	       1.394821
	 R(2,15)          =         2.054702	       1.087302
	 R(3,11)          =         2.635830	       1.394821
	 R(3,16)          =         2.057860	       1.088972
	 R(4,11)          =         2.636938	       1.395407
	 R(4,17)          =         2.056823	       1.088424
	 R(5,7)           =         2.618501	       1.385651
	 R(5,10)          =         2.628318	       1.390846
	 R(5,18)          =         2.049894	       1.084757
	 R(6,8)           =         2.618921	       1.385873
	 R(6,10)          =         2.626715	       1.389998
	 R(6,19)          =         2.051653	       1.085688
	 R(7,12)          =         2.555699	       1.352418
	 R(7,20)          =         2.051210	       1.085453
	 R(8,12)          =         2.553560	       1.351286
	 R(8,21)          =         2.048995	       1.084281
	 R(9,10)          =         2.734160	       1.446855
	 R(11,13)         =         2.421445	       1.281373
	 B(1,3,11)        =         2.094553	     120.009056
	 B(1,3,16)        =         2.069123	     118.552025
	 B(1,9,2)         =         2.093692	     119.959722
	 B(1,9,10)        =         2.095337	     120.053983
	 B(2,4,11)        =         2.093699	     119.960108
	 B(2,4,17)        =         2.069829	     118.592446
	 B(2,9,10)        =         2.094156	     119.986294
	 B(3,1,9)         =         2.094940	     120.031219
	 B(3,1,14)        =         2.079025	     119.119344
	 B(3,11,4)        =         2.094306	     119.994870
	 B(3,11,13)       =         2.094918	     120.029973
	 B(4,2,9)         =         2.095181	     120.045019
	 B(4,2,15)        =         2.079455	     119.143974
	 B(4,11,13)       =         2.093961	     119.975136
	 B(5,7,12)        =         2.164807	     124.034308
	 B(5,7,20)        =         2.107595	     120.756325
	 B(5,10,6)        =         2.090446	     119.773726
	 B(5,10,9)        =         2.096188	     120.102711
	 B(6,8,12)        =         2.164875	     124.038219
	 B(6,8,21)        =         2.108039	     120.781720
	 B(6,10,9)        =         2.096551	     120.123512
	 B(7,5,10)        =         2.057152	     117.866123
	 B(7,5,18)        =         2.098423	     120.230802
	 B(7,12,8)        =         2.031338	     116.387083
	 B(8,6,10)        =         2.057752	     117.900480
	 B(8,6,19)        =         2.099341	     120.283361
	 B(9,1,14)        =         2.109221	     120.849435
	 B(9,2,15)        =         2.108550	     120.811005
	 B(10,5,18)       =         2.127609	     121.903001
	 B(10,6,19)       =         2.126091	     121.816041
	 B(11,3,16)       =         2.119509	     121.438903
	 B(11,4,17)       =         2.119657	     121.447411
	 B(12,7,20)       =         2.010782	     115.209350
	 B(12,8,21)       =         2.010271	     115.180049
	 D(1,3,11,4)      =        -0.000325	      -0.018609
	 D(1,3,11,13)     =        -3.141004	    -179.966279
	 D(1,9,2,4)       =         0.000325	       0.018608
	 D(1,9,2,15)      =        -3.141527	    -179.996257
	 D(1,9,10,5)      =         0.523275	      29.981457
	 D(1,9,10,6)      =        -2.619763	    -150.101369
	 D(2,4,11,3)      =         0.000301	       0.017261
	 D(2,4,11,13)     =         3.140981	     179.964960
	 D(2,9,1,3)       =        -0.000348	      -0.019945
	 D(2,9,1,14)      =         3.141027	     179.967567
	 D(2,9,10,5)      =        -2.618100	    -150.006103
	 D(2,9,10,6)      =         0.522047	      29.911071
	 D(3,1,9,10)      =         3.141462	     179.992491
	 D(3,11,4,17)     =         3.140700	     179.948827
	 D(4,2,9,10)      =        -3.141485	    -179.993820
	 D(4,11,3,16)     =         3.140472	     179.935781
	 D(5,7,12,8)      =        -0.000299	      -0.017118
	 D(5,10,6,8)      =        -0.001229	      -0.070392
	 D(5,10,6,19)     =        -3.140651	    -179.946049
	 D(6,8,12,7)      =        -0.000886	      -0.050775
	 D(6,10,5,7)      =         0.000167	       0.009582
	 D(6,10,5,18)     =        -3.139711	    -179.892184
	 D(7,5,10,9)      =         3.140319	     179.927047
	 D(7,12,8,21)     =         3.141410	     179.989553
	 D(8,6,10,9)      =        -3.141380	    -179.987840
	 D(8,12,7,20)     =         3.140483	     179.936450
	 D(9,1,3,11)      =         0.000348	       0.019955
	 D(9,1,3,16)      =        -3.140471	    -179.935743
	 D(9,2,4,11)      =        -0.000301	      -0.017270
	 D(9,2,4,17)      =        -3.140734	    -179.950778
	 D(9,10,5,18)     =         0.000441	       0.025281
	 D(9,10,6,19)     =         0.002382	       0.136503
	 D(10,5,7,12)     =         0.000640	       0.036654
	 D(10,5,7,20)     =        -3.140100	    -179.914461
	 D(10,6,8,12)     =         0.001651	       0.094578
	 D(10,6,8,21)     =        -3.140683	    -179.947902
	 D(10,9,1,14)     =        -0.000349	      -0.019997
	 D(10,9,2,15)     =        -0.000152	      -0.008685
	 D(11,3,1,14)     =        -3.141030	    -179.967773
	 D(11,4,2,15)     =         3.141546	     179.997347
	 D(12,7,5,18)     =         3.140548	     179.940132
	 D(12,8,6,19)     =         3.141108	     179.972222
	 D(13,11,3,16)    =        -0.000207	      -0.011889
	 D(13,11,4,17)    =        -0.001806	      -0.103475
	 D(14,1,3,16)     =         0.001336	       0.076530
	 D(15,2,4,17)     =         0.001114	       0.063839
	 D(18,5,7,20)     =        -0.000192	      -0.010983
	 D(19,6,8,21)     =        -0.001226	      -0.070258

	Current energy   :      -553.1685795324

	Generating empirical Hessian (Schlegel '84) for each fragment.
	Adding user-defined constraint: Fragment 1; Coordinate 61:
		Value =     0.523275; Fixed value    =     0.523599
		Force =     0.000162; Force constant =     0.500000
	Removing off-diagonal coupling between coordinate 61 and others.
	Taking RFO optimization step.
	Going to follow RFO solution 1.
	Using RFO vector 1.

	Determining step-restricting scale parameter for RS-RFO.
	Maximum step size allowed    0.10000

	 Iter      |step|        alpha        rfo_root  
	------------------------------------------------
	    0     0.25919       1.00000           1
	    1     0.19479       6.05621           1
	    2     0.14306      20.07575           1
	    3     0.11411      39.90707           1
	    4     0.10236      53.93629           1
	    5     0.10009      57.30236           1
	    6     0.10000      57.43446           1
	------------------------------------------------
	Norm of target step-size    0.10000
	Projected energy change by RFO approximation:        -0.0070801288

	Back-transformation to cartesian coordinates...
	Could not converge backtransformation.
	Using first guess instead.

	--- Internal Coordinate Step in ANG or DEG, aJ/ANG or AJ/DEG ---
	 ---------------------------------------------------------------------------
	   Coordinate                Previous        Force       Change         New 
	   ----------                --------       ------       ------       ------
	    1 R(1,3)          =      1.394038    -0.060836    -0.004474     1.389564
	    2 R(1,9)          =      1.394891     0.056652     0.003995     1.398886
	    3 R(1,14)         =      1.087453    -0.032814    -0.002787     1.084666
	    4 R(2,4)          =      1.394521    -0.063846    -0.004713     1.389808
	    5 R(2,9)          =      1.394821     0.057773     0.004078     1.398899
	    6 R(2,15)         =      1.087302    -0.032130    -0.002729     1.084573
	    7 R(3,11)         =      1.394821     0.214503     0.016345     1.411166
	    8 R(3,16)         =      1.088972    -0.055619    -0.004737     1.084235
	    9 R(4,11)         =      1.395407     0.211191     0.016108     1.411516
	   10 R(4,17)         =      1.088424    -0.052866    -0.004499     1.083925
	   11 R(5,7)          =      1.385651    -0.004164    -0.000320     1.385331
	   12 R(5,10)         =      1.390846     0.052634     0.004271     1.395117
	   13 R(5,18)         =      1.084757    -0.042649    -0.003594     1.081163
	   14 R(6,8)          =      1.385873    -0.004766    -0.000348     1.385525
	   15 R(6,10)         =      1.389998     0.057147     0.004608     1.394606
	   16 R(6,19)         =      1.085688    -0.047760    -0.004028     1.081659
	   17 R(7,12)         =      1.352418    -0.104105    -0.007250     1.345168
	   18 R(7,20)         =      1.085453    -0.014867    -0.001255     1.084198
	   19 R(8,12)         =      1.351286    -0.097462    -0.006779     1.344507
	   20 R(8,21)         =      1.084281    -0.008293    -0.000698     1.083583
	   21 R(9,10)         =      1.446855     0.074433     0.006042     1.452897
	   22 R(11,13)        =      1.281373    -0.003843    -0.000218     1.281155
	   23 B(1,3,11)       =    120.009056     0.000727     0.877449   120.886506
	   24 B(1,3,16)       =    118.552025     0.000130     0.213925   118.765950
	   25 B(1,9,2)        =    119.959722    -0.000881    -1.109377   118.850345
	   26 B(1,9,10)       =    120.053983     0.000426     0.537777   120.591760
	   27 B(2,4,11)       =    119.960108     0.000742     0.893474   120.853583
	   28 B(2,4,17)       =    118.592446     0.000120     0.202862   118.795307
	   29 B(2,9,10)       =    119.986294     0.000455     0.571601   120.557895
	   30 B(3,1,9)        =    120.031219     0.000657     0.726911   120.758130
	   31 B(3,1,14)       =    119.119344    -0.000200    -0.192903   118.926441
	   32 B(3,11,4)       =    119.994870    -0.001903    -2.114242   117.880629
	   33 B(3,11,13)      =    120.029973     0.000944     1.048100   121.078073
	   34 B(4,2,9)        =    120.045019     0.000658     0.725710   120.770729
	   35 B(4,2,15)       =    119.143974    -0.000207    -0.201042   118.942933
	   36 B(4,11,13)      =    119.975136     0.000959     1.066146   121.041282
	   37 B(5,7,12)       =    124.034308     0.000225     0.223150   124.257458
	   38 B(5,7,20)       =    120.756325    -0.000151    -0.162705   120.593620
	   39 B(5,10,6)       =    119.773726    -0.001672    -1.857915   117.915811
	   40 B(5,10,9)       =    120.102711     0.000830     0.921949   121.024660
	   41 B(6,8,12)       =    124.038219     0.000219     0.218868   124.257087
	   42 B(6,8,21)       =    120.781720    -0.000156    -0.171941   120.609779
	   43 B(6,10,9)       =    120.123512     0.000842     0.935958   121.059470
	   44 B(7,5,10)       =    117.866123     0.000735     0.907161   118.773284
	   45 B(7,5,18)       =    120.230802    -0.000233    -0.276705   119.954097
	   46 B(7,12,8)       =    116.387083    -0.000227    -0.384495   116.002588
	   47 B(8,6,10)       =    117.900480     0.000721     0.893269   118.793749
	   48 B(8,6,19)       =    120.283361    -0.000238    -0.286500   119.996861
	   49 B(9,1,14)       =    120.849435    -0.000457    -0.534181   120.315254
	   50 B(9,2,15)       =    120.811005    -0.000451    -0.524843   120.286162
	   51 B(10,5,18)      =    121.903001    -0.000502    -0.630667   121.272335
	   52 B(10,6,19)      =    121.816041    -0.000483    -0.607020   121.209022
	   53 B(11,3,16)      =    121.438903    -0.000857    -1.091393   120.347510
	   54 B(11,4,17)      =    121.447411    -0.000862    -1.096358   120.351053
	   55 B(12,7,20)      =    115.209350    -0.000074    -0.060569   115.148782
	   56 B(12,8,21)      =    115.180049    -0.000062    -0.046937   115.133112
	   57 D(1,3,11,4)     =     -0.018609    -0.000005    -0.038343    -0.056952
	   58 D(1,3,11,13)    =   -179.966279    -0.000006    -0.043492  -180.009771
	   59 D(1,9,2,4)      =      0.018608    -0.000006    -0.046331    -0.027723
	   60 D(1,9,2,15)     =   -179.996257     0.000016     0.122555  -179.873702
	   61 D(1,9,10,5)     =     29.981457    -0.000002    -0.011109    29.970348
	   62 D(1,9,10,6)     =   -150.101369    -0.000003    -0.018906  -150.120274
	   63 D(2,4,11,3)     =      0.017261    -0.000005    -0.042493    -0.025232
	   64 D(2,4,11,13)    =    179.964960    -0.000005    -0.037355   179.927605
	   65 D(2,9,1,3)      =     -0.019945    -0.000005    -0.034732    -0.054677
	   66 D(2,9,1,14)     =    179.967567     0.000017     0.131545   180.099112
	   67 D(2,9,10,5)     =   -150.006103    -0.000003    -0.022491  -150.028594
	   68 D(2,9,10,6)     =     29.911071    -0.000004    -0.030287    29.880784
	   69 D(3,1,9,10)     =    179.992491    -0.000006    -0.046128   179.946364
	   70 D(3,11,4,17)    =    179.948827    -0.000008    -0.061824   179.887003
	   71 D(4,2,9,10)     =   -179.993820    -0.000005    -0.034943  -180.028763
	   72 D(4,11,3,16)    =    179.935781    -0.000008    -0.060294   179.875488
	   73 D(5,7,12,8)     =     -0.017118     0.000002     0.017118     0.000000
	   74 D(5,10,6,8)     =     -0.070392     0.000002     0.015982    -0.054410
	   75 D(5,10,6,19)    =   -179.946049     0.000015     0.112576  -179.833473
	   76 D(6,8,12,7)     =     -0.050775     0.000003     0.021992    -0.028782
	   77 D(6,10,5,7)     =      0.009582     0.000002     0.018991     0.028573
	   78 D(6,10,5,18)    =   -179.892184     0.000015     0.114700  -179.777485
	   79 D(7,5,10,9)     =    179.927047     0.000002     0.013673   179.940720
	   80 D(7,12,8,21)    =    179.989553    -0.000009    -0.072460   179.917093
	   81 D(8,6,10,9)     =   -179.987840     0.000003     0.021314  -179.966526
	   82 D(8,12,7,20)    =    179.936450    -0.000009    -0.072328   179.864122
	   83 D(9,1,3,11)     =      0.019955     0.000010     0.077942     0.097897
	   84 D(9,1,3,16)     =   -179.935743     0.000013     0.100151  -179.835592
	   85 D(9,2,4,11)     =     -0.017270     0.000011     0.085079     0.067809
	   86 D(9,2,4,17)     =   -179.950778     0.000013     0.105010  -179.845768
	   87 D(9,10,5,18)    =      0.025281     0.000014     0.109382     0.134663
	   88 D(9,10,6,19)    =      0.136503     0.000015     0.117909     0.254412
	   89 D(10,5,7,12)    =      0.036654    -0.000005    -0.037678    -0.001024
	   90 D(10,5,7,20)    =   -179.914461     0.000007     0.056410  -179.858052
	   91 D(10,6,8,12)    =      0.094578    -0.000005    -0.037467     0.057111
	   92 D(10,6,8,21)    =   -179.947902     0.000008     0.061948  -179.885955
	   93 D(10,9,1,14)    =     -0.019997     0.000016     0.120149     0.100153
	   94 D(10,9,2,15)    =     -0.008685     0.000017     0.133943     0.125258
	   95 D(11,3,1,14)    =   -179.967773    -0.000011    -0.086014  -180.053787
	   96 D(11,4,2,15)    =    179.997347    -0.000011    -0.081521   179.915826
	   97 D(12,7,5,18)    =    179.940132    -0.000017    -0.132477   179.807656
	   98 D(12,8,6,19)    =    179.972222    -0.000017    -0.133300   179.838921
	   99 D(13,11,3,16)   =     -0.011889    -0.000008    -0.065443    -0.077331
	  100 D(13,11,4,17)   =     -0.103475    -0.000007    -0.056686    -0.160160
	  101 D(14,1,3,16)    =      0.076530    -0.000008    -0.063805     0.012724
	  102 D(15,2,4,17)    =      0.063839    -0.000008    -0.061589     0.002250
	  103 D(18,5,7,20)    =     -0.010983    -0.000005    -0.038389    -0.049371
	  104 D(19,6,8,21)    =     -0.070258    -0.000004    -0.033886    -0.104144
	 ---------------------------------------------------------------------------
	Successfully symmetrized geometry.
	 Forces used to impose fixed constraints are not included.
	  Forces zeroed: 61 

  ==> Convergence Check <==

  Measures of convergence in internal coordinates in au.
  Criteria marked as inactive (o), active & met (*), and active & unmet ( ).
  --------------------------------------------------------------------------------------------- ~
   Step     Total Energy     Delta E     MAX Force     RMS Force      MAX Disp      RMS Disp    ~
  --------------------------------------------------------------------------------------------- ~
    Convergence Criteria    1.00e-06 *    3.00e-04 *             o    1.20e-03 *             o  ~
  --------------------------------------------------------------------------------------------- ~
      1    -553.16857953   -5.53e+02      2.60e-02      6.99e-03 o    3.69e-02      9.79e-03 o  ~
  ---------------------------------------------------------------------------------------------

	Writing optimization data to binary file.
	Structure for next step:
	Cartesian Geometry (in Angstrom)
	    C    -1.2913332942   0.7306872335  -0.5576444818
	    C    -0.3020222144   0.1157026625   1.5507573428
	    C    -2.3681037262   1.3022721204   0.1092477257
	    C    -1.3743728604   0.6865418013   2.2258664085
	    C     1.2965736370   0.0241397501  -1.7845534236
	    C     1.5710830946  -1.5480944187  -0.0052851391
	    C     2.3740499548  -0.5802424912  -2.4113777125
	    C     2.6358331790  -2.0810768241  -0.7137460060
	    C    -0.2465036861   0.1305694159   0.1530397407
	    C     0.8770517628  -0.4670156450  -0.5479777376
	    C    -2.4343434324   1.2939495802   1.5188337791
	    N     3.0564483339  -1.6234934634  -1.9059705445
	    O    -3.4252609801   1.8200188873   2.1374551769
	    H    -1.2733352543   0.7542127710  -1.6419060052
	    H     0.4963744097  -0.3415292786   2.1250402095
	    H    -3.1615119197   1.7563176359  -0.4737723632
	    H    -1.3834603856   0.6591696345   3.3094076716
	    H     0.7999228124   0.8622877471  -2.2533390418
	    H     1.2895802788  -1.9728859447   0.9488089813
	    H     2.7262247657  -0.2210820798  -3.3718264137
	    H     3.1943747110  -2.9222473732  -0.3205335167
			--------------------------
			 OPTKING Finished Execution 
			--------------------------

    Structure for next step:
    Molecular point group: c1
    Full point group: C1

    Geometry (in Angstrom), charge = -1, multiplicity = 1:

    C           -1.288846349368     0.729338112404    -0.559135953804
    C           -0.299535269488     0.114353541431     1.549265870835
    C           -2.365616781299     1.300922999270     0.107756253765
    C           -1.371885915538     0.685192680222     2.224374936523
    C            1.299060581832     0.022790628952    -1.786044895605
    C            1.573570039523    -1.549443539789    -0.006776611100
    C            2.376536899676    -0.581591612277    -2.412869184465
    C            2.638320123847    -2.082425945256    -0.715237477987
    C           -0.244016741223     0.129220294733     0.151548268732
    C            0.879538707727    -0.468364766145    -0.549469209598
    C           -2.431856487529     1.292600459040     1.517342307146
    N            3.058935278774    -1.624842584511    -1.907462016465
    O           -3.422774035182     1.818669766203     2.135963704973
    H           -1.270848309434     0.752863649882    -1.643397477126
    H            0.498861354540    -0.342878399768     2.123548737516
    H           -3.159024974852     1.754968514757    -0.475263835178
    H           -1.380973440690     0.657820513372     3.307916199612
    H            0.802409757254     0.860938625941    -2.254830513720
    H            1.292067223713    -1.974235065811     0.947317509323
    H            2.728711710626    -0.222431200940    -3.373317885619
    H            3.196861655887    -2.923596494286    -0.322024988679

gradient() will perform analytic gradient computation.

*** tstart() called on gpu-1-11.local
*** at Sun Nov 12 04:54:32 2017

    SCF Algorithm Type (re)set to DF.

*** tstart() called on gpu-1-11.local
*** at Sun Nov 12 04:54:32 2017

   => Loading Basis Set <=

    Name: AUG-CC-PVTZ
    Role: ORBITAL
    Keyword: BASIS
    atoms 1-11  entry C          line   221 file /cbio/jclab/home/chayas/anaconda/envs/py35/share/psi4/basis/aug-cc-pvtz.gbs 
    atoms 12    entry N          line   267 file /cbio/jclab/home/chayas/anaconda/envs/py35/share/psi4/basis/aug-cc-pvtz.gbs 
    atoms 13    entry O          line   313 file /cbio/jclab/home/chayas/anaconda/envs/py35/share/psi4/basis/aug-cc-pvtz.gbs 
    atoms 14-21 entry H          line    34 file /cbio/jclab/home/chayas/anaconda/envs/py35/share/psi4/basis/aug-cc-pvtz.gbs 


         ---------------------------------------------------------
                                   SCF
            by Justin Turney, Rob Parrish, and Andy Simmonett
                              RHF Reference
                        8 Threads,   4768 MiB Core
         ---------------------------------------------------------

  ==> Geometry <==

    Molecular point group: c1
    Full point group: C1

    Geometry (in Angstrom), charge = -1, multiplicity = 1:

       Center              X                  Y                   Z               Mass       
    ------------   -----------------  -----------------  -----------------  -----------------
           C         -1.288846349368     0.729338112404    -0.559135953804    12.000000000000
           C         -0.299535269488     0.114353541431     1.549265870835    12.000000000000
           C         -2.365616781299     1.300922999270     0.107756253765    12.000000000000
           C         -1.371885915538     0.685192680222     2.224374936523    12.000000000000
           C          1.299060581832     0.022790628952    -1.786044895605    12.000000000000
           C          1.573570039523    -1.549443539789    -0.006776611100    12.000000000000
           C          2.376536899676    -0.581591612277    -2.412869184465    12.000000000000
           C          2.638320123847    -2.082425945256    -0.715237477987    12.000000000000
           C         -0.244016741223     0.129220294733     0.151548268732    12.000000000000
           C          0.879538707727    -0.468364766145    -0.549469209598    12.000000000000
           C         -2.431856487529     1.292600459040     1.517342307146    12.000000000000
           N          3.058935278774    -1.624842584511    -1.907462016465    14.003074004780
           O         -3.422774035182     1.818669766203     2.135963704973    15.994914619560
           H         -1.270848309434     0.752863649882    -1.643397477126     1.007825032070
           H          0.498861354540    -0.342878399768     2.123548737516     1.007825032070
           H         -3.159024974852     1.754968514757    -0.475263835178     1.007825032070
           H         -1.380973440690     0.657820513372     3.307916199612     1.007825032070
           H          0.802409757254     0.860938625941    -2.254830513720     1.007825032070
           H          1.292067223713    -1.974235065811     0.947317509323     1.007825032070
           H          2.728711710626    -0.222431200940    -3.373317885619     1.007825032070
           H          3.196861655887    -2.923596494286    -0.322024988679     1.007825032070

  Running in c1 symmetry.

  Rotational constants: A =      0.09804  B =      0.01370  C =      0.01222 [cm^-1]
  Rotational constants: A =   2939.05155  B =    410.68674  C =    366.33796 [MHz]
  Nuclear repulsion =  684.521383874793287

  Charge       = -1
  Multiplicity = 1
  Electrons    = 90
  Nalpha       = 45
  Nbeta        = 45

  ==> Algorithm <==

  SCF Algorithm Type is DF.
  DIIS enabled.
  MOM disabled.
  Fractional occupation disabled.
  Guess Type is READ.
  Energy threshold   = 1.00e-10
  Density threshold  = 1.00e-10
  Integral threshold = 0.00e+00

  ==> Primary Basis <==

  Basis Set: AUG-CC-PVTZ
    Blend: AUG-CC-PVTZ
    Number of shells: 254
    Number of basis function: 782
    Number of Cartesian functions: 915
    Spherical Harmonics?: true
    Max angular momentum: 3

   => Loading Basis Set <=

    Name: (AUG-CC-PVTZ AUX)
    Role: JKFIT
    Keyword: DF_BASIS_SCF
    atoms 1-11  entry C          line   161 file /cbio/jclab/home/chayas/anaconda/envs/py35/share/psi4/basis/aug-cc-pvtz-jkfit.gbs 
    atoms 12    entry N          line   223 file /cbio/jclab/home/chayas/anaconda/envs/py35/share/psi4/basis/aug-cc-pvtz-jkfit.gbs 
    atoms 13    entry O          line   285 file /cbio/jclab/home/chayas/anaconda/envs/py35/share/psi4/basis/aug-cc-pvtz-jkfit.gbs 
    atoms 14-21 entry H          line    69 file /cbio/jclab/home/chayas/anaconda/envs/py35/share/psi4/basis/aug-cc-pvtz-jkfit.gbs 

  Reading orbitals from file 180, no projection.

  ==> Pre-Iterations <==

   -------------------------------------------------------
    Irrep   Nso     Nmo     Nalpha   Nbeta   Ndocc  Nsocc
   -------------------------------------------------------
     A        782     782       0       0       0       0
   -------------------------------------------------------
    Total     782     782      45      45      45       0
   -------------------------------------------------------

  ==> Integral Setup <==

  ==> DFJK: Density-Fitted J/K Matrices <==

    J tasked:                  Yes
    K tasked:                  Yes
    wK tasked:                  No
    OpenMP threads:              8
    Integrals threads:           8
    Memory (MB):              3576
    Algorithm:                Disk
    Integral Cache:           NONE
    Schwarz Cutoff:          1E-12
    Fitting Condition:       1E-12

   => Auxiliary Basis Set <=

  Basis Set: (AUG-CC-PVTZ AUX)
    Blend: AUG-CC-PVTZ-JKFIT
    Number of shells: 502
    Number of basis function: 1720
    Number of Cartesian functions: 2143
    Spherical Harmonics?: true
    Max angular momentum: 4

  Minimum eigenvalue in the overlap matrix is 6.9537760387E-07.
  Using Symmetric Orthogonalization.

  SCF Guess: Orbitals guess was supplied from a previous computation.

  ==> Iterations <==

                           Total Energy        Delta E     RMS |[F,P]|

   @DF-RHF iter   0:  -550.83220324816796   -5.50832e+02   4.40305e-04 
   @DF-RHF iter   1:  -550.72218676545526    1.10016e-01   1.45630e-04 
   @DF-RHF iter   2:  -550.72274110156047   -5.54336e-04   9.13637e-05 DIIS
   @DF-RHF iter   3:  -550.72318593655393   -4.44835e-04   8.14688e-06 DIIS
   @DF-RHF iter   4:  -550.72319461179461   -8.67524e-06   4.23053e-06 DIIS
   @DF-RHF iter   5:  -550.72319650222903   -1.89043e-06   1.29946e-06 DIIS
   @DF-RHF iter   6:  -550.72319684945091   -3.47222e-07   8.37452e-07 DIIS
   @DF-RHF iter   7:  -550.72319696475938   -1.15308e-07   3.29481e-07 DIIS
   @DF-RHF iter   8:  -550.72319700394155   -3.91822e-08   1.33646e-07 DIIS
   @DF-RHF iter   9:  -550.72319700942751   -5.48596e-09   5.29320e-08 DIIS
   @DF-RHF iter  10:  -550.72319701020228   -7.74776e-10   2.03658e-08 DIIS
   @DF-RHF iter  11:  -550.72319701031824   -1.15961e-10   8.44162e-09 DIIS
   @DF-RHF iter  12:  -550.72319701032325   -5.00222e-12   4.64976e-09 DIIS
   @DF-RHF iter  13:  -550.72319701035076   -2.75122e-11   2.33737e-09 DIIS
   @DF-RHF iter  14:  -550.72319701033371    1.70530e-11   9.64684e-10 DIIS
   @DF-RHF iter  15:  -550.72319701032916    4.54747e-12   3.49236e-10 DIIS
   @DF-RHF iter  16:  -550.72319701034007   -1.09139e-11   9.14028e-11 DIIS

  ==> Post-Iterations <==

    Orbital Energies (a.u.)
    -----------------------

    Doubly Occupied:                                                      

       1A    -20.305321     2A    -15.447003     3A    -11.165369  
       4A    -11.165305     5A    -11.145483     6A    -11.123645  
       7A    -11.117380     8A    -11.117325     9A    -11.101291  
      10A    -11.101265    11A    -11.077499    12A    -11.062862  
      13A    -11.062830    14A     -1.141139    15A     -1.132506  
      16A     -1.017777    17A     -0.957448    18A     -0.921891  
      19A     -0.868648    20A     -0.837637    21A     -0.746889  
      22A     -0.732942    23A     -0.678309    24A     -0.649525  
      25A     -0.597604    26A     -0.550266    27A     -0.542880  
      28A     -0.504856    29A     -0.489376    30A     -0.483287  
      31A     -0.481428    32A     -0.442487    33A     -0.431157  
      34A     -0.411986    35A     -0.406673    36A     -0.379370  
      37A     -0.358152    38A     -0.354251    39A     -0.311662  
      40A     -0.307760    41A     -0.246966    42A     -0.241145  
      43A     -0.219214    44A     -0.200239    45A     -0.107134  

    Virtual:                                                              

      46A      0.098997    47A      0.099797    48A      0.116721  
      49A      0.116803    50A      0.125740    51A      0.128341  
      52A      0.133665    53A      0.134199    54A      0.163434  
      55A      0.166082    56A      0.177265    57A      0.183789  
      58A      0.186158    59A      0.189132    60A      0.189678  
      61A      0.197503    62A      0.199030    63A      0.206854  
      64A      0.208042    65A      0.212426    66A      0.213706  
      67A      0.214053    68A      0.221140    69A      0.226412  
      70A      0.230985    71A      0.232068    72A      0.237426  
      73A      0.239065    74A      0.239755    75A      0.247284  
      76A      0.250847    77A      0.251187    78A      0.260268  
      79A      0.263167    80A      0.267393    81A      0.268941  
      82A      0.277054    83A      0.281409    84A      0.292345  
      85A      0.292511    86A      0.300699    87A      0.313922  
      88A      0.317655    89A      0.319899    90A      0.323084  
      91A      0.323471    92A      0.327271    93A      0.330181  
      94A      0.332794    95A      0.338125    96A      0.343855  
      97A      0.346811    98A      0.351513    99A      0.366120  
     100A      0.366603   101A      0.374262   102A      0.377136  
     103A      0.383203   104A      0.383914   105A      0.389774  
     106A      0.391192   107A      0.397776   108A      0.400513  
     109A      0.405138   110A      0.413790   111A      0.416464  
     112A      0.421912   113A      0.423535   114A      0.428454  
     115A      0.430521   116A      0.432770   117A      0.441046  
     118A      0.443048   119A      0.450740   120A      0.462399  
     121A      0.463100   122A      0.471855   123A      0.474660  
     124A      0.478056   125A      0.483381   126A      0.489633  
     127A      0.489792   128A      0.505856   129A      0.510059  
     130A      0.514198   131A      0.515776   132A      0.520206  
     133A      0.533797   134A      0.538654   135A      0.545595  
     136A      0.545777   137A      0.554845   138A      0.558092  
     139A      0.560082   140A      0.561605   141A      0.567674  
     142A      0.573371   143A      0.575237   144A      0.577613  
     145A      0.581355   146A      0.583159   147A      0.590007  
     148A      0.591218   149A      0.598199   150A      0.598911  
     151A      0.602610   152A      0.603956   153A      0.608864  
     154A      0.615291   155A      0.615588   156A      0.624880  
     157A      0.625996   158A      0.630100   159A      0.630871  
     160A      0.637205   161A      0.637395   162A      0.643243  
     163A      0.645913   164A      0.649931   165A      0.653565  
     166A      0.657980   167A      0.664253   168A      0.667179  
     169A      0.671525   170A      0.671975   171A      0.681745  
     172A      0.688252   173A      0.694532   174A      0.701296  
     175A      0.701896   176A      0.704006   177A      0.717495  
     178A      0.720067   179A      0.729276   180A      0.735899  
     181A      0.740735   182A      0.745563   183A      0.745716  
     184A      0.759194   185A      0.765072   186A      0.777223  
     187A      0.784987   188A      0.794248   189A      0.803145  
     190A      0.805128   191A      0.807674   192A      0.808100  
     193A      0.812218   194A      0.830224   195A      0.830947  
     196A      0.833905   197A      0.839161   198A      0.841867  
     199A      0.843451   200A      0.856071   201A      0.860101  
     202A      0.863042   203A      0.869176   204A      0.870117  
     205A      0.876202   206A      0.883904   207A      0.894762  
     208A      0.900932   209A      0.904302   210A      0.914192  
     211A      0.920025   212A      0.920506   213A      0.937147  
     214A      0.951638   215A      0.951786   216A      0.961684  
     217A      0.962294   218A      0.975866   219A      0.978577  
     220A      0.985369   221A      0.988635   222A      0.990441  
     223A      0.998755   224A      1.002591   225A      1.004102  
     226A      1.009605   227A      1.015229   228A      1.018275  
     229A      1.019461   230A      1.021728   231A      1.030031  
     232A      1.037304   233A      1.042110   234A      1.047060  
     235A      1.056686   236A      1.057424   237A      1.066131  
     238A      1.067823   239A      1.071065   240A      1.073800  
     241A      1.079636   242A      1.088841   243A      1.091197  
     244A      1.095932   245A      1.100188   246A      1.103890  
     247A      1.110890   248A      1.111122   249A      1.118880  
     250A      1.123384   251A      1.129097   252A      1.131313  
     253A      1.135520   254A      1.136573   255A      1.144391  
     256A      1.146013   257A      1.146369   258A      1.154797  
     259A      1.156977   260A      1.167861   261A      1.170854  
     262A      1.175785   263A      1.177656   264A      1.182522  
     265A      1.185082   266A      1.191597   267A      1.198492  
     268A      1.203918   269A      1.207842   270A      1.211864  
     271A      1.217505   272A      1.222133   273A      1.227783  
     274A      1.235647   275A      1.239713   276A      1.240261  
     277A      1.256083   278A      1.256442   279A      1.262770  
     280A      1.264225   281A      1.269315   282A      1.279886  
     283A      1.289654   284A      1.294767   285A      1.297517  
     286A      1.299970   287A      1.302363   288A      1.304634  
     289A      1.313624   290A      1.316846   291A      1.317889  
     292A      1.319760   293A      1.327710   294A      1.332110  
     295A      1.338769   296A      1.341399   297A      1.348253  
     298A      1.351416   299A      1.358473   300A      1.359489  
     301A      1.363744   302A      1.379108   303A      1.386445  
     304A      1.389922   305A      1.393246   306A      1.404542  
     307A      1.405685   308A      1.417248   309A      1.423927  
     310A      1.435931   311A      1.436541   312A      1.444144  
     313A      1.456650   314A      1.457819   315A      1.471536  
     316A      1.476142   317A      1.480990   318A      1.483374  
     319A      1.487433   320A      1.499778   321A      1.502373  
     322A      1.516746   323A      1.530932   324A      1.535228  
     325A      1.556080   326A      1.559241   327A      1.571883  
     328A      1.575847   329A      1.580294   330A      1.585311  
     331A      1.588527   332A      1.602649   333A      1.615715  
     334A      1.624856   335A      1.626231   336A      1.638128  
     337A      1.639060   338A      1.653992   339A      1.662638  
     340A      1.668856   341A      1.671072   342A      1.671414  
     343A      1.702067   344A      1.707177   345A      1.707397  
     346A      1.718239   347A      1.736126   348A      1.736865  
     349A      1.743091   350A      1.761570   351A      1.764418  
     352A      1.765287   353A      1.780625   354A      1.794935  
     355A      1.796630   356A      1.811008   357A      1.816970  
     358A      1.821401   359A      1.828943   360A      1.830186  
     361A      1.841569   362A      1.849341   363A      1.856082  
     364A      1.857474   365A      1.858978   366A      1.877842  
     367A      1.878769   368A      1.889517   369A      1.911974  
     370A      1.912692   371A      1.920954   372A      1.930121  
     373A      1.937735   374A      1.947477   375A      1.950414  
     376A      1.962397   377A      1.966451   378A      1.977407  
     379A      1.981613   380A      1.990082   381A      1.992370  
     382A      2.017350   383A      2.022886   384A      2.036718  
     385A      2.037594   386A      2.042445   387A      2.049405  
     388A      2.059707   389A      2.073518   390A      2.078929  
     391A      2.088709   392A      2.097658   393A      2.099342  
     394A      2.102763   395A      2.112163   396A      2.116812  
     397A      2.123680   398A      2.139366   399A      2.146680  
     400A      2.152157   401A      2.158330   402A      2.164596  
     403A      2.166135   404A      2.176437   405A      2.182977  
     406A      2.183169   407A      2.196070   408A      2.203803  
     409A      2.209511   410A      2.216082   411A      2.233139  
     412A      2.234339   413A      2.235145   414A      2.244454  
     415A      2.256797   416A      2.258699   417A      2.271160  
[...]
	 R(4,11)          =         2.714101	       1.436241
	 R(4,17)          =         2.044471	       1.081888
	 R(5,7)           =         2.612770	       1.382618
	 R(5,10)          =         2.650148	       1.402398
	 R(5,18)          =         2.040659	       1.079870
	 R(6,8)           =         2.613105	       1.382795
	 R(6,10)          =         2.649893	       1.402263
	 R(6,19)          =         2.040395	       1.079730
	 R(7,12)          =         2.531494	       1.339609
	 R(7,20)          =         2.046540	       1.082983
	 R(8,12)          =         2.531196	       1.339451
	 R(8,21)          =         2.046537	       1.082981
	 R(9,10)          =         2.720597	       1.439678
	 R(11,13)         =         2.386360	       1.262807
	 B(1,3,11)        =         2.145616	     122.934724
	 B(1,3,16)        =         2.096365	     120.112872
	 B(1,9,2)         =         2.032101	     116.430804
	 B(1,9,10)        =         2.122949	     121.636043
	 B(2,4,11)        =         2.146182	     122.967180
	 B(2,4,17)        =         2.096123	     120.099000
	 B(2,9,10)        =         2.127211	     121.880227
	 B(3,1,9)         =         2.130976	     122.095954
	 B(3,1,14)        =         2.073264	     118.789258
	 B(3,11,4)        =         1.980909	     113.497744
	 B(3,11,13)       =         2.151372	     123.264509
	 B(4,2,9)         =         2.130319	     122.058277
	 B(4,2,15)        =         2.072805	     118.763005
	 B(4,11,13)       =         2.150901	     123.237561
	 B(5,7,12)        =         2.171668	     124.427407
	 B(5,7,20)        =         2.086721	     119.560288
	 B(5,10,6)        =         1.996649	     114.399541
	 B(5,10,9)        =         2.141323	     122.688746
	 B(6,8,12)        =         2.172243	     124.460349
	 B(6,8,21)        =         2.086447	     119.544590
	 B(6,10,9)        =         2.144807	     122.888369
	 B(7,5,10)        =         2.108538	     120.810301
	 B(7,5,18)        =         2.082066	     119.293588
	 B(7,12,8)        =         2.009096	     115.112731
	 B(8,6,10)        =         2.108024	     120.780888
	 B(8,6,19)        =         2.081721	     119.273801
	 B(9,1,14)        =         2.078220	     119.073228
	 B(9,2,15)        =         2.079052	     119.120891
	 B(10,5,18)       =         2.092356	     119.883194
	 B(10,6,19)       =         2.093088	     119.925087
	 B(11,3,16)       =         2.041106	     116.946762
	 B(11,4,17)       =         2.040832	     116.931055
	 B(12,7,20)       =         2.024651	     116.003968
	 B(12,8,21)       =         2.024420	     115.990743
	 D(1,3,11,4)      =        -0.011626	      -0.666108
	 D(1,3,11,13)     =         3.132631	     179.486533
	 D(1,9,2,4)       =        -0.023872	      -1.367762
	 D(1,9,2,15)      =        -3.116579	    -178.566821
	 D(1,9,10,5)      =         0.519406	      29.759773
	 D(1,9,10,6)      =        -2.654590	    -152.096827
	 D(2,4,11,3)      =        -0.003061	      -0.175365
	 D(2,4,11,13)     =         3.135869	     179.672042
	 D(2,9,1,3)       =         0.009245	       0.529702
	 D(2,9,1,14)      =        -3.090911	    -177.096135
	 D(2,9,10,5)      =        -2.670021	    -152.980954
	 D(2,9,10,6)      =         0.439168	      25.162446
	 D(3,1,9,10)      =         3.105479	     177.930840
	 D(3,11,4,17)     =         3.127967	     179.219285
	 D(4,2,9,10)      =        -3.119986	    -178.762030
	 D(4,11,3,16)     =         3.114877	     178.469318
	 D(5,7,12,8)      =         0.004725	       0.270699
	 D(5,10,6,8)      =        -0.006326	      -0.362435
	 D(5,10,6,19)     =        -3.119161	    -178.714749
	 D(6,8,12,7)      =         0.007313	       0.418994
	 D(6,10,5,7)      =         0.017412	       0.997654
	 D(6,10,5,18)     =        -3.101201	    -177.685731
	 D(7,5,10,9)      =         3.129127	     179.285757
	 D(7,12,8,21)     =         3.135604	     179.656890
	 D(8,6,10,9)      =        -3.117973	    -178.646690
	 D(8,12,7,20)     =         3.127838	     179.211917
	 D(9,1,3,11)      =         0.008609	       0.493284
	 D(9,1,3,16)      =        -3.117433	    -178.615764
	 D(9,2,4,11)      =         0.021356	       1.223608
	 D(9,2,4,17)      =        -3.109349	    -178.152574
	 D(9,10,5,18)     =         0.010513	       0.602372
	 D(9,10,6,19)     =         0.052377	       3.000995
	 D(10,5,7,12)     =        -0.017799	      -1.019816
	 D(10,5,7,20)     =        -3.140298	    -179.925820
	 D(10,6,8,12)     =        -0.006322	      -0.362230
	 D(10,6,8,21)     =        -3.134172	    -179.574813
	 D(10,9,1,14)     =         0.005323	       0.305002
	 D(10,9,2,15)     =         0.070492	       4.038911
	 D(11,3,1,14)     =         3.108879	     178.125621
	 D(11,4,2,15)     =         3.114232	     178.432333
	 D(12,7,5,18)     =         3.100948	     177.671241
	 D(12,8,6,19)     =         3.106698	     178.000693
	 D(13,11,3,16)    =        -0.024051	      -1.378042
	 D(13,11,4,17)    =        -0.016289	      -0.933309
	 D(14,1,3,16)     =        -0.017164	      -0.983427
	 D(15,2,4,17)     =        -0.016473	      -0.943849
	 D(18,5,7,20)     =        -0.021551	      -1.234764
	 D(19,6,8,21)     =        -0.021151	      -1.211890

	Current energy   :      -553.1787880261

	Energy change for the previous step:
		Projected    :        -0.0000056528
		Actual       :         0.0000006564

	Performing BFGS update.
	Previous computed or guess Hessian on step 1.
	Steps to be used in Hessian update: 6 5
	Adding user-defined constraint: Fragment 1; Coordinate 61:
		Value =     0.519406; Fixed value    =     0.523600
		Force =     0.002726; Force constant =     0.650000
	Removing off-diagonal coupling between coordinate 61 and others.
	Taking RFO optimization step.
	Going to follow RFO solution 1.
	Using RFO vector 1.
	Norm of target step-size    0.00844
	Projected energy change by RFO approximation:        -0.0000032229

	Back-transformation to cartesian coordinates...
	Successfully converged to displaced geometry.

	--- Internal Coordinate Step in ANG or DEG, aJ/ANG or AJ/DEG ---
	 ---------------------------------------------------------------------------
	   Coordinate                Previous        Force       Change         New 
	   ----------                --------       ------       ------       ------
	    1 R(1,3)          =      1.376246    -0.000037     0.000001     1.376247
	    2 R(1,9)          =      1.404564     0.000229    -0.000009     1.404555
	    3 R(1,14)         =      1.083421    -0.000021     0.000013     1.083434
	    4 R(2,4)          =      1.376242    -0.000001     0.000003     1.376245
	    5 R(2,9)          =      1.404429     0.000002     0.000031     1.404460
	    6 R(2,15)         =      1.083289     0.000070     0.000015     1.083304
	    7 R(3,11)         =      1.436085    -0.000073     0.000089     1.436174
	    8 R(3,16)         =      1.081853    -0.000044     0.000011     1.081864
	    9 R(4,11)         =      1.436241    -0.000060     0.000074     1.436315
	   10 R(4,17)         =      1.081888    -0.000062     0.000009     1.081896
	   11 R(5,7)          =      1.382618    -0.000103     0.000020     1.382638
	   12 R(5,10)         =      1.402398     0.000202    -0.000016     1.402382
	   13 R(5,18)         =      1.079870    -0.000004     0.000011     1.079881
	   14 R(6,8)          =      1.382795     0.000154     0.000018     1.382813
	   15 R(6,10)         =      1.402263    -0.000047     0.000000     1.402263
	   16 R(6,19)         =      1.079730     0.000008     0.000007     1.079737
	   17 R(7,12)         =      1.339609     0.000294    -0.000024     1.339585
	   18 R(7,20)         =      1.082983    -0.000031    -0.000002     1.082981
	   19 R(8,12)         =      1.339451    -0.000152    -0.000029     1.339422
	   20 R(8,21)         =      1.082981     0.000030     0.000004     1.082985
	   21 R(9,10)         =      1.439678    -0.000059     0.000026     1.439704
	   22 R(11,13)        =      1.262807     0.000230    -0.000039     1.262769
	   23 B(1,3,11)       =    122.934724     0.000001     0.012313   122.947036
	   24 B(1,3,16)       =    120.112872    -0.000000    -0.004449   120.108423
	   25 B(1,9,2)        =    116.430804    -0.000002    -0.006143   116.424661
	   26 B(1,9,10)       =    121.636043     0.000001     0.011799   121.647843
	   27 B(2,4,11)       =    122.967180     0.000000     0.008284   122.975464
	   28 B(2,4,17)       =    120.099000     0.000000    -0.001538   120.097463
	   29 B(2,9,10)       =    121.880227     0.000001    -0.003463   121.876765
	   30 B(3,1,9)        =    122.095954     0.000000     0.000313   122.096267
	   31 B(3,1,14)       =    118.789258     0.000000     0.001124   118.790382
	   32 B(3,11,4)       =    113.497744    -0.000001    -0.018494   113.479250
	   33 B(3,11,13)      =    123.264509     0.000001     0.008858   123.273367
	   34 B(4,2,9)        =    122.058277     0.000001     0.003101   122.061377
	   35 B(4,2,15)       =    118.763005     0.000000     0.002229   118.765235
	   36 B(4,11,13)      =    123.237561    -0.000000     0.009779   123.247340
	   37 B(5,7,12)       =    124.427407     0.000000    -0.000640   124.426767
	   38 B(5,7,20)       =    119.560288    -0.000000    -0.000995   119.559293
	   39 B(5,10,6)       =    114.399541    -0.000003    -0.005938   114.393604
	   40 B(5,10,9)       =    122.688746     0.000003     0.009860   122.698606
	   41 B(6,8,12)       =    124.460349     0.000000    -0.003903   124.456446
	   42 B(6,8,21)       =    119.544590    -0.000001    -0.001421   119.543169
	   43 B(6,10,9)       =    122.888369    -0.000000    -0.004400   122.883969
	   44 B(7,5,10)       =    120.810301     0.000001     0.003721   120.814022
	   45 B(7,5,18)       =    119.293588    -0.000002     0.003959   119.297547
	   46 B(7,12,8)       =    115.112731    -0.000001     0.002314   115.115045
	   47 B(8,6,10)       =    120.780888     0.000002     0.006106   120.786994
	   48 B(8,6,19)       =    119.273801    -0.000002     0.004580   119.278381
	   49 B(9,1,14)       =    119.073228    -0.000001    -0.002865   119.070364
	   50 B(9,2,15)       =    119.120891    -0.000001    -0.006540   119.114351
	   51 B(10,5,18)      =    119.883194     0.000000    -0.008077   119.875117
	   52 B(10,6,19)      =    119.925087    -0.000000    -0.011288   119.913799
	   53 B(11,3,16)      =    116.946762    -0.000001    -0.007903   116.938859
	   54 B(11,4,17)      =    116.931055    -0.000001    -0.006701   116.924354
	   55 B(12,7,20)      =    116.003968     0.000000     0.004564   116.008532
	   56 B(12,8,21)      =    115.990743     0.000001     0.007347   115.998090
	   57 D(1,3,11,4)     =     -0.666108     0.000000     0.022067    -0.644040
	   58 D(1,3,11,13)    =    179.486533    -0.000000    -0.057062   179.429471
	   59 D(1,9,2,4)      =     -1.367762    -0.000000    -0.017662    -1.385424
	   60 D(1,9,2,15)     =   -178.566821     0.000000     0.011407  -178.555414
	   61 D(1,9,10,5)     =     29.759773     0.000000     0.034322    29.794095
	   62 D(1,9,10,6)     =   -152.096827    -0.000000     0.015308  -152.081519
	   63 D(2,4,11,3)     =     -0.175365    -0.000000    -0.066954    -0.242319
	   64 D(2,4,11,13)    =    179.672042     0.000000     0.012150   179.684192
	   65 D(2,9,1,3)      =      0.529702    -0.000000    -0.026957     0.502746
	   66 D(2,9,1,14)     =   -177.096135    -0.000000     0.013443  -177.082693
	   67 D(2,9,10,5)     =   -152.980954     0.000000     0.091509  -152.889445
	   68 D(2,9,10,6)     =     25.162446     0.000000     0.072495    25.234941
	   69 D(3,1,9,10)     =    177.930840    -0.000000     0.027306   177.958146
	   70 D(3,11,4,17)    =    179.219285    -0.000000    -0.061979   179.157306
	   71 D(4,2,9,10)     =   -178.762030    -0.000000    -0.072488  -178.834518
	   72 D(4,11,3,16)    =    178.469318     0.000000     0.019004   178.488322
	   73 D(5,7,12,8)     =      0.270699    -0.000000    -0.066884     0.203815
	   74 D(5,10,6,8)     =     -0.362435    -0.000000    -0.087536    -0.449971
	   75 D(5,10,6,19)    =   -178.714749    -0.000000    -0.063244  -178.777993
	   76 D(6,8,12,7)     =      0.418994    -0.000000    -0.078898     0.340096
	   77 D(6,10,5,7)     =      0.997654    -0.000000    -0.046642     0.951012
	   78 D(6,10,5,18)    =   -177.685731    -0.000000    -0.026614  -177.712345
	   79 D(7,5,10,9)     =    179.285757    -0.000000    -0.064177   179.221580
	   80 D(7,12,8,21)    =    179.656890     0.000001     0.127667   179.784556
	   81 D(8,6,10,9)     =   -178.646690    -0.000000    -0.070239  -178.716929
	   82 D(8,12,7,20)    =    179.211917     0.000001     0.139130   179.351047
	   83 D(9,1,3,11)     =      0.493284     0.000000     0.023815     0.517099
	   84 D(9,1,3,16)     =   -178.615764     0.000000     0.026994  -178.588769
	   85 D(9,2,4,11)     =      1.223608     0.000000     0.067756     1.291364
	   86 D(9,2,4,17)     =   -178.152574     0.000000     0.062656  -178.089918
	   87 D(9,10,5,18)    =      0.602372    -0.000000    -0.044149     0.558223
	   88 D(9,10,6,19)    =      3.000995    -0.000000    -0.045947     2.955048
	   89 D(10,5,7,12)    =     -1.019816     0.000001     0.131671    -0.888144
	   90 D(10,5,7,20)    =   -179.925820    -0.000001    -0.081239  -180.007059
	   91 D(10,6,8,12)    =     -0.362230     0.000001     0.160356    -0.201874
	   92 D(10,6,8,21)    =   -179.574813    -0.000000    -0.053114  -179.627927
	   93 D(10,9,1,14)    =      0.305002     0.000000     0.067705     0.372708
	   94 D(10,9,2,15)    =      4.038911     0.000000    -0.043419     3.995492
	   95 D(11,3,1,14)    =    178.125621    -0.000000    -0.016567   178.109054
	   96 D(11,4,2,15)    =    178.432333     0.000000     0.038548   178.470881
	   97 D(12,7,5,18)    =    177.671241     0.000001     0.111601   177.782842
	   98 D(12,8,6,19)    =    178.000693     0.000001     0.135958   178.136651
	   99 D(13,11,3,16)   =     -1.378042    -0.000000    -0.060126    -1.438168
	  100 D(13,11,4,17)   =     -0.933309     0.000000     0.017126    -0.916183
	  101 D(14,1,3,16)    =     -0.983427    -0.000000    -0.013387    -0.996814
	  102 D(15,2,4,17)    =     -0.943849     0.000000     0.033448    -0.910402
	  103 D(18,5,7,20)    =     -1.234764    -0.000001    -0.101309    -1.336072
	  104 D(19,6,8,21)    =     -1.211890    -0.000001    -0.077512    -1.289403
	 ---------------------------------------------------------------------------
	Successfully symmetrized geometry.
	 Forces used to impose fixed constraints are not included.
	  Forces zeroed: 61 

  ==> Convergence Check <==

  Measures of convergence in internal coordinates in au.
  Criteria marked as inactive (o), active & met (*), and active & unmet ( ).
  ---------------------------------------------------------------------------------------------
   Step     Total Energy     Delta E     MAX Force     RMS Force      MAX Disp      RMS Disp   
  ---------------------------------------------------------------------------------------------
    Convergence Criteria    1.00e-06 *    3.00e-04 *             o    1.20e-03 *             o
  ---------------------------------------------------------------------------------------------
      7    -553.17878803    6.56e-07 *    5.10e-05 *    1.80e-05 o    2.80e-03      8.28e-04 o  ~
  ---------------------------------------------------------------------------------------------


  **** Optimization is complete! (in 7 steps) ****

  ==> Optimization Summary <==

  Measures of convergence in internal coordinates in au.
  --------------------------------------------------------------------------------------------------------------- ~
   Step         Total Energy             Delta E       MAX Force       RMS Force        MAX Disp        RMS Disp  ~
  --------------------------------------------------------------------------------------------------------------- ~
      1    -553.168579532377   -553.168579532377      0.02603601      0.00698965      0.03690048      0.00979145  ~
      2    -553.174197225058     -0.005617692681      0.01627214      0.00424877      0.03870295      0.00979321  ~
      3    -553.177382545868     -0.003185320811      0.00792262      0.00210237      0.03210226      0.00980291  ~
      4    -553.178595609228     -0.001213063359      0.00199284      0.00051817      0.04238310      0.00981027  ~
      5    -553.178774915342     -0.000179306115      0.00056673      0.00012558      0.01366821      0.00353990  ~
      6    -553.178788682524     -0.000013767181      0.00015015      0.00004604      0.00413810      0.00114871  ~
      7    -553.178788026117      0.000000656407      0.00005103      0.00001800      0.00279874      0.00082752  ~
  --------------------------------------------------------------------------------------------------------------- ~

	Writing optimization data to binary file.
	Final energy is   -553.1787880261165
	Final (previous) structure:
	Cartesian Geometry (in Angstrom)
	    C    -1.2825705093   0.7689597319  -0.5379899899
	    C    -0.3294234129   0.1047422239   1.5480665960
	    C    -2.3579287846   1.3205475323   0.1203485131
	    C    -1.3907639613   0.6672299461   2.2197859803
	    C     1.3182462301  -0.0151610791  -1.8031530476
	    C     1.6084765347  -1.5366747974  -0.0259195222
	    C     2.3871825674  -0.6233570329  -2.4349012239
	    C     2.6738339667  -2.0741269591  -0.7246911599
	    C    -0.2267461492   0.1465234339   0.1480188125
	    C     0.8718876680  -0.4658942345  -0.5524240492
	    C    -2.4842199838   1.3150555566   1.5508591837
	    N     3.0850260476  -1.6473065951  -1.9258886566
	    O    -3.4634477746   1.8275299908   2.1617317977
	    H    -1.2706320317   0.7833077038  -1.6212500716
	    H     0.4718833121  -0.3443874238   2.1222668473
	    H    -3.1645746250   1.7725262027  -0.4412958767
	    H    -1.4230193165   0.6427790635   3.3009161022
	    H     0.8380705169   0.8302206331  -2.2731330384
	    H     1.3286161748  -1.9676582759   0.9236852005
	    H     2.7157781467  -0.2579666532  -3.3999742848
	    H     3.2246014761  -2.9054630990  -0.3023370589
	Saving final (previous) structure.
			--------------------------
			 OPTKING Finished Execution 
			--------------------------

    Final optimized geometry and variables:
    Molecular point group: c1
    Full point group: C1

    Geometry (in Angstrom), charge = -1, multiplicity = 1:

    C           -1.282570509295     0.768959731867    -0.537989989867
    C           -0.329423412884     0.104742223922     1.548066595974
    C           -2.357928784582     1.320547532308     0.120348513124
    C           -1.390763961350     0.667229946097     2.219785980270
    C            1.318246230100    -0.015161079132    -1.803153047600
    C            1.608476534710    -1.536674797359    -0.025919522190
    C            2.387182567427    -0.623357032854    -2.434901223922
    C            2.673833966733    -2.074126959063    -0.724691159923
    C           -0.226746149209     0.146523433854     0.148018812490
    C            0.871887667960    -0.465894234524    -0.552424049175
    C           -2.484219983845     1.315055556596     1.550859183726
    N            3.085026047618    -1.647306595101    -1.925888656642
    O           -3.463447774580     1.827529990757     2.161731797705
    H           -1.270632031741     0.783307703811    -1.621250071591
    H            0.471883312055    -0.344387423842     2.122266847277
    H           -3.164574625003     1.772526202695    -0.441295876652
    H           -1.423019316502     0.642779063500     3.300916102202
    H            0.838070516852     0.830220633100    -2.273133038356
    H            1.328616174793    -1.967658275870     0.923685200521
    H            2.715778146661    -0.257966653168    -3.399974284804
    H            3.224601476108    -2.905463099011    -0.302337058945

	Cleaning optimization helper files.

*** Psi4 exiting successfully. Buy a developer a beer!
