
    -----------------------------------------------------------------------
          Psi4: An Open-Source Ab Initio Electronic Structure Package
                               Psi4 1.1 release

                         Git: Rev {HEAD} add49b9 


    R. M. Parrish, L. A. Burns, D. G. A. Smith, A. C. Simmonett,
    A. E. DePrince III, E. G. Hohenstein, U. Bozkaya, A. Yu. Sokolov,
    R. Di Remigio, R. M. Richard, J. F. Gonthier, A. M. James,
    H. R. McAlexander, A. Kumar, M. Saitow, X. Wang, B. P. Pritchard,
    P. Verma, H. F. Schaefer III, K. Patkowski, R. A. King, E. F. Valeev,
    F. A. Evangelista, J. M. Turney, T. D. Crawford, and C. D. Sherrill,
    J. Chem. Theory Comput. in press (2017).
    (doi: 10.1021/acs.jctc.7b00174)

    -----------------------------------------------------------------------


    Psi4 started on: Sunday, 12 November 2017 04:48PM

    Process ID:   3363
    PSIDATADIR: /cbio/jclab/home/chayas/anaconda/envs/py35/share/psi4
    Memory:     500.0 MiB
    Threads:    8
    
  ==> Input File <==

--------------------------------------------------------------------------

memory 5 Gb

molecule phepyrOH_zwitterion {
  symmetry C1
  0 1 
  C      1.885   -1.036   -0.112
  C      2.878   -1.652   2.002
  C      0.807   -0.463   0.561
  C      1.800   -1.079   2.676
  C      4.835   -1.446   -0.924
  C      4.323   -3.579   0.071
  C      5.901   -2.043   -1.582
  C      5.402   -4.122   -0.612
  C      2.921   -1.631   0.608
  C      4.040   -2.226   -0.090
  C      0.764   -0.484   1.955
  N      6.151   -3.348   -1.409
  O      -0.227   0.042   2.574
  H      1.904   -1.011   -1.199
  H      3.678   -2.112   2.577
  H      0.011   -0.006   -0.025
  H      1.791   -1.108   3.764
  H      4.638   -0.387   -1.068
  H      3.719   -4.211   0.715
  H      6.571   -1.516   -2.247
  H      5.695   -5.161   -0.547
  H      6.938   -3.767   -1.902
  units Angstrom
}

dih_string = "1 9 10 5 60"
set optking fixed_dihedral = $dih_string

optimize('MP2/aug-cc-PVTZ')
--------------------------------------------------------------------------

  Memory set to   4.657 GiB by Python driver.
gradient() will perform analytic gradient computation.

*** tstart() called on gpu-3-8.local
*** at Sun Nov 12 16:48:53 2017

    SCF Algorithm Type (re)set to DF.

*** tstart() called on gpu-3-8.local
*** at Sun Nov 12 16:48:53 2017

   => Loading Basis Set <=

    Name: AUG-CC-PVTZ
    Role: ORBITAL
    Keyword: BASIS
    atoms 1-11  entry C          line   221 file /cbio/jclab/home/chayas/anaconda/envs/py35/share/psi4/basis/aug-cc-pvtz.gbs 
    atoms 12    entry N          line   267 file /cbio/jclab/home/chayas/anaconda/envs/py35/share/psi4/basis/aug-cc-pvtz.gbs 
    atoms 13    entry O          line   313 file /cbio/jclab/home/chayas/anaconda/envs/py35/share/psi4/basis/aug-cc-pvtz.gbs 
    atoms 14-22 entry H          line    34 file /cbio/jclab/home/chayas/anaconda/envs/py35/share/psi4/basis/aug-cc-pvtz.gbs 


         ---------------------------------------------------------
                                   SCF
            by Justin Turney, Rob Parrish, and Andy Simmonett
                              RHF Reference
                        8 Threads,   4768 MiB Core
         ---------------------------------------------------------

  ==> Geometry <==

    Molecular point group: c1
    Full point group: C1

    Geometry (in Angstrom), charge = 0, multiplicity = 1:

       Center              X                  Y                   Z               Mass       
    ------------   -----------------  -----------------  -----------------  -----------------
           C         -1.297308737646     0.733890520533    -0.557114964934    12.000000000000
           C         -0.304308737646     0.117890520533     1.556885035066    12.000000000000
           C         -2.375308737646     1.306890520533     0.115885035066    12.000000000000
           C         -1.382308737646     0.690890520533     2.230885035066    12.000000000000
           C          1.652691262354     0.323890520533    -1.369114964934    12.000000000000
           C          1.140691262354    -1.809109479467    -0.374114964934    12.000000000000
           C          2.718691262354    -0.273109479467    -2.027114964934    12.000000000000
           C          2.219691262354    -2.352109479467    -1.057114964934    12.000000000000
           C         -0.261308737646     0.138890520533     0.162885035066    12.000000000000
           C          0.857691262354    -0.456109479467    -0.535114964934    12.000000000000
           C         -2.418308737646     1.285890520533     1.509885035066    12.000000000000
           N          2.968691262354    -1.578109479467    -1.854114964934    14.003074004780
           O         -3.409308737646     1.811890520533     2.128885035066    15.994914619560
           H         -1.278308737646     0.758890520533    -1.644114964934     1.007825032070
           H          0.495691262354    -0.342109479467     2.131885035066     1.007825032070
           H         -3.171308737646     1.763890520533    -0.470114964934     1.007825032070
           H         -1.391308737646     0.661890520533     3.318885035066     1.007825032070
           H          1.455691262354     1.382890520533    -1.513114964934     1.007825032070
           H          0.536691262354    -2.441109479467     0.269885035066     1.007825032070
           H          3.388691262354     0.253890520533    -2.692114964934     1.007825032070
           H          2.512691262354    -3.391109479467    -0.992114964934     1.007825032070
           H          3.755691262354    -1.997109479467    -2.347114964934     1.007825032070

  Running in c1 symmetry.

  Rotational constants: A =      0.09650  B =      0.01338  C =      0.01252 [cm^-1]
  Rotational constants: A =   2893.13373  B =    401.24287  C =    375.21623 [MHz]
  Nuclear repulsion =  700.540105771595904

  Charge       = 0
  Multiplicity = 1
  Electrons    = 90
  Nalpha       = 45
  Nbeta        = 45

  ==> Algorithm <==

  SCF Algorithm Type is DF.
  DIIS enabled.
  MOM disabled.
  Fractional occupation disabled.
  Guess Type is SAD.
  Energy threshold   = 1.00e-10
  Density threshold  = 1.00e-10
  Integral threshold = 0.00e+00

  ==> Primary Basis <==

  Basis Set: AUG-CC-PVTZ
    Blend: AUG-CC-PVTZ
    Number of shells: 263
    Number of basis function: 805
    Number of Cartesian functions: 940
    Spherical Harmonics?: true
    Max angular momentum: 3

   => Loading Basis Set <=

    Name: (AUG-CC-PVTZ AUX)
    Role: JKFIT
    Keyword: DF_BASIS_SCF
    atoms 1-11  entry C          line   161 file /cbio/jclab/home/chayas/anaconda/envs/py35/share/psi4/basis/aug-cc-pvtz-jkfit.gbs 
    atoms 12    entry N          line   223 file /cbio/jclab/home/chayas/anaconda/envs/py35/share/psi4/basis/aug-cc-pvtz-jkfit.gbs 
    atoms 13    entry O          line   285 file /cbio/jclab/home/chayas/anaconda/envs/py35/share/psi4/basis/aug-cc-pvtz-jkfit.gbs 
    atoms 14-22 entry H          line    69 file /cbio/jclab/home/chayas/anaconda/envs/py35/share/psi4/basis/aug-cc-pvtz-jkfit.gbs 

  ==> Pre-Iterations <==

   -------------------------------------------------------
    Irrep   Nso     Nmo     Nalpha   Nbeta   Ndocc  Nsocc
   -------------------------------------------------------
     A        805     805       0       0       0       0
   -------------------------------------------------------
    Total     805     805      45      45      45       0
   -------------------------------------------------------

  ==> Integral Setup <==

  ==> DFJK: Density-Fitted J/K Matrices <==

    J tasked:                  Yes
    K tasked:                  Yes
    wK tasked:                  No
    OpenMP threads:              8
    Integrals threads:           8
    Memory (MB):              3576
    Algorithm:                Disk
    Integral Cache:           NONE
    Schwarz Cutoff:          1E-12
    Fitting Condition:       1E-12

   => Auxiliary Basis Set <=

  Basis Set: (AUG-CC-PVTZ AUX)
    Blend: AUG-CC-PVTZ-JKFIT
    Number of shells: 516
    Number of basis function: 1766
    Number of Cartesian functions: 2198
    Spherical Harmonics?: true
    Max angular momentum: 4

  Minimum eigenvalue in the overlap matrix is 7.0267082553E-07.
  Using Symmetric Orthogonalization.

  SCF Guess: Superposition of Atomic Densities via on-the-fly atomic UHF.

  ==> Iterations <==

                           Total Energy        Delta E     RMS |[F,P]|

   @DF-RHF iter   0:  -558.28275944786651   -5.58283e+02   2.06128e-02 
   @DF-RHF iter   1:  -550.75215486611194    7.53060e+00   2.49134e-03 
   @DF-RHF iter   2:  -550.99459439851307   -2.42440e-01   2.00864e-03 DIIS
   @DF-RHF iter   3:  -551.16695954787747   -1.72365e-01   4.57948e-04 DIIS
   @DF-RHF iter   4:  -551.19367989679085   -2.67203e-02   1.96612e-04 DIIS
   @DF-RHF iter   5:  -551.19733017123099   -3.65027e-03   9.51521e-05 DIIS
   @DF-RHF iter   6:  -551.19829289611414   -9.62725e-04   4.01801e-05 DIIS
   @DF-RHF iter   7:  -551.19851775730342   -2.24861e-04   1.47398e-05 DIIS
   @DF-RHF iter   8:  -551.19855241687605   -3.46596e-05   4.64345e-06 DIIS
   @DF-RHF iter   9:  -551.19855819293332   -5.77606e-06   2.03897e-06 DIIS
   @DF-RHF iter  10:  -551.19855916370886   -9.70776e-07   7.48824e-07 DIIS
   @DF-RHF iter  11:  -551.19855930618053   -1.42472e-07   2.80971e-07 DIIS
   @DF-RHF iter  12:  -551.19855931824111   -1.20606e-08   8.34859e-08 DIIS
   @DF-RHF iter  13:  -551.19855931978987   -1.54876e-09   3.44474e-08 DIIS
   @DF-RHF iter  14:  -551.19855932002793   -2.38060e-10   1.29703e-08 DIIS
   @DF-RHF iter  15:  -551.19855932008159   -5.36602e-11   7.88798e-09 DIIS
   @DF-RHF iter  16:  -551.19855932010421   -2.26237e-11   4.01330e-09 DIIS
   @DF-RHF iter  17:  -551.19855932008181    2.23963e-11   1.66348e-09 DIIS
   @DF-RHF iter  18:  -551.19855932009989   -1.80762e-11   9.13205e-10 DIIS
   @DF-RHF iter  19:  -551.19855932008682    1.30740e-11   4.01032e-10 DIIS
   @DF-RHF iter  20:  -551.19855932009796   -1.11413e-11   1.90116e-10 DIIS
   @DF-RHF iter  21:  -551.19855932009716    7.95808e-13   8.73656e-11 DIIS

  ==> Post-Iterations <==

    Orbital Energies (a.u.)
    -----------------------

    Doubly Occupied:                                                      

       1A    -20.406149     2A    -15.721366     3A    -11.371586  
       4A    -11.371558     5A    -11.317723     6A    -11.298454  
       7A    -11.298386     8A    -11.225280     9A    -11.217547  
      10A    -11.217508    11A    -11.202802    12A    -11.173182  
      13A    -11.173139    14A     -1.401487    15A     -1.235135  
      16A     -1.186825    17A     -1.124919    18A     -1.101822  
      19A     -0.990101    20A     -0.982205    21A     -0.951069  
      22A     -0.904049    23A     -0.852437    24A     -0.800627  
      25A     -0.776581    26A     -0.750238    27A     -0.724477  
      28A     -0.695156    29A     -0.684538    30A     -0.668830  
      31A     -0.617081    32A     -0.609301    33A     -0.596412  
      34A     -0.593406    35A     -0.552911    36A     -0.524450  
      37A     -0.496965    38A     -0.476714    39A     -0.460933  
      40A     -0.453643    41A     -0.428990    42A     -0.390514  
      43A     -0.321144    44A     -0.311445    45A     -0.219404  

    Virtual:                                                              

      46A     -0.014498    47A      0.007115    48A      0.010631  
      49A      0.020000    50A      0.031362    51A      0.037384  
      52A      0.038990    53A      0.045224    54A      0.050486  
      55A      0.051990    56A      0.062288    57A      0.065986  
      58A      0.069880    59A      0.070728    60A      0.077246  
      61A      0.086832    62A      0.089815    63A      0.099848  
      64A      0.101153    65A      0.105533    66A      0.113899  
      67A      0.119299    68A      0.122525    69A      0.126072  
      70A      0.126141    71A      0.128236    72A      0.132141  
      73A      0.132284    74A      0.138386    75A      0.147963  
      76A      0.152776    77A      0.153796    78A      0.159437  
      79A      0.164117    80A      0.166285    81A      0.166331  
      82A      0.178881    83A      0.180966    84A      0.183295  
      85A      0.187109    86A      0.193051    87A      0.194312  
      88A      0.196152    89A      0.205674    90A      0.206105  
      91A      0.206705    92A      0.214239    93A      0.217053  
      94A      0.223111    95A      0.226836    96A      0.236384  
      97A      0.236908    98A      0.244553    99A      0.248700  
     100A      0.251607   101A      0.255376   102A      0.259649  
     103A      0.263739   104A      0.268433   105A      0.271094  
     106A      0.273963   107A      0.274477   108A      0.283706  
     109A      0.291602   110A      0.293606   111A      0.294647  
     112A      0.303064   113A      0.310812   114A      0.311973  
     115A      0.313551   116A      0.316276   117A      0.323188  
     118A      0.328537   119A      0.331661   120A      0.332229  
     121A      0.343236   122A      0.344450   123A      0.346535  
     124A      0.350803   125A      0.352557   126A      0.362094  
     127A      0.366241   128A      0.368592   129A      0.372250  
     130A      0.373827   131A      0.375792   132A      0.378138  
     133A      0.386246   134A      0.389603   135A      0.398953  
     136A      0.399606   137A      0.413141   138A      0.416732  
     139A      0.420223   140A      0.421082   141A      0.425421  
     142A      0.432115   143A      0.433171   144A      0.439224  
     145A      0.439700   146A      0.447583   147A      0.456694  
     148A      0.457468   149A      0.461649   150A      0.464984  
     151A      0.469336   152A      0.472252   153A      0.475246  
     154A      0.477115   155A      0.480708   156A      0.481073  
     157A      0.487263   158A      0.490724   159A      0.491986  
     160A      0.497830   161A      0.499889   162A      0.503044  
     163A      0.506144   164A      0.508931   165A      0.517341  
     166A      0.517682   167A      0.526330   168A      0.527206  
     169A      0.533893   170A      0.537730   171A      0.546227  
     172A      0.548918   173A      0.558697   174A      0.561099  
     175A      0.563512   176A      0.570393   177A      0.576087  
     178A      0.576213   179A      0.583631   180A      0.590689  
     181A      0.595149   182A      0.603394   183A      0.604065  
     184A      0.604543   185A      0.610111   186A      0.614743  
     187A      0.624064   188A      0.637829   189A      0.640626  
     190A      0.644689   191A      0.653612   192A      0.661502  
     193A      0.666452   194A      0.668410   195A      0.668662  
     196A      0.679515   197A      0.683507   198A      0.691738  
     199A      0.695784   200A      0.699906   201A      0.700199  
     202A      0.711798   203A      0.719025   204A      0.720710  
     205A      0.722437   206A      0.728835   207A      0.729960  
     208A      0.744101   209A      0.750211   210A      0.753054  
     211A      0.753208   212A      0.759602   213A      0.763210  
     214A      0.770220   215A      0.774211   216A      0.781309  
     217A      0.790779   218A      0.795505   219A      0.802195  
     220A      0.812230   221A      0.820064   222A      0.824574  
     223A      0.831821   224A      0.837117   225A      0.841930  
     226A      0.854376   227A      0.863145   228A      0.866764  
     229A      0.873819   230A      0.874926   231A      0.878799  
     232A      0.885243   233A      0.894239   234A      0.900071  
     235A      0.901573   236A      0.907463   237A      0.910260  
     238A      0.913030   239A      0.918105   240A      0.918162  
     241A      0.924147   242A      0.925361   243A      0.927685  
     244A      0.933524   245A      0.935152   246A      0.937679  
     247A      0.943711   248A      0.947212   249A      0.959011  
     250A      0.962741   251A      0.965277   252A      0.976988  
     253A      0.978512   254A      0.982966   255A      0.985671  
     256A      0.994900   257A      1.002588   258A      1.006941  
     259A      1.008266   260A      1.017742   261A      1.019640  
     262A      1.024921   263A      1.028089   264A      1.033131  
     265A      1.036895   266A      1.037784   267A      1.046196  
     268A      1.047764   269A      1.050606   270A      1.055048  
     271A      1.059755   272A      1.071812   273A      1.078442  
     274A      1.085483   275A      1.085590   276A      1.088985  
     277A      1.091754   278A      1.097729   279A      1.099577  
     280A      1.106414   281A      1.110692   282A      1.113630  
     283A      1.115978   284A      1.117957   285A      1.128008  
     286A      1.128911   287A      1.132797   288A      1.141970  
     289A      1.143647   290A      1.151304   291A      1.151576  
     292A      1.162778   293A      1.168034   294A      1.177528  
     295A      1.181482   296A      1.191210   297A      1.194615  
     298A      1.198321   299A      1.200474   300A      1.202888  
     301A      1.211729   302A      1.216680   303A      1.225910  
     304A      1.230258   305A      1.231531   306A      1.232266  
     307A      1.245722   308A      1.245804   309A      1.252463  
     310A      1.259381   311A      1.260653   312A      1.267346  
     313A      1.269592   314A      1.276440   315A      1.282137  
     316A      1.288840   317A      1.304336   318A      1.308191  
     319A      1.315594   320A      1.317570   321A      1.318698  
     322A      1.324854   323A      1.330787   324A      1.339895  
     325A      1.344300   326A      1.355086   327A      1.359681  
     328A      1.369450   329A      1.372735   330A      1.379626  
     331A      1.388771   332A      1.392079   333A      1.403217  
     334A      1.410873   335A      1.415836   336A      1.417414  
     337A      1.433769   338A      1.436706   339A      1.441769  
     340A      1.452988   341A      1.455006   342A      1.458768  
     343A      1.467585   344A      1.476093   345A      1.480732  
     346A      1.485491   347A      1.504172   348A      1.506220  
     349A      1.509667   350A      1.525225   351A      1.529245  
     352A      1.537905   353A      1.540954   354A      1.547045  
     355A      1.551381   356A      1.573930   357A      1.576012  
     358A      1.581116   359A      1.593844   360A      1.600338  
     361A      1.615056   362A      1.618282   363A      1.622096  
     364A      1.626664   365A      1.639696   366A      1.642922  
     367A      1.643494   368A      1.661317   369A      1.662836  
     370A      1.667248   371A      1.676957   372A      1.695168  
     373A      1.698558   374A      1.712281   375A      1.720961  
     376A      1.721679   377A      1.731057   378A      1.736647  
     379A      1.754165   380A      1.755795   381A      1.764926  
     382A      1.770064   383A      1.775703   384A      1.800610  
     385A      1.800692   386A      1.808217   387A      1.819031  
     388A      1.826414   389A      1.829702   390A      1.842480  
     391A      1.845419   392A      1.851342   393A      1.862869  
     394A      1.864466   395A      1.878015   396A      1.894423  
     397A      1.894834   398A      1.909898   399A      1.911385  
     400A      1.930805   401A      1.933784   402A      1.938464  
     403A      1.943802   404A      1.949746   405A      1.956677  
     406A      1.959921   407A      1.966533   408A      1.972248  
     409A      1.986191   410A      1.987149   411A      2.005967  
     412A      2.008051   413A      2.018014   414A      2.023742  
     415A      2.026522   416A      2.031185   417A      2.038957  
     418A      2.047138   419A      2.047699   420A      2.066941  
     421A      2.067756   422A      2.078059   423A      2.079041  
     424A      2.109960   425A      2.112940   426A      2.123564  
     427A      2.134724   428A      2.139767   429A      2.149161  
     430A      2.149922   431A      2.158431   432A      2.163909  
     433A      2.173498   434A      2.192986   435A      2.199300  
     436A      2.202737   437A      2.202992   438A      2.210055  
     439A      2.223017   440A      2.231569   441A      2.232554  
     442A      2.243337   443A      2.264502   444A      2.284149  
     445A      2.288577   446A      2.290431   447A      2.311480  
     448A      2.311903   449A      2.320098   450A      2.337592  
     451A      2.341218   452A      2.359831   453A      2.360837  
     454A      2.379213   455A      2.386404   456A      2.397507  
     457A      2.405629   458A      2.423676   459A      2.429040  
     460A      2.435530   461A      2.450594   462A      2.455193  
     463A      2.457004   464A      2.477039   465A      2.494094  
     466A      2.494251   467A      2.510655   468A      2.514664  
     469A      2.517988   470A      2.533889   471A      2.535098  
     472A      2.542672   473A      2.556869   474A      2.570752  
     475A      2.578652   476A      2.600327   477A      2.617057  
     478A      2.633617   479A      2.644885   480A      2.645325  
     481A      2.650494   482A      2.659298   483A      2.680725  
     484A      2.682756   485A      2.707097   486A      2.710974  
     487A      2.723123   488A      2.765695   489A      2.772128  
     490A      2.776505   491A      2.793813   492A      2.804142  
     493A      2.836492   494A      2.840256   495A      2.854589  
     496A      2.882463   497A      2.902837   498A      2.908312  
     499A      2.925017   500A      2.955864   501A      2.997799  
     502A      3.028227   503A      3.031272   504A      3.052431  
     505A      3.067645   506A      3.083338   507A      3.092619  
     508A      3.105559   509A      3.124797   510A      3.173219  
     511A      3.174866   512A      3.180863   513A      3.205061  
     514A      3.228269   515A      3.236458   516A      3.241969  
     517A      3.261265   518A      3.271434   519A      3.280265  
     520A      3.287993   521A      3.314638   522A      3.317626  
     523A      3.332754   524A      3.355770   525A      3.373201  
     526A      3.374354   527A      3.385769   528A      3.400774  
     529A      3.403720   530A      3.411937   531A      3.421582  
     532A      3.442571   533A      3.445367   534A      3.451126  
     535A      3.452788   536A      3.467847   537A      3.477140  
     538A      3.500711   539A      3.515521   540A      3.515971  
     541A      3.518273   542A      3.532968   543A      3.542261  
     544A      3.543579   545A      3.549942   546A      3.565001  
     547A      3.576781   548A      3.579132   549A      3.585667  
     550A      3.596126   551A      3.599939   552A      3.619510  
     553A      3.629079   554A      3.634225   555A      3.639513  
     556A      3.649047   557A      3.656834   558A      3.679505  
     559A      3.683400   560A      3.691519   561A      3.699452  
     562A      3.705023   563A      3.706133   564A      3.717260  
     565A      3.733280   566A      3.742219   567A      3.760775  
     568A      3.764538   569A      3.781247   570A      3.784623  
     571A      3.801805   572A      3.804434   573A      3.812806  
     574A      3.821851   575A      3.825360   576A      3.828470  
     577A      3.833226   578A      3.850949   579A      3.858974  
     580A      3.866024   581A      3.873947   582A      3.893896  
     583A      3.899363   584A      3.916910   585A      3.919074  
     586A      3.932164   587A      3.940104   588A      3.949462  
     589A      3.950763   590A      3.960981   591A      3.974498  
     592A      3.980259   593A      3.993825   594A      4.007238  
     595A      4.012872   596A      4.014576   597A      4.020257  
     598A      4.023641   599A      4.027761   600A      4.043956  
     601A      4.062591   602A      4.066315   603A      4.078953  
     604A      4.084081   605A      4.090503   606A      4.092010  
     607A      4.101281   608A      4.111065   609A      4.129808  
     610A      4.145774   611A      4.152321   612A      4.158088  
     613A      4.166155   614A      4.166734   615A      4.181331  
     616A      4.192052   617A      4.196672   618A      4.203884  
     619A      4.215281   620A      4.232808   621A      4.234299  
     622A      4.234590   623A      4.250437   624A      4.270519  
     625A      4.285404   626A      4.294757   627A      4.305841  
     628A      4.309132   629A      4.319209   630A      4.330866  
     631A      4.337976   632A      4.338667   633A      4.356205  
     634A      4.359856   635A      4.366518   636A      4.378187  
     637A      4.382896   638A      4.392157   639A      4.396511  
     640A      4.405436   641A      4.414164   642A      4.427225  
     643A      4.443614   644A      4.445194   645A      4.455329  
     646A      4.456384   647A      4.476215   648A      4.484861  
     649A      4.491108   650A      4.493539   651A      4.514779  
     652A      4.521043   653A      4.529399   654A      4.540103  
     655A      4.559169   656A      4.570638   657A      4.571037  
     658A      4.590658   659A      4.606387   660A      4.610131  
     661A      4.631803   662A      4.636053   663A      4.675027  
     664A      4.698342   665A      4.720064   666A      4.721824  
     667A      4.728596   668A      4.742574   669A      4.753580  
     670A      4.759417   671A      4.789696   672A      4.796947  
     673A      4.806537   674A      4.824429   675A      4.834721  
     676A      4.860897   677A      4.866963   678A      4.873388  
     679A      4.882191   680A      4.892287   681A      4.910319  
     682A      4.937322   683A      4.943674   684A      4.946702  
     685A      4.951668   686A      4.963251   687A      4.990578  
     688A      5.001034   689A      5.017911   690A      5.022926  
     691A      5.037795   692A      5.041359   693A      5.050063  
     694A      5.057617   695A      5.079313   696A      5.085173  
     697A      5.116924   698A      5.118033   699A      5.127672  
     700A      5.133607   701A      5.148184   702A      5.154621  
     703A      5.177444   704A      5.181512   705A      5.188861  
     706A      5.192571   707A      5.208702   708A      5.219059  
     709A      5.229757   710A      5.232265   711A      5.273134  
     712A      5.274204   713A      5.297004   714A      5.313598  
     715A      5.321390   716A      5.345214   717A      5.354900  
     718A      5.379806   719A      5.387252   720A      5.390560  
     721A      5.401137   722A      5.409774   723A      5.450139  
     724A      5.451621   725A      5.468111   726A      5.499915  
     727A      5.501046   728A      5.511906   729A      5.559779  
     730A      5.580904   731A      5.616607   732A      5.624431  
     733A      5.643482   734A      5.696486   735A      5.698303  
     736A      5.721039   737A      5.722590   738A      5.745995  
     739A      5.784692   740A      5.790167   741A      5.795621  
     742A      5.811965   743A      5.839752   744A      5.845132  
     745A      5.888161   746A      5.947928   747A      5.958969  
     748A      6.010787   749A      6.042861   750A      6.095495  
     751A      6.105005   752A      6.134398   753A      6.145573  
     754A      6.161603   755A      6.237389   756A      6.262509  
     757A      6.290806   758A      6.334567   759A      6.352390  
     760A      6.375884   761A      6.431275   762A      6.479946  
     763A      6.502664   764A      6.549026   765A      6.575456  
     766A      6.617348   767A      6.629664   768A      6.682167  
     769A      6.772993   770A      6.774200   771A      6.795567  
     772A      6.856028   773A      6.881803   774A      6.923701  
     775A      6.950862   776A      6.961409   777A      7.004655  
     778A      7.084538   779A      7.088744   780A      7.142941  
     781A      7.204146   782A      7.245707   783A      7.254359  
     784A      7.511092   785A      7.537287   786A      7.563715  
     787A      7.652878   788A      7.829004   789A      7.839322  
     790A      7.922607   791A      8.047964   792A      8.115066  
     793A     16.009926   794A     16.172904   795A     16.291291  
     796A     16.566618   797A     17.101433   798A     18.852085  
     799A     19.201702   800A     19.656076   801A     19.834260  
     802A     20.124650   803A     20.131155   804A     20.301751  
     805A     21.773883  

    Final Occupation by Irrep:
              A 
    DOCC [    45 ]

  Energy converged.

  @DF-RHF Final Energy:  -551.19855932009716

   => Energetics <=

    Nuclear Repulsion Energy =            700.5401057715959041
    One-Electron Energy =               -2137.7203524848364395
    Two-Electron Energy =                 885.9816873931434884
    DFT Exchange-Correlation Energy =       0.0000000000000000
    Empirical Dispersion Energy =           0.0000000000000000
    PCM Polarization Energy =               0.0000000000000000
    EFP Energy =                            0.0000000000000000
    Total Energy =                       -551.1985593200971607



Properties will be evaluated at   0.000000,   0.000000,   0.000000 Bohr

Properties computed using the SCF density matrix

  Nuclear Dipole Moment: (a.u.)
     X:     5.8850      Y:    -3.1272      Z:    -3.6762

  Electronic Dipole Moment: (a.u.)
     X:     0.6936      Y:    -0.3694      Z:    -0.4329

  Dipole Moment: (a.u.)
     X:     6.5786      Y:    -3.4966      Z:    -4.1090     Total:     8.5081

  Dipole Moment: (Debye)
     X:    16.7211      Y:    -8.8874      Z:   -10.4441     Total:    21.6255


*** tstop() called on gpu-3-8.local at Sun Nov 12 16:57:32 2017
Module time:
	user time   =    1232.29 seconds =      20.54 minutes
	system time =      54.64 seconds =       0.91 minutes
	total time  =        519 seconds =       8.65 minutes
Total time:
	user time   =    1232.29 seconds =      20.54 minutes
	system time =      54.64 seconds =       0.91 minutes
	total time  =        519 seconds =       8.65 minutes

  //>>>>>>>>>>>>>>>>>>>>>>>>>>>>>>>>>>>//
  //               DFMP2               //
  //<<<<<<<<<<<<<<<<<<<<<<<<<<<<<<<<<<<//

   => Loading Basis Set <=

    Name: (AUG-CC-PVTZ AUX)
    Role: RIFIT
    Keyword: DF_BASIS_MP2
    atoms 1-11  entry C          line   147 file /cbio/jclab/home/chayas/anaconda/envs/py35/share/psi4/basis/aug-cc-pvtz-ri.gbs 
    atoms 12    entry N          line   205 file /cbio/jclab/home/chayas/anaconda/envs/py35/share/psi4/basis/aug-cc-pvtz-ri.gbs 
    atoms 13    entry O          line   263 file /cbio/jclab/home/chayas/anaconda/envs/py35/share/psi4/basis/aug-cc-pvtz-ri.gbs 
    atoms 14-22 entry H          line    29 file /cbio/jclab/home/chayas/anaconda/envs/py35/share/psi4/basis/aug-cc-pvtz-ri.gbs 

	 --------------------------------------------------------
	                          DF-MP2                         
	      2nd-Order Density-Fitted Moller-Plesset Theory     
	              RMP2 Wavefunction,   8 Threads             
	                                                         
	        Rob Parrish, Justin Turney, Andy Simmonett,      
	           Ed Hohenstein, and C. David Sherrill          
	 --------------------------------------------------------

   => Auxiliary Basis Set <=

  Basis Set: (AUG-CC-PVTZ AUX)
    Blend: AUG-CC-PVTZ-RI
    Number of shells: 490
    Number of basis function: 1792
    Number of Cartesian functions: 2263
    Spherical Harmonics?: true
    Max angular momentum: 4

	 --------------------------------------------------------
	                 NBF =   805, NAUX =  1792
	 --------------------------------------------------------
	   CLASS    FOCC     OCC    AOCC    AVIR     VIR    FVIR
	   PAIRS       0      45      45     760     760       0
	 --------------------------------------------------------


         ------------------------------------------------------------
                                     CPHF                           
                                  Rob Parrish                       
         ------------------------------------------------------------

  ==> Geometry <==

    Molecular point group: c1
    Full point group: C1

    Geometry (in Angstrom), charge = 0, multiplicity = 1:

       Center              X                  Y                   Z               Mass       
    ------------   -----------------  -----------------  -----------------  -----------------
           C         -1.297308737646     0.733890520533    -0.557114964934    12.000000000000
           C         -0.304308737646     0.117890520533     1.556885035066    12.000000000000
           C         -2.375308737646     1.306890520533     0.115885035066    12.000000000000
           C         -1.382308737646     0.690890520533     2.230885035066    12.000000000000
           C          1.652691262354     0.323890520533    -1.369114964934    12.000000000000
           C          1.140691262354    -1.809109479467    -0.374114964934    12.000000000000
           C          2.718691262354    -0.273109479467    -2.027114964934    12.000000000000
           C          2.219691262354    -2.352109479467    -1.057114964934    12.000000000000
           C         -0.261308737646     0.138890520533     0.162885035066    12.000000000000
           C          0.857691262354    -0.456109479467    -0.535114964934    12.000000000000
           C         -2.418308737646     1.285890520533     1.509885035066    12.000000000000
           N          2.968691262354    -1.578109479467    -1.854114964934    14.003074004780
           O         -3.409308737646     1.811890520533     2.128885035066    15.994914619560
           H         -1.278308737646     0.758890520533    -1.644114964934     1.007825032070
           H          0.495691262354    -0.342109479467     2.131885035066     1.007825032070
           H         -3.171308737646     1.763890520533    -0.470114964934     1.007825032070
           H         -1.391308737646     0.661890520533     3.318885035066     1.007825032070
           H          1.455691262354     1.382890520533    -1.513114964934     1.007825032070
           H          0.536691262354    -2.441109479467     0.269885035066     1.007825032070
           H          3.388691262354     0.253890520533    -2.692114964934     1.007825032070
           H          2.512691262354    -3.391109479467    -0.992114964934     1.007825032070
           H          3.755691262354    -1.997109479467    -2.347114964934     1.007825032070

  Nuclear repulsion =  700.540105771595904
  Reference energy  = -551.198559320097161

  ==> Basis Set <==

  Basis Set: AUG-CC-PVTZ
    Blend: AUG-CC-PVTZ
    Number of shells: 263
    Number of basis function: 805
    Number of Cartesian functions: 940
    Spherical Harmonics?: true
    Max angular momentum: 3

  ==> CGRSolver (by Rob Parrish) <==

   Number of roots    =         1
   Preconditioning    =    JACOBI
   Convergence cutoff =     1E-06
   Maximum iterations =       100

  ==> CPHFRHamiltonian (by Rob Parrish) <== 

  ==> DFJK: Density-Fitted J/K Matrices <==

    J tasked:                  Yes
    K tasked:                  Yes
    wK tasked:                  No
    OpenMP threads:              8
    Integrals threads:           8
    Memory (MB):              3576
    Algorithm:                Disk
    Integral Cache:           NONE
    Schwarz Cutoff:          1E-12
    Fitting Condition:       1E-12

   => Auxiliary Basis Set <=

  Basis Set: (AUG-CC-PVTZ AUX)
    Blend: AUG-CC-PVTZ-JKFIT
    Number of shells: 516
    Number of basis function: 1766
    Number of Cartesian functions: 2198
    Spherical Harmonics?: true
    Max angular momentum: 4

  ==> CPHF Iterations <==

  => Iterations <=

             Iter  Converged  Remaining    Residual
  CGR           1          0          1   1.641E-01
  CGR           2          0          1   6.741E-02
  CGR           3          0          1   3.453E-02
  CGR           4          0          1   1.004E-02
  CGR           5          0          1   4.083E-03
  CGR           6          0          1   2.086E-03
  CGR           7          0          1   9.161E-04
  CGR           8          0          1   5.137E-04
  CGR           9          0          1   1.996E-04
  CGR          10          0          1   6.087E-05
  CGR          11          0          1   2.654E-05
  CGR          12          0          1   8.609E-06
  CGR          13          0          1   3.453E-06
  CGR          14          0          1   1.047E-06
  CGR          15          1          0   2.938E-07

    CGRSolver converged.

  ==> DFCorrGrad: Density-Fitted Correlated Gradients <==

    OpenMP threads:              8
    Integrals threads:           8
    Memory (MB):              3576
    Schwarz Cutoff:          0E+00
    Fitting Condition:       1E-12

   => Auxiliary Basis Set <=

  Basis Set: (AUG-CC-PVTZ AUX)
    Blend: AUG-CC-PVTZ-JKFIT
    Number of shells: 516
    Number of basis function: 1766
    Number of Cartesian functions: 2198
    Spherical Harmonics?: true
    Max angular momentum: 4

	-----------------------------------------------------------
	 ==================> DF-MP2 Energies <==================== 
	-----------------------------------------------------------
	 Reference Energy          =    -551.1985593200971607 [Eh]
	 Singles Energy            =      -0.0000000000000002 [Eh]
	 Same-Spin Energy          =      -0.6065057907466266 [Eh]
	 Opposite-Spin Energy      =      -1.8367866352768070 [Eh]
	 Correlation Energy        =      -2.4432924260234334 [Eh]
	 Total Energy              =    -553.6418517461205511 [Eh]
	-----------------------------------------------------------
	 ================> DF-SCS-MP2 Energies <================== 
	-----------------------------------------------------------
	 SCS Same-Spin Scale       =       0.3333333333333333 [-]
	 SCS Opposite-Spin Scale   =       1.2000000000000000 [-]
	 SCS Same-Spin Energy      =      -0.2021685969155422 [Eh]
	 SCS Opposite-Spin Energy  =      -2.2041439623321684 [Eh]
	 SCS Correlation Energy    =      -2.4063125592477106 [Eh]
	 SCS Total Energy          =    -553.6048718793448415 [Eh]
	-----------------------------------------------------------


  -Total Gradient:
     Atom            X                  Y                   Z
    ------   -----------------  -----------------  -----------------
       1        0.019028992262    -0.028034833701    -0.001382794538
       2        0.022950502326     0.005748785357    -0.024852182557
       3       -0.026056990010     0.013365752223     0.048330184342
       4       -0.049721815274     0.026773461753    -0.000116809023
       5       -0.020220736951     0.007586299618     0.029103141733
       6       -0.030644894460     0.018625318126     0.003007011276
       7        0.012580149667    -0.024446984935     0.000702187276
       8        0.017416763844     0.008793511192    -0.019756951054
       9       -0.026318320929     0.014022242630     0.016358787396
      10        0.037928295462    -0.020116702815    -0.023574756870
      11        0.063713635676    -0.033686211748    -0.040323226221
      12       -0.013861338127     0.007433578077     0.008744892789
      13       -0.016486599430     0.008691354794     0.010374580111
      14       -0.001763198163     0.001530497367    -0.003260048096
      15        0.001083444550    -0.001133341947     0.003552056573
      16       -0.001804341654     0.003435459396    -0.008813732645
      17        0.004021351368    -0.004601905131     0.007079125673
      18       -0.000886296079     0.006377693362    -0.002263989636
      19       -0.002265933603    -0.004110235277     0.004042057309
      20        0.001446081453    -0.000165084172    -0.002798175915
      21        0.002498817038    -0.002144857250     0.000501149369
      22        0.007362431037    -0.003943796914    -0.004652507292


*** tstop() called on gpu-3-8.local at Sun Nov 12 17:28:34 2017
Module time:
	user time   =    5251.67 seconds =      87.53 minutes
	system time =     112.84 seconds =       1.88 minutes
	total time  =       2381 seconds =      39.68 minutes
Total time:
	user time   =    5251.67 seconds =      87.53 minutes
	system time =     112.84 seconds =       1.88 minutes
	total time  =       2381 seconds =      39.68 minutes

			-----------------------------------------
			 OPTKING 2.0: for geometry optimizations 
			  - R.A. King,  Bethel University        
			-----------------------------------------

	Internal coordinates to be generated automatically.
	Detected frag 1 with atoms:  1 2 3 4 5 6 7 8 9 10 11 12 13 14 15 16 17 18 19 20
	 21 22
	---Fragment 1 Bond Connectivity---
	 1 : 3 9 14
	 2 : 4 9 15
	 3 : 1 11 16
	 4 : 2 11 17
	 5 : 7 10 18
	 6 : 8 10 19
	 7 : 5 12 20
	 8 : 6 12 21
	 9 : 1 2 10
	 10 : 5 6 9
	 11 : 3 4 13
	 12 : 7 8 22
	 13 : 11
	 14 : 1
	 15 : 2
	 16 : 3
	 17 : 4
	 18 : 5
	 19 : 6
	 20 : 7
	 21 : 8
	 22 : 12

	Assuming in current code that numbering for constraints corresponds to unified fragment.
	Fixed dihedral atom list: 
	     1     9    10     5
	---Fragment 1 Geometry and Gradient---
	 C          -2.4515582240        1.3868520953       -1.0527947083
	 C          -0.5750601740        0.2227807975        2.9420863367
	 C          -4.4886829952        2.4696651695        0.2189909792
	 C          -2.6121849452        1.3055938716        4.2157617502
	 C           3.1231338681        0.6120643808       -2.5872523282
	 C           2.1555940880       -3.4187214606       -0.7069748259
	 C           5.1375819257       -0.5161021205       -3.8306921236
	 C           4.1946085854       -4.4448427508       -1.9976577747
	 C          -0.4938019503        0.2624650463        0.3078081074
	 C           1.6208015924       -0.8619220028       -1.0112207333
	 C          -4.5699412189        2.4299809207        2.8532692084
	 N           5.6100134589       -2.9821947239       -3.5037695026
	 O          -6.4426598166        3.4239768666        4.0230096847
	 H          -2.4156534274        1.4340952487       -3.1069270147
	 H           0.9367207323       -0.6464932237        4.0286788631
	 H          -5.9929049970        3.3332700122       -0.8883885347
	 H          -2.6291924804        1.2507918138        6.2717837828
	 H           2.7508578199        2.6132843556       -2.8593728913
	 H           1.0141995038       -4.6130283766        0.5100088036
	 H           6.4036984348        0.4797835515       -5.0873600020
	 H           4.7482983423       -6.4082682028       -1.8748255761
	 H           7.0972279255       -3.7739899736       -4.4354044861
	             0.0190289923       -0.0280348337       -0.0013827945
	             0.0229505023        0.0057487854       -0.0248521826
	            -0.0260569900        0.0133657522        0.0483301843
	            -0.0497218153        0.0267734618       -0.0001168090
	            -0.0202207370        0.0075862996        0.0291031417
	            -0.0306448945        0.0186253181        0.0030070113
	             0.0125801497       -0.0244469849        0.0007021873
	             0.0174167638        0.0087935112       -0.0197569511
	            -0.0263183209        0.0140222426        0.0163587874
	             0.0379282955       -0.0201167028       -0.0235747569
	             0.0637136357       -0.0336862117       -0.0403232262
	            -0.0138613381        0.0074335781        0.0087448928
	            -0.0164865994        0.0086913548        0.0103745801
	            -0.0017631982        0.0015304974       -0.0032600481
	             0.0010834446       -0.0011333419        0.0035520566
	            -0.0018043417        0.0034354594       -0.0088137326
	             0.0040213514       -0.0046019051        0.0070791257
	            -0.0008862961        0.0063776934       -0.0022639896
	            -0.0022659336       -0.0041102353        0.0040420573
	             0.0014460815       -0.0001650842       -0.0027981759
	             0.0024988170       -0.0021448573        0.0005011494
	             0.0073624310       -0.0039437969       -0.0046525073

	Previous optimization step data not found.  Starting new optimization.

	---Fragment 1 Intrafragment Coordinates---
	 - Coordinate -           - BOHR/RAD -       - ANG/DEG -
	 R(1,3)           =         2.634350	       1.394038
	 R(1,9)           =         2.635962	       1.394891
	 R(1,14)          =         2.054989	       1.087453
	 R(2,4)           =         2.635263	       1.394521
	 R(2,9)           =         2.635830	       1.394821
	 R(2,15)          =         2.054702	       1.087302
	 R(3,11)          =         2.635830	       1.394821
	 R(3,16)          =         2.057860	       1.088972
	 R(4,11)          =         2.636938	       1.395407
	 R(4,17)          =         2.056823	       1.088424
	 R(5,7)           =         2.622385	       1.387706
	 R(5,10)          =         2.629356	       1.391395
	 R(5,18)          =         2.053660	       1.086750
	 R(6,8)           =         2.622283	       1.387652
	 R(6,10)          =         2.629789	       1.391625
	 R(6,19)          =         2.051877	       1.085807
	 R(7,12)          =         2.532130	       1.339946
	 R(7,20)          =         2.043050	       1.081136
	 R(8,12)          =         2.532012	       1.339883
	 R(8,21)          =         2.043698	       1.081478
	 R(9,10)          =         2.734160	       1.446855
	 R(11,13)         =         2.421445	       1.281373
	 R(12,22)         =         1.925277	       1.018813
	 B(1,3,11)        =         2.094553	     120.009056
	 B(1,3,16)        =         2.069123	     118.552025
	 B(1,9,2)         =         2.093692	     119.959722
	 B(1,9,10)        =         2.095337	     120.053983
	 B(2,4,11)        =         2.093699	     119.960108
	 B(2,4,17)        =         2.069829	     118.592446
	 B(2,9,10)        =         2.094156	     119.986294
	 B(3,1,9)         =         2.094940	     120.031219
	 B(3,1,14)        =         2.079025	     119.119344
	 B(3,11,4)        =         2.094306	     119.994870
	 B(3,11,13)       =         2.094918	     120.029973
	 B(4,2,9)         =         2.095181	     120.045019
	 B(4,2,15)        =         2.079455	     119.143974
	 B(4,11,13)       =         2.093961	     119.975136
	 B(5,7,12)        =         2.095653	     120.072095
	 B(5,7,20)        =         2.162774	     123.917797
	 B(5,10,6)        =         2.092297	     119.879768
	 B(5,10,9)        =         2.095005	     120.034947
	 B(6,8,12)        =         2.096007	     120.092354
	 B(6,8,21)        =         2.161590	     123.849976
	 B(6,10,9)        =         2.095884	     120.085283
	 B(7,5,10)        =         2.073681	     118.813166
	 B(7,5,18)        =         2.089370	     119.712101
	 B(7,12,8)        =         2.135421	     122.350637
	 B(7,12,22)       =         2.073943	     118.828184
	 B(8,6,10)        =         2.073311	     118.791968
	 B(8,6,19)        =         2.090591	     119.782051
	 B(8,12,22)       =         2.073820	     118.821132
	 B(9,1,14)        =         2.109221	     120.849435
	 B(9,2,15)        =         2.108550	     120.811005
	 B(10,5,18)       =         2.120134	     121.474733
	 B(10,6,19)       =         2.119283	     121.425952
	 B(11,3,16)       =         2.119509	     121.438903
	 B(11,4,17)       =         2.119657	     121.447411
	 B(12,7,20)       =         2.024757	     116.010037
	 B(12,8,21)       =         2.025588	     116.057668
	 D(1,3,11,4)      =        -0.000325	      -0.018609
	 D(1,3,11,13)     =        -3.141004	    -179.966279
	 D(1,9,2,4)       =         0.000325	       0.018608
	 D(1,9,2,15)      =        -3.141527	    -179.996257
	 D(1,9,10,5)      =         1.046950	      59.985812
	 D(1,9,10,6)      =        -2.094310	    -119.995133
	 D(2,4,11,3)      =         0.000301	       0.017261
	 D(2,4,11,13)     =         3.140981	     179.964960
	 D(2,9,1,3)       =        -0.000348	      -0.019945
	 D(2,9,1,14)      =         3.141027	     179.967567
	 D(2,9,10,5)      =        -2.094426	    -120.001749
	 D(2,9,10,6)      =         1.047500	      60.017307
	 D(3,1,9,10)      =         3.141462	     179.992491
	 D(3,11,4,17)     =         3.140700	     179.948827
	 D(4,2,9,10)      =        -3.141485	    -179.993820
	 D(4,11,3,16)     =         3.140472	     179.935781
	 D(5,7,12,8)      =         0.000439	       0.025179
	 D(5,7,12,22)     =         3.140637	     179.945255
	 D(5,10,6,8)      =        -0.000510	      -0.029197
	 D(5,10,6,19)     =        -3.141016	    -179.966934
	 D(6,8,12,7)      =        -0.000295	      -0.016897
	 D(6,8,12,22)     =        -3.140493	    -179.936979
	 D(6,10,5,7)      =         0.000649	       0.037179
	 D(6,10,5,18)     =        -3.140783	    -179.953604
	 D(7,5,10,9)      =        -3.140612	    -179.943805
	 D(7,12,8,21)     =         3.141574	     179.998903
	 D(8,6,10,9)      =         3.140751	     179.951778
	 D(8,12,7,20)     =         3.140401	     179.931728
	 D(9,1,3,11)      =         0.000348	       0.019955
	 D(9,1,3,16)      =        -3.140471	    -179.935743
	 D(9,2,4,11)      =        -0.000301	      -0.017270
	 D(9,2,4,17)      =        -3.140734	    -179.950778
	 D(9,10,5,18)     =         0.001142	       0.065411
	 D(9,10,6,19)     =         0.000245	       0.014040
	 D(10,5,7,12)     =        -0.000609	      -0.034903
	 D(10,5,7,20)     =        -3.140435	    -179.933695
	 D(10,6,8,12)     =         0.000325	       0.018644
	 D(10,6,8,21)     =        -3.141566	    -179.998447
	 D(10,9,1,14)     =        -0.000349	      -0.019997
	 D(10,9,2,15)     =        -0.000152	      -0.008685
	 D(11,3,1,14)     =        -3.141030	    -179.967773
	 D(11,4,2,15)     =         3.141546	     179.997347
	 D(12,7,5,18)     =         3.140826	     179.956046
	 D(12,8,6,19)     =         3.140850	     179.957430
	 D(13,11,3,16)    =        -0.000207	      -0.011889
	 D(13,11,4,17)    =        -0.001806	      -0.103475
	 D(14,1,3,16)     =         0.001336	       0.076530
	 D(15,2,4,17)     =         0.001114	       0.063839
	 D(18,5,7,20)     =         0.000999	       0.057255
	 D(19,6,8,21)     =        -0.001041	      -0.059662
	 D(20,7,12,22)    =        -0.002587	      -0.148196
	 D(21,8,12,22)    =         0.001376	       0.078822

	Current energy   :      -553.6418517461

	Generating empirical Hessian (Schlegel '84) for each fragment.
	Adding user-defined constraint: Fragment 1; Coordinate 64:
		Value =     1.046950; Fixed value    =     1.047198
		Force =     0.000124; Force constant =     0.500000
	Removing off-diagonal coupling between coordinate 64 and others.
	Taking RFO optimization step.
	Going to follow RFO solution 1.
	Using RFO vector 1.

	Determining step-restricting scale parameter for RS-RFO.
	Maximum step size allowed    0.10000

	 Iter      |step|        alpha        rfo_root  
	------------------------------------------------
	    0     0.47114       1.00000           1
	    1     0.29962       2.94145           1
	    2     0.20621       7.67638           1
	    3     0.15086      18.49103           1
	    4     0.11858      36.15189           1
	    5     0.10386      51.55801           1
	    6     0.10023      56.60490           1
	    7     0.10000      56.93896           1
	------------------------------------------------
	Norm of target step-size    0.10000
	Projected energy change by RFO approximation:        -0.0084511146

	Back-transformation to cartesian coordinates...
	Could not converge backtransformation.
	Using first guess instead.

	--- Internal Coordinate Step in ANG or DEG, aJ/ANG or AJ/DEG ---
	 ---------------------------------------------------------------------------
	   Coordinate                Previous        Force       Change         New 
	   ----------                --------       ------       ------       ------
	    1 R(1,3)          =      1.394038    -0.138954    -0.009541     1.384497
	    2 R(1,9)          =      1.394891     0.103939     0.006968     1.401860
	    3 R(1,14)         =      1.087453    -0.026884    -0.002084     1.085370
	    4 R(2,4)          =      1.394521    -0.141910    -0.009761     1.384760
	    5 R(2,9)          =      1.394821     0.104932     0.007058     1.401880
	    6 R(2,15)         =      1.087302    -0.025994    -0.002000     1.085301
	    7 R(3,11)         =      1.394821     0.266432     0.018675     1.413496
	    8 R(3,16)         =      1.088972    -0.061819    -0.004844     1.084129
	    9 R(4,11)         =      1.395407     0.263004     0.018487     1.413894
	   10 R(4,17)         =      1.088424    -0.059036    -0.004617     1.083807
	   11 R(5,7)          =      1.387706    -0.147247    -0.009999     1.377708
	   12 R(5,10)         =      1.391395     0.130163     0.008925     1.400320
	   13 R(5,18)         =      1.086750    -0.054998    -0.004289     1.082461
	   14 R(6,8)          =      1.387652    -0.147038    -0.009976     1.377676
	   15 R(6,10)         =      1.391625     0.128630     0.008829     1.400453
	   16 R(6,19)         =      1.085807    -0.049846    -0.003876     1.081931
	   17 R(7,12)         =      1.339946     0.109717     0.006858     1.346803
	   18 R(7,20)         =      1.081136    -0.020901    -0.001611     1.079524
	   19 R(8,12)         =      1.339883     0.109688     0.006849     1.346732
	   20 R(8,21)         =      1.081478    -0.022802    -0.001742     1.079736
	   21 R(9,10)         =      1.446855    -0.120654    -0.009062     1.437793
	   22 R(11,13)        =      1.281373    -0.175732    -0.009447     1.271927
	   23 R(12,22)        =      1.018813    -0.078766    -0.005537     1.013276
	   24 B(1,3,11)       =    120.009056     0.000529     0.591524   120.600580
	   25 B(1,3,16)       =    118.552025     0.000184     0.238014   118.790039
	   26 B(1,9,2)        =    119.959722    -0.000151    -0.230017   119.729705
	   27 B(1,9,10)       =    120.053983     0.000068     0.106721   120.160704
	   28 B(2,4,11)       =    119.960108     0.000543     0.602135   120.562243
	   29 B(2,4,17)       =    118.592446     0.000175     0.228775   118.821221
	   30 B(2,9,10)       =    119.986294     0.000084     0.122571   120.108865
	   31 B(3,1,9)        =    120.031219     0.000245     0.222690   120.253909
	   32 B(3,1,14)       =    119.119344     0.000057     0.103073   119.222417
	   33 B(3,11,4)       =    119.994870    -0.001414    -1.411663   118.583207
	   34 B(3,11,13)      =    120.029973     0.000700     0.699406   120.729379
	   35 B(4,2,9)        =    120.045019     0.000248     0.224698   120.269717
	   36 B(4,2,15)       =    119.143974     0.000051     0.095260   119.239235
	   37 B(4,11,13)      =    119.975136     0.000715     0.712216   120.687352
	   38 B(5,7,12)       =    120.072095    -0.000187    -0.204104   119.867991
	   39 B(5,7,20)       =    123.917797    -0.000009    -0.020978   123.896819
	   40 B(5,10,6)       =    119.879768    -0.000817    -0.869745   119.010023
	   41 B(5,10,9)       =    120.034947     0.000415     0.442452   120.477399
	   42 B(6,8,12)       =    120.092354    -0.000190    -0.209355   119.882999
	   43 B(6,8,21)       =    123.849976     0.000002    -0.007475   123.842501
	   44 B(6,10,9)       =    120.085283     0.000401     0.426601   120.511884
	   45 B(7,5,10)       =    118.813166     0.000560     0.595590   119.408756
	   46 B(7,5,18)       =    119.712101    -0.000194    -0.197460   119.514640
	   47 B(7,12,8)       =    122.350637     0.000069     0.085308   122.435945
	   48 B(7,12,22)      =    118.828184    -0.000035    -0.041986   118.786198
	   49 B(8,6,10)       =    118.791968     0.000564     0.602059   119.394026
	   50 B(8,6,19)       =    119.782051    -0.000205    -0.211333   119.570717
	   51 B(8,12,22)      =    118.821132    -0.000034    -0.043286   118.777846
	   52 B(9,1,14)       =    120.849435    -0.000302    -0.325903   120.523532
	   53 B(9,2,15)       =    120.811005    -0.000299    -0.320180   120.490825
	   54 B(10,5,18)      =    121.474733    -0.000366    -0.398143   121.076589
	   55 B(10,6,19)      =    121.425952    -0.000360    -0.390828   121.035125
	   56 B(11,3,16)      =    121.438903    -0.000713    -0.829538   120.609365
	   57 B(11,4,17)      =    121.447411    -0.000718    -0.830882   120.616529
	   58 B(12,7,20)      =    116.010037     0.000196     0.224789   116.234826
	   59 B(12,8,21)      =    116.057668     0.000188     0.216801   116.274469
	   60 D(1,3,11,4)     =     -0.018609    -0.000018    -0.134133    -0.152742
	   61 D(1,3,11,13)    =   -179.966279    -0.000014    -0.096470  -180.062749
	   62 D(1,9,2,4)      =      0.018608    -0.000031    -0.253863    -0.235255
	   63 D(1,9,2,15)     =   -179.996257    -0.000003    -0.065647  -180.061904
	   64 D(1,9,10,5)     =     59.985812    -0.000127    -0.614786    59.371026
	   65 D(1,9,10,6)     =   -119.995133    -0.000161    -0.940067  -120.935200
	   66 D(2,4,11,3)     =      0.017261    -0.000012    -0.073991    -0.056730
	   67 D(2,4,11,13)    =    179.964960    -0.000016    -0.111644   179.853316
	   68 D(2,9,1,3)      =     -0.019945     0.000001     0.045884     0.025939
	   69 D(2,9,1,14)     =    179.967567     0.000024     0.196159   180.163725
	   70 D(2,9,10,5)     =   -120.001749    -0.000161    -0.938085  -120.939834
	   71 D(2,9,10,6)     =     60.017307    -0.000194    -1.263366    58.753940
	   72 D(3,1,9,10)     =    179.992491    -0.000033    -0.276231   179.716261
	   73 D(3,11,4,17)    =    179.948827    -0.000008    -0.035649   179.913177
	   74 D(4,2,9,10)     =   -179.993820     0.000003     0.068080  -179.925740
	   75 D(4,11,3,16)    =    179.935781    -0.000018    -0.133967   179.801814
	   76 D(5,7,12,8)     =      0.025179    -0.000001    -0.017238     0.007942
	   77 D(5,7,12,22)    =    179.945255     0.000003     0.023847   179.969102
	   78 D(5,10,6,8)     =     -0.029197    -0.000014    -0.134404    -0.163601
	   79 D(5,10,6,19)    =   -179.966934    -0.000004    -0.063948  -180.030882
	   80 D(6,8,12,7)     =     -0.016897     0.000005     0.041179     0.024281
	   81 D(6,8,12,22)    =   -179.936979     0.000001     0.000097  -179.936882
	   82 D(6,10,5,7)     =      0.037179     0.000017     0.157821     0.194999
	   83 D(6,10,5,18)    =   -179.953604     0.000024     0.192754  -179.760851
	   84 D(7,5,10,9)     =   -179.943805    -0.000016    -0.162865  -180.106671
	   85 D(7,12,8,21)    =    179.998903    -0.000008    -0.036475   179.962428
	   86 D(8,6,10,9)     =    179.951778     0.000020     0.186398   180.138176
	   87 D(8,12,7,20)    =    179.931728    -0.000018    -0.134925   179.796803
	   88 D(9,1,3,11)     =      0.019955     0.000024     0.148012     0.167967
	   89 D(9,1,3,16)     =   -179.935743     0.000024     0.148337  -179.787406
	   90 D(9,2,4,11)     =     -0.017270     0.000037     0.267301     0.250031
	   91 D(9,2,4,17)     =   -179.950778     0.000033     0.230369  -179.720409
	   92 D(9,10,5,18)    =      0.065411    -0.000010    -0.127932    -0.062521
	   93 D(9,10,6,19)    =      0.014040     0.000030     0.256854     0.270895
	   94 D(10,5,7,12)    =     -0.034903    -0.000010    -0.083851    -0.118754
	   95 D(10,5,7,20)    =   -179.933695     0.000008     0.043109  -179.890586
	   96 D(10,6,8,12)    =      0.018644     0.000002     0.036742     0.055386
	   97 D(10,6,8,21)    =   -179.998447     0.000016     0.120610  -179.877837
	   98 D(10,9,1,14)    =     -0.019997    -0.000010    -0.125956    -0.145953
	   99 D(10,9,2,15)    =     -0.008685     0.000030     0.256296     0.247611
	  100 D(11,3,1,14)    =   -179.967773     0.000001    -0.000262  -179.968034
	  101 D(11,4,2,15)    =    179.997347     0.000010     0.081494   180.078841
	  102 D(12,7,5,18)    =    179.956046    -0.000016    -0.118253   179.837794
	  103 D(12,8,6,19)    =    179.957430    -0.000007    -0.032794   179.924636
	  104 D(13,11,3,16)   =     -0.011889    -0.000015    -0.096304    -0.108192
	  105 D(13,11,4,17)   =     -0.103475    -0.000012    -0.073302    -0.176777
	  106 D(14,1,3,16)    =      0.076530     0.000001     0.000064     0.076593
	  107 D(15,2,4,17)    =      0.063839     0.000006     0.044562     0.108401
	  108 D(18,5,7,20)    =      0.057255     0.000002     0.008707     0.065962
	  109 D(19,6,8,21)    =     -0.059662     0.000007     0.051074    -0.008588
	  110 D(20,7,12,22)   =     -0.148196    -0.000014    -0.093841    -0.242037
	  111 D(21,8,12,22)   =      0.078822    -0.000012    -0.077557     0.001264
	 ---------------------------------------------------------------------------
	Successfully symmetrized geometry.
	 Forces used to impose fixed constraints are not included.
	  Forces zeroed: 64 

  ==> Convergence Check <==

  Measures of convergence in internal coordinates in au.
  Criteria marked as inactive (o), active & met (*), and active & unmet ( ).
  --------------------------------------------------------------------------------------------- ~
   Step     Total Energy     Delta E     MAX Force     RMS Force      MAX Disp      RMS Disp    ~
  --------------------------------------------------------------------------------------------- ~
    Convergence Criteria    1.00e-06 *    3.00e-04 *             o    1.20e-03 *             o  ~
  --------------------------------------------------------------------------------------------- ~
      1    -553.64185175   -5.54e+02      3.23e-02      7.95e-03 o    3.53e-02      9.48e-03 o  ~
  ---------------------------------------------------------------------------------------------

	Writing optimization data to binary file.
	Structure for next step:
	Cartesian Geometry (in Angstrom)
	    C    -1.2976625772   0.7466807748  -0.5597309244
	    C    -0.3091346527   0.1093247770   1.5606993577
	    C    -2.3704525957   1.3131612924   0.1073920730
	    C    -1.3775074810   0.6781176847   2.2334648905
	    C     1.6541343690   0.3212694979  -1.3825230118
	    C     1.1504477028  -1.8105694391  -0.3696895798
	    C     2.7136310724  -0.2691139802  -2.0359697099
	    C     2.2212839194  -2.3543418540  -1.0446809679
	    C    -0.2585193112   0.1406632205   0.1600844296
	    C     0.8516271204  -0.4523885372  -0.5349787862
	    C    -2.4320880635   1.2921629316   1.5193879817
	    N     2.9688198262  -1.5788043817  -1.8530239792
	    O    -3.4159050721   1.8128889699   2.1348116379
	    H    -1.2729200640   0.7759005809  -1.6444251691
	    H     0.4880934864  -0.3574997328   2.1302439169
	    H    -3.1626476369   1.7724537140  -0.4729635677
	    H    -1.3904741527   0.6445545840   3.3166743103
	    H     1.4558266942   1.3749052817  -1.5316787270
	    H     0.5525695777  -2.4385204320   0.2774529622
	    H     3.3787053895   0.2579975930  -2.7032044312
	    H     2.5144794413  -3.3909466319  -0.9717615086
	    H     3.7519007796  -1.9963044619  -2.3421104255
			--------------------------
			 OPTKING Finished Execution 
			--------------------------

    Structure for next step:
    Molecular point group: c1
    Full point group: C1

    Geometry (in Angstrom), charge = 0, multiplicity = 1:

    C           -1.296783166165     0.746185333337    -0.560122287421
    C           -0.308255241765     0.108829335558     1.560307994621
    C           -2.369573184673     1.312665850907     0.107000709935
    C           -1.376628069970     0.677622243225     2.233073527458
    C            1.655013780003     0.320774056499    -1.382914374803
    C            1.151327113811    -1.811064880527    -0.370080942865
    C            2.714510483423    -0.269609421643    -2.036361072931
    C            2.222163330347    -2.354837295407    -1.045072330932
    C           -0.257639900241     0.140167779101     0.159693066511
    C            0.852506531351    -0.452883978653    -0.535370149245
    C           -2.431208652523     1.291667490194     1.518996618641
    N            2.969699237207    -1.579299823099    -1.853415342249
    O           -3.415025661077     1.812393528502     2.134420274810
    H           -1.272040653063     0.775405139459    -1.644816532164
    H            0.488972897349    -0.357995174291     2.129852553855
    H           -3.161768225923     1.771958272535    -0.473354930771
    H           -1.389594741731     0.644059142553     3.316282947239
    H            1.456706105156     1.374409840248    -1.532070090039
    H            0.553448988681    -2.439015873405     0.277061599156
    H            3.379584800489     0.257502151594    -2.703595794277
    H            2.515358852237    -3.391442073384    -0.972152871659
    H            3.752780190536    -1.996799903322    -2.342501788526

gradient() will perform analytic gradient computation.

*** tstart() called on gpu-3-8.local
*** at Sun Nov 12 17:28:37 2017

    SCF Algorithm Type (re)set to DF.

*** tstart() called on gpu-3-8.local
*** at Sun Nov 12 17:28:37 2017

   => Loading Basis Set <=

    Name: AUG-CC-PVTZ
    Role: ORBITAL
    Keyword: BASIS
    atoms 1-11  entry C          line   221 file /cbio/jclab/home/chayas/anaconda/envs/py35/share/psi4/basis/aug-cc-pvtz.gbs 
    atoms 12    entry N          line   267 file /cbio/jclab/home/chayas/anaconda/envs/py35/share/psi4/basis/aug-cc-pvtz.gbs 
    atoms 13    entry O          line   313 file /cbio/jclab/home/chayas/anaconda/envs/py35/share/psi4/basis/aug-cc-pvtz.gbs 
    atoms 14-22 entry H          line    34 file /cbio/jclab/home/chayas/anaconda/envs/py35/share/psi4/basis/aug-cc-pvtz.gbs 


         ---------------------------------------------------------
                                   SCF
            by Justin Turney, Rob Parrish, and Andy Simmonett
                              RHF Reference
                        8 Threads,   4768 MiB Core
         ---------------------------------------------------------

  ==> Geometry <==

    Molecular point group: c1
    Full point group: C1

    Geometry (in Angstrom), charge = 0, multiplicity = 1:

       Center              X                  Y                   Z               Mass       
    ------------   -----------------  -----------------  -----------------  -----------------
           C         -1.296783166165     0.746185333337    -0.560122287421    12.000000000000
           C         -0.308255241765     0.108829335558     1.560307994621    12.000000000000
           C         -2.369573184673     1.312665850907     0.107000709935    12.000000000000
           C         -1.376628069970     0.677622243225     2.233073527458    12.000000000000
           C          1.655013780003     0.320774056499    -1.382914374803    12.000000000000
           C          1.151327113811    -1.811064880527    -0.370080942865    12.000000000000
           C          2.714510483423    -0.269609421643    -2.036361072931    12.000000000000
           C          2.222163330347    -2.354837295407    -1.045072330932    12.000000000000
           C         -0.257639900241     0.140167779101     0.159693066511    12.000000000000
           C          0.852506531351    -0.452883978653    -0.535370149245    12.000000000000
           C         -2.431208652523     1.291667490194     1.518996618641    12.000000000000
           N          2.969699237207    -1.579299823099    -1.853415342249    14.003074004780
           O         -3.415025661077     1.812393528502     2.134420274810    15.994914619560
           H         -1.272040653063     0.775405139459    -1.644816532164     1.007825032070
           H          0.488972897349    -0.357995174291     2.129852553855     1.007825032070
           H         -3.161768225923     1.771958272535    -0.473354930771     1.007825032070
           H         -1.389594741731     0.644059142553     3.316282947239     1.007825032070
           H          1.456706105156     1.374409840248    -1.532070090039     1.007825032070
           H          0.553448988681    -2.439015873405     0.277061599156     1.007825032070
           H          3.379584800489     0.257502151594    -2.703595794277     1.007825032070
           H          2.515358852237    -3.391442073384    -0.972152871659     1.007825032070
           H          3.752780190536    -1.996799903322    -2.342501788526     1.007825032070

  Running in c1 symmetry.

  Rotational constants: A =      0.09581  B =      0.01337  C =      0.01248 [cm^-1]
  Rotational constants: A =   2872.20753  B =    400.94446  C =    374.13133 [MHz]
  Nuclear repulsion =  699.689855156601766

  Charge       = 0
  Multiplicity = 1
  Electrons    = 90
  Nalpha       = 45
  Nbeta        = 45

  ==> Algorithm <==

  SCF Algorithm Type is DF.
  DIIS enabled.
  MOM disabled.
  Fractional occupation disabled.
  Guess Type is READ.
  Energy threshold   = 1.00e-10
  Density threshold  = 1.00e-10
  Integral threshold = 0.00e+00

  ==> Primary Basis <==

  Basis Set: AUG-CC-PVTZ
    Blend: AUG-CC-PVTZ
    Number of shells: 263
    Number of basis function: 805
    Number of Cartesian functions: 940
    Spherical Harmonics?: true
    Max angular momentum: 3

   => Loading Basis Set <=

    Name: (AUG-CC-PVTZ AUX)
    Role: JKFIT
    Keyword: DF_BASIS_SCF
    atoms 1-11  entry C          line   161 file /cbio/jclab/home/chayas/anaconda/envs/py35/share/psi4/basis/aug-cc-pvtz-jkfit.gbs 
    atoms 12    entry N          line   223 file /cbio/jclab/home/chayas/anaconda/envs/py35/share/psi4/basis/aug-cc-pvtz-jkfit.gbs 
    atoms 13    entry O          line   285 file /cbio/jclab/home/chayas/anaconda/envs/py35/share/psi4/basis/aug-cc-pvtz-jkfit.gbs 
    atoms 14-22 entry H          line    69 file /cbio/jclab/home/chayas/anaconda/envs/py35/share/psi4/basis/aug-cc-pvtz-jkfit.gbs 

  Reading orbitals from file 180, no projection.

  ==> Pre-Iterations <==

   -------------------------------------------------------
    Irrep   Nso     Nmo     Nalpha   Nbeta   Ndocc  Nsocc
   -------------------------------------------------------
     A        805     805       0       0       0       0
   -------------------------------------------------------
    Total     805     805      45      45      45       0
   -------------------------------------------------------

  ==> Integral Setup <==

  ==> DFJK: Density-Fitted J/K Matrices <==

    J tasked:                  Yes
    K tasked:                  Yes
    wK tasked:                  No
    OpenMP threads:              8
    Integrals threads:           8
    Memory (MB):              3576
    Algorithm:                Disk
    Integral Cache:           NONE
    Schwarz Cutoff:          1E-12
    Fitting Condition:       1E-12

   => Auxiliary Basis Set <=

  Basis Set: (AUG-CC-PVTZ AUX)
    Blend: AUG-CC-PVTZ-JKFIT
    Number of shells: 516
    Number of basis function: 1766
    Number of Cartesian functions: 2198
    Spherical Harmonics?: true
    Max angular momentum: 4

  Minimum eigenvalue in the overlap matrix is 7.1312419054E-07.
  Using Symmetric Orthogonalization.

  SCF Guess: Orbitals guess was supplied from a previous computation.

  ==> Iterations <==

                           Total Energy        Delta E     RMS |[F,P]|

   @DF-RHF iter   0:  -551.25942894120317   -5.51259e+02   5.55352e-04 
   @DF-RHF iter   1:  -551.20638274842963    5.30462e-02   8.15823e-05 
   @DF-RHF iter   2:  -551.20670161457429   -3.18866e-04   6.55096e-05 DIIS
   @DF-RHF iter   3:  -551.20691561159504   -2.13997e-04   1.29112e-05 DIIS
   @DF-RHF iter   4:  -551.20694255725357   -2.69457e-05   7.67412e-06 DIIS
   @DF-RHF iter   5:  -551.20695646501383   -1.39078e-05   4.54945e-06 DIIS
   @DF-RHF iter   6:  -551.20696245938643   -5.99437e-06   2.14018e-06 DIIS
   @DF-RHF iter   7:  -551.20696384093617   -1.38155e-06   6.70280e-07 DIIS
   @DF-RHF iter   8:  -551.20696396128528   -1.20349e-07   2.38532e-07 DIIS
   @DF-RHF iter   9:  -551.20696397055531   -9.27002e-09   1.07004e-07 DIIS
   @DF-RHF iter  10:  -551.20696397228380   -1.72849e-09   3.78830e-08 DIIS
   @DF-RHF iter  11:  -551.20696397250833   -2.24532e-10   1.71648e-08 DIIS
   @DF-RHF iter  12:  -551.20696397257336   -6.50289e-11   7.14095e-09 DIIS
   @DF-RHF iter  13:  -551.20696397258280   -9.43601e-12   3.05963e-09 DIIS
   @DF-RHF iter  14:  -551.20696397258598   -3.18323e-12   1.18230e-09 DIIS
   @DF-RHF iter  15:  -551.20696397258439    1.59162e-12   3.59572e-10 DIIS
   @DF-RHF iter  16:  -551.20696397261088   -2.64890e-11   1.29702e-10 DIIS
   @DF-RHF iter  17:  -551.20696397258939    2.14868e-11   5.74074e-11 DIIS

  ==> Post-Iterations <==

    Orbital Energies (a.u.)
    -----------------------

    Doubly Occupied:                                                      

       1A    -20.418280     2A    -15.712956     3A    -11.366306  
       4A    -11.366256     5A    -11.316638     6A    -11.293011  
       7A    -11.292925     8A    -11.235751     9A    -11.219524  
      10A    -11.219479    11A    -11.203794    12A    -11.176027  
      13A    -11.175921    14A     -1.391987    15A     -1.247627  
      16A     -1.182430    17A     -1.121576    18A     -1.101949  
      19A     -0.990582    20A     -0.985955    21A     -0.943937  
      22A     -0.901485    23A     -0.846952    24A     -0.799917  
      25A     -0.778640    26A     -0.744748    27A     -0.723445  
      28A     -0.692024    29A     -0.683016    30A     -0.661859  
      31A     -0.618803    32A     -0.609564    33A     -0.599562  
      34A     -0.587898    35A     -0.556897    36A     -0.529110  
      37A     -0.497491    38A     -0.477282    39A     -0.472635  
      40A     -0.451855    41A     -0.428046    42A     -0.394174  
      43A     -0.329398    44A     -0.316489    45A     -0.221367  

    Virtual:                                                              

      46A     -0.012150    47A      0.008553    48A      0.012274  
      49A      0.021285    50A      0.032343    51A      0.038353  
      52A      0.039718    53A      0.050531    54A      0.051180  
      55A      0.052775    56A      0.062650    57A      0.067755  
      58A      0.070433    59A      0.070793    60A      0.078799  
      61A      0.088148    62A      0.090798    63A      0.101206  
      64A      0.102340    65A      0.106294    66A      0.114852  
      67A      0.119558    68A      0.122744    69A      0.125902  
      70A      0.126602    71A      0.128853    72A      0.132283  
      73A      0.133443    74A      0.139167    75A      0.148244  
      76A      0.152676    77A      0.153598    78A      0.159433  
      79A      0.164478    80A      0.165371    81A      0.166309  
      82A      0.177868    83A      0.180436    84A      0.183072  
      85A      0.187093    86A      0.193253    87A      0.194612  
      88A      0.195977    89A      0.205783    90A      0.206051  
      91A      0.206997    92A      0.216048    93A      0.217449  
      94A      0.224356    95A      0.227880    96A      0.235852  
      97A      0.236343    98A      0.246258    99A      0.250130  
     100A      0.252743   101A      0.256033   102A      0.258836  
     103A      0.265020   104A      0.265290   105A      0.273433  
     106A      0.273956   107A      0.275116   108A      0.286510  
     109A      0.292318   110A      0.293672   111A      0.294721  
     112A      0.303352   113A      0.308613   114A      0.312394  
     115A      0.315753   116A      0.317211   117A      0.325129  
     118A      0.328589   119A      0.331237   120A      0.331897  
     121A      0.342984   122A      0.344907   123A      0.346749  
     124A      0.351879   125A      0.352569   126A      0.363026  
     127A      0.366232   128A      0.367374   129A      0.371792  
     130A      0.374336   131A      0.375616   132A      0.378959  
     133A      0.386906   134A      0.392273   135A      0.400703  
     136A      0.400988   137A      0.413737   138A      0.416728  
     139A      0.421522   140A      0.423124   141A      0.425876  
     142A      0.432454   143A      0.434589   144A      0.439937  
     145A      0.441424   146A      0.450383   147A      0.457226  
     148A      0.458899   149A      0.462097   150A      0.465447  
     151A      0.469809   152A      0.472078   153A      0.474597  
     154A      0.478108   155A      0.481233   156A      0.482392  
     157A      0.488975   158A      0.491060   159A      0.492279  
     160A      0.497513   161A      0.498412   162A      0.503409  
     163A      0.507323   164A      0.509573   165A      0.516175  
     166A      0.517979   167A      0.526346   168A      0.528484  
     169A      0.532806   170A      0.537209   171A      0.546009  
     172A      0.549347   173A      0.558406   174A      0.559652  
     175A      0.564545   176A      0.570590   177A      0.575854  
     178A      0.576636   179A      0.581791   180A      0.590986  
     181A      0.595913   182A      0.600095   183A      0.604031  
     184A      0.604520   185A      0.608807   186A      0.616626  
     187A      0.623963   188A      0.638641   189A      0.640960  
     190A      0.645210   191A      0.654050   192A      0.663402  
     193A      0.667279   194A      0.668309   195A      0.669530  
     196A      0.680456   197A      0.682400   198A      0.692849  
     199A      0.693987   200A      0.700897   201A      0.702760  
     202A      0.712471   203A      0.718914   204A      0.719558  
     205A      0.721278   206A      0.728716   207A      0.730417  
     208A      0.741675   209A      0.750707   210A      0.753433  
     211A      0.753825   212A      0.754947   213A      0.762970  
     214A      0.766847   215A      0.773505   216A      0.782255  
     217A      0.792170   218A      0.795106   219A      0.804272  
     220A      0.812029   221A      0.819741   222A      0.822184  
     223A      0.834005   224A      0.838178   225A      0.843124  
     226A      0.855180   227A      0.866438   228A      0.869205  
     229A      0.875245   230A      0.875345   231A      0.878941  
     232A      0.885658   233A      0.894500   234A      0.899805  
     235A      0.901734   236A      0.908362   237A      0.911253  
     238A      0.913108   239A      0.917774   240A      0.918338  
     241A      0.922472   242A      0.924559   243A      0.927052  
     244A      0.932593   245A      0.933413   246A      0.938617  
     247A      0.944037   248A      0.948007   249A      0.957005  
     250A      0.963027   251A      0.963224   252A      0.979322  
     253A      0.979395   254A      0.983275   255A      0.986625  
     256A      0.995546   257A      1.002229   258A      1.008271  
     259A      1.009178   260A      1.019255   261A      1.020653  
     262A      1.024395   263A      1.026838   264A      1.034257  
     265A      1.035647   266A      1.037483   267A      1.045115  
     268A      1.047827   269A      1.050733   270A      1.055104  
     271A      1.059252   272A      1.068687   273A      1.080458  
     274A      1.084191   275A      1.085336   276A      1.089083  
     277A      1.091850   278A      1.098973   279A      1.100011  
     280A      1.106092   281A      1.111285   282A      1.115538  
     283A      1.116686   284A      1.117513   285A      1.128839  
     286A      1.129347   287A      1.134037   288A      1.141970  
     289A      1.145049   290A      1.151984   291A      1.153830  
     292A      1.162125   293A      1.169020   294A      1.177922  
     295A      1.181392   296A      1.190243   297A      1.194237  
     298A      1.198513   299A      1.200993   300A      1.202003  
     301A      1.212438   302A      1.215362   303A      1.226506  
     304A      1.230210   305A      1.231417   306A      1.232676  
     307A      1.246068   308A      1.248019   309A      1.253478  
     310A      1.260874   311A      1.261236   312A      1.265276  
     313A      1.270176   314A      1.275888   315A      1.283010  
     316A      1.289852   317A      1.302414   318A      1.307184  
[...]
     304A      1.221871   305A      1.225516   306A      1.229003  
     307A      1.236836   308A      1.239356   309A      1.250960  
     310A      1.254354   311A      1.259881   312A      1.268280  
     313A      1.273624   314A      1.276980   315A      1.281413  
     316A      1.288479   317A      1.297648   318A      1.302614  
     319A      1.313435   320A      1.316445   321A      1.320996  
     322A      1.324546   323A      1.338664   324A      1.348556  
     325A      1.349756   326A      1.359868   327A      1.362726  
     328A      1.365483   329A      1.370476   330A      1.378780  
     331A      1.389886   332A      1.399936   333A      1.402782  
     334A      1.410700   335A      1.413881   336A      1.426875  
     337A      1.434731   338A      1.441326   339A      1.442462  
     340A      1.451336   341A      1.459547   342A      1.464862  
     343A      1.471423   344A      1.477978   345A      1.489751  
     346A      1.497929   347A      1.502297   348A      1.504042  
     349A      1.514784   350A      1.518580   351A      1.527654  
     352A      1.540571   353A      1.549595   354A      1.554026  
     355A      1.555943   356A      1.562249   357A      1.574629  
     358A      1.576814   359A      1.599079   360A      1.606019  
     361A      1.612587   362A      1.624604   363A      1.628920  
     364A      1.635013   365A      1.641661   366A      1.653673  
     367A      1.662518   368A      1.676254   369A      1.680927  
     370A      1.688565   371A      1.698181   372A      1.704706  
     373A      1.708594   374A      1.714008   375A      1.716079  
     376A      1.722686   377A      1.732327   378A      1.737859  
     379A      1.748155   380A      1.765453   381A      1.770359  
     382A      1.776790   383A      1.792060   384A      1.797789  
     385A      1.805880   386A      1.809590   387A      1.821191  
     388A      1.827808   389A      1.833078   390A      1.837988  
     391A      1.846515   392A      1.852223   393A      1.858703  
     394A      1.864084   395A      1.879706   396A      1.894857  
     397A      1.906350   398A      1.911451   399A      1.918335  
     400A      1.921011   401A      1.933465   402A      1.936035  
     403A      1.938885   404A      1.957045   405A      1.958564  
     406A      1.971442   407A      1.977058   408A      1.981947  
     409A      1.996551   410A      2.003578   411A      2.006241  
     412A      2.012231   413A      2.015807   414A      2.022294  
     415A      2.031191   416A      2.034849   417A      2.044794  
     418A      2.047218   419A      2.061367   420A      2.069186  
     421A      2.077534   422A      2.079795   423A      2.091172  
     424A      2.092368   425A      2.107069   426A      2.121149  
     427A      2.123098   428A      2.139067   429A      2.143004  
     430A      2.150379   431A      2.164796   432A      2.167012  
     433A      2.175603   434A      2.181652   435A      2.199647  
     436A      2.205595   437A      2.208934   438A      2.218565  
     439A      2.222815   440A      2.244899   441A      2.254435  
     442A      2.263841   443A      2.269787   444A      2.279257  
     445A      2.292968   446A      2.298382   447A      2.317821  
     448A      2.329343   449A      2.335728   450A      2.345489  
     451A      2.349180   452A      2.365457   453A      2.372933  
     454A      2.382548   455A      2.386551   456A      2.394101  
     457A      2.408638   458A      2.411078   459A      2.431778  
     460A      2.433063   461A      2.439219   462A      2.455867  
     463A      2.463503   464A      2.475497   465A      2.483989  
     466A      2.486220   467A      2.497068   468A      2.500794  
     469A      2.512349   470A      2.540993   471A      2.545690  
     472A      2.554295   473A      2.563848   474A      2.576998  
     475A      2.585257   476A      2.601269   477A      2.619715  
     478A      2.632353   479A      2.640443   480A      2.643899  
     481A      2.661728   482A      2.680058   483A      2.685665  
     484A      2.706697   485A      2.725671   486A      2.729570  
     487A      2.747964   488A      2.750605   489A      2.758216  
     490A      2.767374   491A      2.781652   492A      2.783822  
     493A      2.807361   494A      2.832207   495A      2.847381  
     496A      2.864935   497A      2.871577   498A      2.899007  
     499A      2.919054   500A      2.937260   501A      2.947488  
     502A      2.984936   503A      3.008297   504A      3.032883  
     505A      3.062020   506A      3.073355   507A      3.101827  
     508A      3.111138   509A      3.117096   510A      3.126592  
     511A      3.157214   512A      3.166806   513A      3.188839  
     514A      3.200418   515A      3.225261   516A      3.233000  
     517A      3.244419   518A      3.256729   519A      3.280715  
     520A      3.293742   521A      3.317521   522A      3.327721  
     523A      3.340764   524A      3.359962   525A      3.371804  
     526A      3.375879   527A      3.388512   528A      3.397929  
     529A      3.405406   530A      3.411231   531A      3.418827  
     532A      3.439037   533A      3.440784   534A      3.458745  
     535A      3.469723   536A      3.481393   537A      3.497251  
     538A      3.497488   539A      3.509496   540A      3.516539  
     541A      3.523074   542A      3.529707   543A      3.543174  
     544A      3.547589   545A      3.552343   546A      3.556305  
     547A      3.573815   548A      3.579942   549A      3.584469  
     550A      3.586060   551A      3.600719   552A      3.612837  
     553A      3.620560   554A      3.627087   555A      3.634307  
     556A      3.652105   557A      3.659726   558A      3.660978  
     559A      3.676167   560A      3.681288   561A      3.688863  
     562A      3.705170   563A      3.711300   564A      3.727413  
     565A      3.731856   566A      3.736560   567A      3.744359  
     568A      3.754414   569A      3.775041   570A      3.780252  
     571A      3.782730   572A      3.789299   573A      3.795452  
     574A      3.810502   575A      3.823828   576A      3.838436  
     577A      3.845064   578A      3.851400   579A      3.866366  
     580A      3.875735   581A      3.880545   582A      3.890931  
     583A      3.904562   584A      3.916168   585A      3.918770  
     586A      3.930249   587A      3.942545   588A      3.951363  
     589A      3.954537   590A      3.960301   591A      3.980478  
     592A      3.983067   593A      3.989946   594A      4.001032  
     595A      4.005225   596A      4.010864   597A      4.021610  
     598A      4.031943   599A      4.040765   600A      4.051985  
     601A      4.068097   602A      4.071399   603A      4.084068  
     604A      4.090602   605A      4.095886   606A      4.099243  
     607A      4.108212   608A      4.113580   609A      4.138193  
     610A      4.148182   611A      4.154328   612A      4.165999  
     613A      4.174658   614A      4.184173   615A      4.188098  
     616A      4.198607   617A      4.206741   618A      4.215008  
     619A      4.226102   620A      4.236764   621A      4.246558  
     622A      4.249740   623A      4.258631   624A      4.269625  
     625A      4.281600   626A      4.284908   627A      4.297838  
     628A      4.312310   629A      4.314319   630A      4.317225  
     631A      4.325766   632A      4.345927   633A      4.355278  
     634A      4.367316   635A      4.370298   636A      4.371991  
     637A      4.386490   638A      4.393801   639A      4.404969  
     640A      4.411401   641A      4.417897   642A      4.420374  
     643A      4.432305   644A      4.443964   645A      4.452383  
     646A      4.463258   647A      4.477728   648A      4.485492  
     649A      4.490778   650A      4.500053   651A      4.505827  
     652A      4.512450   653A      4.521511   654A      4.532178  
     655A      4.545761   656A      4.551459   657A      4.566171  
     658A      4.583328   659A      4.601833   660A      4.611766  
     661A      4.635524   662A      4.647329   663A      4.662716  
     664A      4.684322   665A      4.707923   666A      4.710481  
     667A      4.730520   668A      4.736179   669A      4.755963  
     670A      4.766171   671A      4.782701   672A      4.789647  
     673A      4.800993   674A      4.814034   675A      4.827618  
     676A      4.839086   677A      4.854431   678A      4.858245  
     679A      4.882179   680A      4.897489   681A      4.911570  
     682A      4.920207   683A      4.948804   684A      4.959519  
     685A      4.971032   686A      4.983060   687A      4.991846  
     688A      4.997264   689A      5.030877   690A      5.051676  
     691A      5.053630   692A      5.072030   693A      5.082075  
     694A      5.091681   695A      5.097082   696A      5.106260  
     697A      5.111683   698A      5.127557   699A      5.132518  
     700A      5.138338   701A      5.143363   702A      5.156569  
     703A      5.166992   704A      5.180027   705A      5.190814  
     706A      5.204886   707A      5.216429   708A      5.227139  
     709A      5.236522   710A      5.251402   711A      5.253548  
     712A      5.260372   713A      5.302296   714A      5.306188  
     715A      5.335731   716A      5.348668   717A      5.362301  
     718A      5.377686   719A      5.403064   720A      5.416900  
     721A      5.432191   722A      5.439679   723A      5.458180  
     724A      5.482251   725A      5.492178   726A      5.496264  
     727A      5.526119   728A      5.535505   729A      5.557561  
     730A      5.578679   731A      5.595104   732A      5.629181  
     733A      5.643147   734A      5.685323   735A      5.687231  
     736A      5.720154   737A      5.739938   738A      5.743449  
     739A      5.764101   740A      5.777313   741A      5.820087  
     742A      5.829438   743A      5.836099   744A      5.856958  
     745A      5.885051   746A      5.924515   747A      5.977628  
     748A      5.988384   749A      6.056108   750A      6.083497  
     751A      6.093922   752A      6.106256   753A      6.129677  
     754A      6.152311   755A      6.176258   756A      6.223832  
     757A      6.289021   758A      6.315046   759A      6.339994  
     760A      6.352217   761A      6.474794   762A      6.481718  
     763A      6.554205   764A      6.572118   765A      6.595006  
     766A      6.640875   767A      6.645123   768A      6.683355  
     769A      6.715414   770A      6.744639   771A      6.766939  
     772A      6.812118   773A      6.844848   774A      6.914791  
     775A      6.940643   776A      6.974838   777A      6.994227  
     778A      7.060622   779A      7.065889   780A      7.082608  
     781A      7.114848   782A      7.174375   783A      7.245762  
     784A      7.459622   785A      7.499638   786A      7.534619  
     787A      7.679113   788A      7.790606   789A      7.824201  
     790A      7.884059   791A      7.990283   792A      8.067074  
     793A     15.924902   794A     16.506183   795A     16.640324  
     796A     16.676351   797A     16.903819   798A     18.706697  
     799A     18.810008   800A     19.551355   801A     19.669864  
     802A     19.854771   803A     20.310258   804A     20.460403  
     805A     21.689897  

    Final Occupation by Irrep:
              A 
    DOCC [    45 ]

  Energy converged.

  @DF-RHF Final Energy:  -551.22767024291386

   => Energetics <=

    Nuclear Repulsion Energy =            696.9627394963172264
    One-Electron Energy =               -2130.5284595336697748
    Two-Electron Energy =                 882.3380497944386889
    DFT Exchange-Correlation Energy =       0.0000000000000000
    Empirical Dispersion Energy =           0.0000000000000000
    PCM Polarization Energy =               0.0000000000000000
    EFP Energy =                            0.0000000000000000
    Total Energy =                       -551.2276702429138595



Properties will be evaluated at   0.000000,   0.000000,   0.000000 Bohr

Properties computed using the SCF density matrix

  Nuclear Dipole Moment: (a.u.)
     X:     5.9712      Y:    -3.1585      Z:    -3.5670

  Electronic Dipole Moment: (a.u.)
     X:    -1.0944      Y:     0.6175      Z:     0.5529

  Dipole Moment: (a.u.)
     X:     4.8768      Y:    -2.5411      Z:    -3.0141     Total:     6.2710

  Dipole Moment: (Debye)
     X:    12.3956      Y:    -6.4587      Z:    -7.6611     Total:    15.9392


*** tstop() called on gpu-3-8.local at Mon Nov 13 16:09:56 2017
Module time:
	user time   =    1055.98 seconds =      17.60 minutes
	system time =      48.46 seconds =       0.81 minutes
	total time  =        492 seconds =       8.20 minutes
Total time:
	user time   =  167476.20 seconds =    2791.27 minutes
	system time =    3399.69 seconds =      56.66 minutes
	total time  =      84063 seconds =    1401.05 minutes

  //>>>>>>>>>>>>>>>>>>>>>>>>>>>>>>>>>>>//
  //               DFMP2               //
  //<<<<<<<<<<<<<<<<<<<<<<<<<<<<<<<<<<<//

   => Loading Basis Set <=

    Name: (AUG-CC-PVTZ AUX)
    Role: RIFIT
    Keyword: DF_BASIS_MP2
    atoms 1-11  entry C          line   147 file /cbio/jclab/home/chayas/anaconda/envs/py35/share/psi4/basis/aug-cc-pvtz-ri.gbs 
    atoms 12    entry N          line   205 file /cbio/jclab/home/chayas/anaconda/envs/py35/share/psi4/basis/aug-cc-pvtz-ri.gbs 
    atoms 13    entry O          line   263 file /cbio/jclab/home/chayas/anaconda/envs/py35/share/psi4/basis/aug-cc-pvtz-ri.gbs 
    atoms 14-22 entry H          line    29 file /cbio/jclab/home/chayas/anaconda/envs/py35/share/psi4/basis/aug-cc-pvtz-ri.gbs 

	 --------------------------------------------------------
	                          DF-MP2                         
	      2nd-Order Density-Fitted Moller-Plesset Theory     
	              RMP2 Wavefunction,   8 Threads             
	                                                         
	        Rob Parrish, Justin Turney, Andy Simmonett,      
	           Ed Hohenstein, and C. David Sherrill          
	 --------------------------------------------------------

   => Auxiliary Basis Set <=

  Basis Set: (AUG-CC-PVTZ AUX)
    Blend: AUG-CC-PVTZ-RI
    Number of shells: 490
    Number of basis function: 1792
    Number of Cartesian functions: 2263
    Spherical Harmonics?: true
    Max angular momentum: 4

	 --------------------------------------------------------
	                 NBF =   805, NAUX =  1792
	 --------------------------------------------------------
	   CLASS    FOCC     OCC    AOCC    AVIR     VIR    FVIR
	   PAIRS       0      45      45     760     760       0
	 --------------------------------------------------------


         ------------------------------------------------------------
                                     CPHF                           
                                  Rob Parrish                       
         ------------------------------------------------------------

  ==> Geometry <==

    Molecular point group: c1
    Full point group: C1

    Geometry (in Angstrom), charge = 0, multiplicity = 1:

       Center              X                  Y                   Z               Mass       
    ------------   -----------------  -----------------  -----------------  -----------------
           C         -1.214500353398     1.031652386571    -0.512090039990    12.000000000000
           C         -0.353314389180     0.024561586479     1.520948026403    12.000000000000
           C         -2.332083221002     1.429747346429     0.150022363015    12.000000000000
           C         -1.427281132673     0.482418371788     2.212951387120    12.000000000000
           C          1.612724634775     0.258211148086    -1.611848708965    12.000000000000
           C          1.246891844929    -1.680613052101    -0.236028937266    12.000000000000
           C          2.658326345391    -0.383541794349    -2.208179308809    12.000000000000
           C          2.295375213690    -2.290763253907    -0.855120596245    12.000000000000
           C         -0.147463500970     0.338479762865     0.131075970684    12.000000000000
           C          0.805919420683    -0.373232499490    -0.622902570554    12.000000000000
           C         -2.504767342747     1.215600362990     1.572833175614    12.000000000000
           N          2.981727545782    -1.654439764464    -1.844547808355    14.003074004780
           O         -3.493481456233     1.622148454566     2.199524163499    15.994914619560
           H         -1.145309336539     1.194474287912    -1.580930235100     1.007825032070
           H          0.400245169779    -0.549260108880     2.044697857844     1.007825032070
           H         -3.145598990517     1.919609374916    -0.375393049704     1.007825032070
           H         -1.520125838252     0.316261882655     3.281471427880     1.007825032070
           H          1.417673075644     1.289160300316    -1.880173516292     1.007825032070
           H          0.725567674158    -2.218647910660     0.544415521729     1.007825032070
           H          3.285295545134     0.071544102766    -2.959318871076     1.007825032070
           H          2.606439547495    -3.296031924442    -0.621462232093     1.007825032070
           H          3.772415432929    -2.109768550104    -2.275191399607     1.007825032070

  Nuclear repulsion =  696.962739496317226
  Reference energy  = -551.227670242913860

  ==> Basis Set <==

  Basis Set: AUG-CC-PVTZ
    Blend: AUG-CC-PVTZ
    Number of shells: 263
    Number of basis function: 805
    Number of Cartesian functions: 940
    Spherical Harmonics?: true
    Max angular momentum: 3

  ==> CGRSolver (by Rob Parrish) <==

   Number of roots    =         1
   Preconditioning    =    JACOBI
   Convergence cutoff =     1E-06
   Maximum iterations =       100

  ==> CPHFRHamiltonian (by Rob Parrish) <== 

  ==> DFJK: Density-Fitted J/K Matrices <==

    J tasked:                  Yes
    K tasked:                  Yes
    wK tasked:                  No
    OpenMP threads:              8
    Integrals threads:           8
    Memory (MB):              3576
    Algorithm:                Disk
    Integral Cache:           NONE
    Schwarz Cutoff:          1E-12
    Fitting Condition:       1E-12

   => Auxiliary Basis Set <=

  Basis Set: (AUG-CC-PVTZ AUX)
    Blend: AUG-CC-PVTZ-JKFIT
    Number of shells: 516
    Number of basis function: 1766
    Number of Cartesian functions: 2198
    Spherical Harmonics?: true
    Max angular momentum: 4

  ==> CPHF Iterations <==

  => Iterations <=

             Iter  Converged  Remaining    Residual
  CGR           1          0          1   1.572E-01
  CGR           2          0          1   6.007E-02
  CGR           3          0          1   2.954E-02
  CGR           4          0          1   8.226E-03
  CGR           5          0          1   2.805E-03
  CGR           6          0          1   1.132E-03
  CGR           7          0          1   4.508E-04
  CGR           8          0          1   2.204E-04
  CGR           9          0          1   1.105E-04
  CGR          10          0          1   3.683E-05
  CGR          11          0          1   1.402E-05
  CGR          12          0          1   3.955E-06
  CGR          13          0          1   1.447E-06
  CGR          14          1          0   5.642E-07

    CGRSolver converged.

  ==> DFCorrGrad: Density-Fitted Correlated Gradients <==

    OpenMP threads:              8
    Integrals threads:           8
    Memory (MB):              3576
    Schwarz Cutoff:          0E+00
    Fitting Condition:       1E-12

   => Auxiliary Basis Set <=

  Basis Set: (AUG-CC-PVTZ AUX)
    Blend: AUG-CC-PVTZ-JKFIT
    Number of shells: 516
    Number of basis function: 1766
    Number of Cartesian functions: 2198
    Spherical Harmonics?: true
    Max angular momentum: 4

