
    -----------------------------------------------------------------------
          Psi4: An Open-Source Ab Initio Electronic Structure Package
                               Psi4 1.1 release

                         Git: Rev {HEAD} add49b9 


    R. M. Parrish, L. A. Burns, D. G. A. Smith, A. C. Simmonett,
    A. E. DePrince III, E. G. Hohenstein, U. Bozkaya, A. Yu. Sokolov,
    R. Di Remigio, R. M. Richard, J. F. Gonthier, A. M. James,
    H. R. McAlexander, A. Kumar, M. Saitow, X. Wang, B. P. Pritchard,
    P. Verma, H. F. Schaefer III, K. Patkowski, R. A. King, E. F. Valeev,
    F. A. Evangelista, J. M. Turney, T. D. Crawford, and C. D. Sherrill,
    J. Chem. Theory Comput. in press (2017).
    (doi: 10.1021/acs.jctc.7b00174)

    -----------------------------------------------------------------------


    Psi4 started on: Saturday, 11 November 2017 11:29PM

    Process ID:  25726
    PSIDATADIR: /cbio/jclab/home/chayas/anaconda/envs/py35/share/psi4
    Memory:     500.0 MiB
    Threads:    8
    
  ==> Input File <==

--------------------------------------------------------------------------

memory 5 Gb

molecule phepyrFOH_neutral {
  symmetry C1
  0 1 
  C      1.885   -1.036   -0.112
  C      0.807   -0.463   0.561
  C      3.825   -3.269   -0.988
  C      5.328   -1.753   0.119
  C      1.800   -1.079   2.676
  C      4.927   -3.802   -1.637
  C      6.363   -2.354   -0.579
  C      2.921   -1.631   0.608
  C      4.038   -2.225   -0.095
  C      0.764   -0.484   1.955
  C      2.878   -1.652   2.002
  N      6.195   -3.370   -1.455
  O      -0.289   0.076   2.612
  F      3.866   -2.220   2.709
  H      1.904   -1.012   -1.199
  H      0.002   -0.002   -0.006
  H      2.833   -3.663   -1.183
  H      5.532   -0.940   0.809
  H      1.772   -1.099   3.762
  H      4.814   -4.616   -2.345
  H      7.387   -2.023   -0.446
  H      -0.175   -0.018   3.571
  units Angstrom
}

dih_string = "2 10 13 22 180.001"
set optking fixed_dihedral = $dih_string

optimize('MP2/aug-cc-PVTZ')
--------------------------------------------------------------------------

  Memory set to   4.657 GiB by Python driver.
gradient() will perform analytic gradient computation.

*** tstart() called on gpu-1-6.local
*** at Sat Nov 11 23:29:09 2017

    SCF Algorithm Type (re)set to DF.

*** tstart() called on gpu-1-6.local
*** at Sat Nov 11 23:29:09 2017

   => Loading Basis Set <=

    Name: AUG-CC-PVTZ
    Role: ORBITAL
    Keyword: BASIS
    atoms 1-11  entry C          line   221 file /cbio/jclab/home/chayas/anaconda/envs/py35/share/psi4/basis/aug-cc-pvtz.gbs 
    atoms 12    entry N          line   267 file /cbio/jclab/home/chayas/anaconda/envs/py35/share/psi4/basis/aug-cc-pvtz.gbs 
    atoms 13    entry O          line   313 file /cbio/jclab/home/chayas/anaconda/envs/py35/share/psi4/basis/aug-cc-pvtz.gbs 
    atoms 14    entry F          line   359 file /cbio/jclab/home/chayas/anaconda/envs/py35/share/psi4/basis/aug-cc-pvtz.gbs 
    atoms 15-22 entry H          line    34 file /cbio/jclab/home/chayas/anaconda/envs/py35/share/psi4/basis/aug-cc-pvtz.gbs 


         ---------------------------------------------------------
                                   SCF
            by Justin Turney, Rob Parrish, and Andy Simmonett
                              RHF Reference
                        8 Threads,   4768 MiB Core
         ---------------------------------------------------------

  ==> Geometry <==

    Molecular point group: c1
    Full point group: C1

    Geometry (in Angstrom), charge = 0, multiplicity = 1:

       Center              X                  Y                   Z               Mass       
    ------------   -----------------  -----------------  -----------------  -----------------
           C         -1.321743429369     0.755001006756    -0.799494959991    12.000000000000
           C         -2.399743429369     1.328001006756    -0.126494959991    12.000000000000
           C          0.618256570631    -1.477998993244    -1.675494959991    12.000000000000
           C          2.121256570631     0.038001006756    -0.568494959991    12.000000000000
           C         -1.406743429369     0.712001006756     1.988505040009    12.000000000000
           C          1.720256570631    -2.010998993244    -2.324494959991    12.000000000000
           C          3.156256570631    -0.562998993244    -1.266494959991    12.000000000000
           C         -0.285743429369     0.160001006756    -0.079494959991    12.000000000000
           C          0.831256570631    -0.433998993244    -0.782494959991    12.000000000000
           C         -2.442743429369     1.307001006756     1.267505040009    12.000000000000
           C         -0.328743429369     0.139001006756     1.314505040009    12.000000000000
           N          2.988256570631    -1.578998993244    -2.142494959991    14.003074004780
           O         -3.495743429369     1.867001006756     1.924505040009    15.994914619560
           F          0.659256570631    -0.428998993244     2.021505040009    18.998403224000
           H         -1.302743429369     0.779001006756    -1.886494959991     1.007825032070
           H         -3.204743429369     1.789001006756    -0.693494959991     1.007825032070
           H         -0.373743429369    -1.871998993244    -1.870494959991     1.007825032070
           H          2.325256570631     0.851001006756     0.121505040009     1.007825032070
           H         -1.434743429369     0.692001006756     3.074505040009     1.007825032070
           H          1.607256570631    -2.824998993244    -3.032494959991     1.007825032070
           H          4.180256570631    -0.231998993244    -1.133494959991     1.007825032070
           H         -3.381743429369     1.773001006756     2.883505040009     1.007825032070

  Running in c1 symmetry.

  Rotational constants: A =      0.06327  B =      0.01307  C =      0.01165 [cm^-1]
  Rotational constants: A =   1896.69587  B =    391.96201  C =    349.23644 [MHz]
  Nuclear repulsion =  814.024199263923833

  Charge       = 0
  Multiplicity = 1
  Electrons    = 98
  Nalpha       = 49
  Nbeta        = 49

  ==> Algorithm <==

  SCF Algorithm Type is DF.
  DIIS enabled.
  MOM disabled.
  Fractional occupation disabled.
  Guess Type is SAD.
  Energy threshold   = 1.00e-10
  Density threshold  = 1.00e-10
  Integral threshold = 0.00e+00

  ==> Primary Basis <==

  Basis Set: AUG-CC-PVTZ
    Blend: AUG-CC-PVTZ
    Number of shells: 268
    Number of basis function: 828
    Number of Cartesian functions: 970
    Spherical Harmonics?: true
    Max angular momentum: 3

   => Loading Basis Set <=

    Name: (AUG-CC-PVTZ AUX)
    Role: JKFIT
    Keyword: DF_BASIS_SCF
    atoms 1-11  entry C          line   161 file /cbio/jclab/home/chayas/anaconda/envs/py35/share/psi4/basis/aug-cc-pvtz-jkfit.gbs 
    atoms 12    entry N          line   223 file /cbio/jclab/home/chayas/anaconda/envs/py35/share/psi4/basis/aug-cc-pvtz-jkfit.gbs 
    atoms 13    entry O          line   285 file /cbio/jclab/home/chayas/anaconda/envs/py35/share/psi4/basis/aug-cc-pvtz-jkfit.gbs 
    atoms 14    entry F          line   347 file /cbio/jclab/home/chayas/anaconda/envs/py35/share/psi4/basis/aug-cc-pvtz-jkfit.gbs 
    atoms 15-22 entry H          line    69 file /cbio/jclab/home/chayas/anaconda/envs/py35/share/psi4/basis/aug-cc-pvtz-jkfit.gbs 

  ==> Pre-Iterations <==

   -------------------------------------------------------
    Irrep   Nso     Nmo     Nalpha   Nbeta   Ndocc  Nsocc
   -------------------------------------------------------
     A        828     828       0       0       0       0
   -------------------------------------------------------
    Total     828     828      49      49      49       0
   -------------------------------------------------------

  ==> Integral Setup <==

  ==> DFJK: Density-Fitted J/K Matrices <==

    J tasked:                  Yes
    K tasked:                  Yes
    wK tasked:                  No
    OpenMP threads:              8
    Integrals threads:           8
    Memory (MB):              3576
    Algorithm:                Disk
    Integral Cache:           NONE
    Schwarz Cutoff:          1E-12
    Fitting Condition:       1E-12

   => Auxiliary Basis Set <=

  Basis Set: (AUG-CC-PVTZ AUX)
    Blend: AUG-CC-PVTZ-JKFIT
    Number of shells: 532
    Number of basis function: 1824
    Number of Cartesian functions: 2274
    Spherical Harmonics?: true
    Max angular momentum: 4

  Minimum eigenvalue in the overlap matrix is 7.2501461107E-07.
  Using Symmetric Orthogonalization.

  SCF Guess: Superposition of Atomic Densities via on-the-fly atomic UHF.

  ==> Iterations <==

                           Total Energy        Delta E     RMS |[F,P]|

   @DF-RHF iter   0:  -657.01661484967542   -6.57017e+02   1.38473e-02 
   @DF-RHF iter   1:  -649.78919124671665    7.22742e+00   1.41128e-03 
   @DF-RHF iter   2:  -650.10460027478450   -3.15409e-01   5.88287e-04 DIIS
   @DF-RHF iter   3:  -650.15573656250695   -5.11363e-02   3.08914e-04 DIIS
   @DF-RHF iter   4:  -650.17156804207218   -1.58315e-02   1.22338e-04 DIIS
   @DF-RHF iter   5:  -650.17323233299680   -1.66429e-03   6.01910e-05 DIIS
   @DF-RHF iter   6:  -650.17353532240418   -3.02989e-04   2.00312e-05 DIIS
   @DF-RHF iter   7:  -650.17358506705148   -4.97446e-05   6.57473e-06 DIIS
   @DF-RHF iter   8:  -650.17359043468332   -5.36763e-06   2.55464e-06 DIIS
   @DF-RHF iter   9:  -650.17359174917397   -1.31449e-06   9.04890e-07 DIIS
   @DF-RHF iter  10:  -650.17359215715112   -4.07977e-07   5.93311e-07 DIIS
   @DF-RHF iter  11:  -650.17359225951998   -1.02369e-07   1.63192e-07 DIIS
   @DF-RHF iter  12:  -650.17359227365068   -1.41307e-08   5.34779e-08 DIIS
   @DF-RHF iter  13:  -650.17359227450083   -8.50150e-10   2.88214e-08 DIIS
   @DF-RHF iter  14:  -650.17359227461452   -1.13687e-10   8.07632e-09 DIIS
   @DF-RHF iter  15:  -650.17359227462327   -8.75389e-12   4.13474e-09 DIIS
   @DF-RHF iter  16:  -650.17359227463191   -8.64020e-12   1.61407e-09 DIIS
   @DF-RHF iter  17:  -650.17359227462407    7.84439e-12   7.18610e-10 DIIS
   @DF-RHF iter  18:  -650.17359227462794   -3.86535e-12   3.41229e-10 DIIS
   @DF-RHF iter  19:  -650.17359227463248   -4.54747e-12   1.15670e-10 DIIS
   @DF-RHF iter  20:  -650.17359227460770    2.47837e-11   6.02435e-11 DIIS

  ==> Post-Iterations <==

    Orbital Energies (a.u.)
    -----------------------

    Doubly Occupied:                                                      

       1A    -26.327689     2A    -20.609289     3A    -15.565331  
       4A    -11.349729     5A    -11.327954     6A    -11.274944  
       7A    -11.274187     8A    -11.265390     9A    -11.265233  
      10A    -11.254333    11A    -11.252861    12A    -11.245882  
      13A    -11.239622    14A    -11.238359    15A     -1.645877  
      16A     -1.423904    17A     -1.250487    18A     -1.181850  
      19A     -1.110280    20A     -1.041479    21A     -1.034515  
      22A     -1.019603    23A     -0.892003    24A     -0.876982  
      25A     -0.853845    26A     -0.824823    27A     -0.773147  
      28A     -0.747465    29A     -0.725060    30A     -0.712123  
      31A     -0.697226    32A     -0.664642    33A     -0.661238  
      34A     -0.642003    35A     -0.635751    36A     -0.614206  
      37A     -0.608637    38A     -0.599219    39A     -0.577937  
      40A     -0.543567    41A     -0.534052    42A     -0.533363  
      43A     -0.521985    44A     -0.494633    45A     -0.419439  
      46A     -0.387188    47A     -0.360135    48A     -0.349235  
      49A     -0.324357  

    Virtual:                                                              

      50A      0.021873    51A      0.029146    52A      0.034372  
      53A      0.036728    54A      0.044644    55A      0.047100  
      56A      0.052857    57A      0.054618    58A      0.076423  
      59A      0.082380    60A      0.082840    61A      0.085619  
      62A      0.092343    63A      0.095327    64A      0.097224  
      65A      0.101196    66A      0.104301    67A      0.108423  
      68A      0.110200    69A      0.112824    70A      0.113113  
      71A      0.118612    72A      0.120889    73A      0.125171  
      74A      0.129489    75A      0.131581    76A      0.133747  
      77A      0.135509    78A      0.140492    79A      0.143294  
      80A      0.147182    81A      0.151584    82A      0.154230  
      83A      0.155568    84A      0.155911    85A      0.166947  
      86A      0.171429    87A      0.173343    88A      0.182824  
      89A      0.185849    90A      0.193492    91A      0.200550  
      92A      0.208221    93A      0.213433    94A      0.216397  
      95A      0.225268    96A      0.228539    97A      0.235675  
      98A      0.236233    99A      0.239889   100A      0.241485  
     101A      0.244393   102A      0.249069   103A      0.253539  
     104A      0.257371   105A      0.260550   106A      0.264504  
     107A      0.266811   108A      0.269013   109A      0.272500  
     110A      0.278892   111A      0.281907   112A      0.285281  
     113A      0.291328   114A      0.293755   115A      0.300384  
     116A      0.301438   117A      0.309803   118A      0.313476  
     119A      0.317645   120A      0.318864   121A      0.322873  
     122A      0.327021   123A      0.328829   124A      0.331257  
     125A      0.335972   126A      0.344744   127A      0.347798  
     128A      0.350046   129A      0.353764   130A      0.360134  
     131A      0.368302   132A      0.376507   133A      0.382222  
     134A      0.385929   135A      0.390245   136A      0.395659  
     137A      0.401108   138A      0.404285   139A      0.406678  
     140A      0.413100   141A      0.415836   142A      0.419008  
     143A      0.424517   144A      0.427258   145A      0.429676  
     146A      0.436658   147A      0.442787   148A      0.445884  
     149A      0.447812   150A      0.450945   151A      0.458979  
     152A      0.463356   153A      0.467299   154A      0.469433  
     155A      0.474293   156A      0.476034   157A      0.479279  
     158A      0.485399   159A      0.485679   160A      0.488311  
     161A      0.493498   162A      0.496661   163A      0.498058  
     164A      0.502035   165A      0.509452   166A      0.511217  
     167A      0.511518   168A      0.513047   169A      0.522296  
     170A      0.522825   171A      0.524428   172A      0.530092  
     173A      0.535213   174A      0.540714   175A      0.544629  
     176A      0.547034   177A      0.550845   178A      0.554782  
     179A      0.558831   180A      0.563352   181A      0.573748  
     182A      0.576013   183A      0.580411   184A      0.584065  
     185A      0.590847   186A      0.594210   187A      0.604267  
     188A      0.612640   189A      0.621904   190A      0.627005  
     191A      0.627818   192A      0.636715   193A      0.641272  
     194A      0.643867   195A      0.648956   196A      0.656783  
     197A      0.657663   198A      0.671929   199A      0.679495  
     200A      0.682726   201A      0.695207   202A      0.696674  
     203A      0.702390   204A      0.705675   205A      0.709052  
     206A      0.716904   207A      0.719799   208A      0.725749  
     209A      0.733668   210A      0.736706   211A      0.738215  
     212A      0.739579   213A      0.746568   214A      0.756073  
     215A      0.764628   216A      0.767694   217A      0.773724  
     218A      0.779712   219A      0.788864   220A      0.791240  
     221A      0.799544   222A      0.805162   223A      0.811291  
     224A      0.820866   225A      0.822863   226A      0.829171  
     227A      0.832054   228A      0.837218   229A      0.852988  
     230A      0.854700   231A      0.855481   232A      0.862008  
     233A      0.864352   234A      0.870695   235A      0.873605  
     236A      0.879846   237A      0.886388   238A      0.888016  
     239A      0.893432   240A      0.898122   241A      0.903909  
     242A      0.907576   243A      0.911965   244A      0.922875  
     245A      0.928055   246A      0.931606   247A      0.932999  
     248A      0.933859   249A      0.942142   250A      0.945179  
     251A      0.949050   252A      0.955994   253A      0.959061  
     254A      0.963026   255A      0.965988   256A      0.971184  
     257A      0.973616   258A      0.986111   259A      0.989574  
     260A      0.992200   261A      0.997792   262A      1.003209  
     263A      1.008742   264A      1.010865   265A      1.019361  
     266A      1.022402   267A      1.024719   268A      1.028154  
     269A      1.031733   270A      1.037022   271A      1.044424  
     272A      1.046950   273A      1.051807   274A      1.052270  
     275A      1.060151   276A      1.064184   277A      1.071270  
     278A      1.073479   279A      1.080091   280A      1.083996  
     281A      1.087984   282A      1.093680   283A      1.098606  
     284A      1.102191   285A      1.108632   286A      1.112587  
     287A      1.119627   288A      1.124752   289A      1.128603  
     290A      1.130329   291A      1.134509   292A      1.145421  
     293A      1.147489   294A      1.154302   295A      1.156487  
     296A      1.159055   297A      1.165144   298A      1.167678  
     299A      1.173231   300A      1.180201   301A      1.186971  
     302A      1.189418   303A      1.198673   304A      1.202195  
     305A      1.204369   306A      1.214005   307A      1.219705  
     308A      1.223962   309A      1.227554   310A      1.231902  
     311A      1.240171   312A      1.245136   313A      1.250621  
     314A      1.259365   315A      1.261646   316A      1.269540  
     317A      1.272684   318A      1.280449   319A      1.285989  
     320A      1.297938   321A      1.299670   322A      1.306856  
     323A      1.310715   324A      1.316421   325A      1.325786  
     326A      1.329906   327A      1.343460   328A      1.349340  
     329A      1.352331   330A      1.357595   331A      1.370633  
     332A      1.372991   333A      1.378044   334A      1.383716  
     335A      1.390349   336A      1.402584   337A      1.405537  
     338A      1.412742   339A      1.417289   340A      1.429406  
     341A      1.434978   342A      1.443409   343A      1.448894  
     344A      1.464489   345A      1.469906   346A      1.476985  
     347A      1.485227   348A      1.491597   349A      1.498493  
     350A      1.505404   351A      1.513549   352A      1.514999  
     353A      1.525542   354A      1.536444   355A      1.553290  
     356A      1.556923   357A      1.564583   358A      1.567442  
     359A      1.569464   360A      1.585126   361A      1.587800  
     362A      1.599428   363A      1.603543   364A      1.605377  
     365A      1.622963   366A      1.634343   367A      1.640114  
     368A      1.644040   369A      1.646465   370A      1.651447  
     371A      1.660641   372A      1.667648   373A      1.676288  
     374A      1.686629   375A      1.689869   376A      1.698504  
     377A      1.703517   378A      1.714325   379A      1.726598  
     380A      1.727610   381A      1.729347   382A      1.739631  
     383A      1.743866   384A      1.749178   385A      1.761147  
     386A      1.770208   387A      1.781216   388A      1.787094  
     389A      1.791777   390A      1.798654   391A      1.809421  
     392A      1.810968   393A      1.821185   394A      1.823766  
     395A      1.833965   396A      1.849058   397A      1.860934  
     398A      1.872721   399A      1.880603   400A      1.881790  
     401A      1.889940   402A      1.894441   403A      1.902090  
     404A      1.902531   405A      1.911450   406A      1.923041  
     407A      1.929848   408A      1.940210   409A      1.941396  
     410A      1.949850   411A      1.950987   412A      1.960272  
     413A      1.974665   414A      1.981464   415A      1.992513  
     416A      2.000232   417A      2.008596   418A      2.016023  
     419A      2.019774   420A      2.028416   421A      2.035606  
     422A      2.048466   423A      2.052815   424A      2.058461  
     425A      2.067355   426A      2.080610   427A      2.086685  
     428A      2.090735   429A      2.098913   430A      2.107626  
     431A      2.115481   432A      2.119530   433A      2.121416  
     434A      2.130589   435A      2.138068   436A      2.145487  
     437A      2.156576   438A      2.169130   439A      2.177931  
     440A      2.189834   441A      2.196126   442A      2.197139  
     443A      2.212317   444A      2.219586   445A      2.225574  
     446A      2.234687   447A      2.248088   448A      2.255707  
     449A      2.265672   450A      2.270756   451A      2.280402  
     452A      2.286383   453A      2.299235   454A      2.303545  
     455A      2.316459   456A      2.325370   457A      2.337195  
     458A      2.339303   459A      2.355149   460A      2.363821  
     461A      2.376874   462A      2.382971   463A      2.412173  
     464A      2.415020   465A      2.421684   466A      2.430056  
     467A      2.442820   468A      2.452381   469A      2.464283  
     470A      2.467181   471A      2.477733   472A      2.496202  
     473A      2.514410   474A      2.532841   475A      2.549422  
     476A      2.560634   477A      2.567418   478A      2.575547  
     479A      2.579299   480A      2.586125   481A      2.590637  
     482A      2.611583   483A      2.613469   484A      2.629227  
     485A      2.639283   486A      2.669538   487A      2.677981  
     488A      2.690085   489A      2.714505   490A      2.724004  
     491A      2.740151   492A      2.753374   493A      2.763282  
     494A      2.791060   495A      2.811251   496A      2.825065  
     497A      2.829140   498A      2.838601   499A      2.843946  
     500A      2.870320   501A      2.878308   502A      2.895882  
     503A      2.918098   504A      2.944433   505A      2.968579  
     506A      2.978290   507A      3.022828   508A      3.037252  
     509A      3.058104   510A      3.060448   511A      3.066238  
     512A      3.081167   513A      3.114282   514A      3.122163  
     515A      3.133306   516A      3.156206   517A      3.158640  
     518A      3.172821   519A      3.182736   520A      3.191975  
     521A      3.201878   522A      3.206946   523A      3.234577  
     524A      3.256958   525A      3.264214   526A      3.265932  
     527A      3.283053   528A      3.290368   529A      3.295777  
     530A      3.313820   531A      3.330702   532A      3.342021  
     533A      3.354746   534A      3.367042   535A      3.377829  
     536A      3.394947   537A      3.400546   538A      3.413210  
     539A      3.415288   540A      3.426001   541A      3.437387  
     542A      3.444238   543A      3.449612   544A      3.454577  
     545A      3.457659   546A      3.479237   547A      3.489642  
     548A      3.493186   549A      3.494626   550A      3.505989  
     551A      3.523424   552A      3.540289   553A      3.543578  
     554A      3.550726   555A      3.557558   556A      3.561666  
     557A      3.566134   558A      3.577691   559A      3.581461  
     560A      3.591834   561A      3.597721   562A      3.611841  
     563A      3.618973   564A      3.627094   565A      3.631232  
     566A      3.637431   567A      3.653501   568A      3.654600  
     569A      3.665956   570A      3.678407   571A      3.687316  
     572A      3.704497   573A      3.711572   574A      3.716999  
     575A      3.732841   576A      3.738187   577A      3.746136  
     578A      3.756239   579A      3.761850   580A      3.780081  
     581A      3.783049   582A      3.791437   583A      3.804474  
     584A      3.807777   585A      3.820075   586A      3.825248  
     587A      3.825996   588A      3.847411   589A      3.850670  
     590A      3.865361   591A      3.874488   592A      3.884222  
     593A      3.891039   594A      3.897895   595A      3.906406  
     596A      3.916326   597A      3.919801   598A      3.928818  
     599A      3.935072   600A      3.944347   601A      3.948789  
     602A      3.954690   603A      3.960589   604A      3.967944  
     605A      3.980856   606A      3.983760   607A      4.004814  
     608A      4.019238   609A      4.024596   610A      4.032459  
     611A      4.039134   612A      4.044907   613A      4.061091  
     614A      4.070745   615A      4.080523   616A      4.082706  
     617A      4.089260   618A      4.108871   619A      4.113444  
     620A      4.116139   621A      4.122956   622A      4.137981  
     623A      4.144281   624A      4.154903   625A      4.156775  
     626A      4.180916   627A      4.186327   628A      4.197260  
     629A      4.203364   630A      4.213819   631A      4.217070  
     632A      4.225858   633A      4.234890   634A      4.238191  
     635A      4.248657   636A      4.266068   637A      4.286561  
     638A      4.289909   639A      4.304525   640A      4.305078  
     641A      4.313232   642A      4.320292   643A      4.325484  
     644A      4.342949   645A      4.351029   646A      4.355694  
     647A      4.362686   648A      4.372501   649A      4.377492  
     650A      4.391482   651A      4.409464   652A      4.418801  
     653A      4.421949   654A      4.426099   655A      4.439486  
     656A      4.446684   657A      4.458365   658A      4.463323  
     659A      4.468800   660A      4.480829   661A      4.485852  
     662A      4.509087   663A      4.520956   664A      4.526959  
     665A      4.532682   666A      4.546204   667A      4.571087  
     668A      4.581384   669A      4.588289   670A      4.598899  
     671A      4.604375   672A      4.611480   673A      4.620701  
     674A      4.640993   675A      4.656503   676A      4.678809  
     677A      4.684241   678A      4.702191   679A      4.719201  
     680A      4.723736   681A      4.738804   682A      4.742960  
     683A      4.759836   684A      4.771502   685A      4.793951  
     686A      4.803455   687A      4.817572   688A      4.847840  
     689A      4.861379   690A      4.864058   691A      4.891181  
     692A      4.900591   693A      4.915032   694A      4.938633  
     695A      4.956125   696A      4.966280   697A      4.970130  
     698A      4.974615   699A      4.984732   700A      5.008653  
     701A      5.018078   702A      5.024807   703A      5.037102  
     704A      5.037610   705A      5.042004   706A      5.057780  
     707A      5.069382   708A      5.097187   709A      5.101042  
     710A      5.114986   711A      5.125413   712A      5.133914  
     713A      5.144369   714A      5.165831   715A      5.173121  
     716A      5.179294   717A      5.184804   718A      5.189630  
     719A      5.190954   720A      5.206639   721A      5.231698  
     722A      5.270613   723A      5.274447   724A      5.294987  
     725A      5.308727   726A      5.312135   727A      5.334136  
     728A      5.354373   729A      5.366264   730A      5.380856  
     731A      5.398088   732A      5.430046   733A      5.439064  
     734A      5.455653   735A      5.459747   736A      5.467711  
     737A      5.471527   738A      5.495344   739A      5.529350  
     740A      5.554332   741A      5.562106   742A      5.575532  
     743A      5.597110   744A      5.614209   745A      5.642071  
     746A      5.692747   747A      5.709441   748A      5.743791  
     749A      5.753677   750A      5.765195   751A      5.797804  
     752A      5.802793   753A      5.836051   754A      5.847749  
     755A      5.877453   756A      5.881608   757A      5.909823  
     758A      5.958641   759A      6.016376   760A      6.044492  
     761A      6.081451   762A      6.111499   763A      6.131498  
     764A      6.180340   765A      6.231983   766A      6.258368  
     767A      6.285480   768A      6.306503   769A      6.318430  
     770A      6.365589   771A      6.391965   772A      6.462216  
     773A      6.493878   774A      6.514359   775A      6.529307  
     776A      6.571923   777A      6.686755   778A      6.697711  
     779A      6.709520   780A      6.717408   781A      6.743250  
     782A      6.840673   783A      6.872172   784A      6.886108  
     785A      6.926895   786A      6.958278   787A      6.993467  
     788A      7.046773   789A      7.054251   790A      7.078626  
     791A      7.187659   792A      7.252550   793A      7.391915  
     794A      7.415089   795A      7.419041   796A      7.470950  
     797A      7.678989   798A      7.684622   799A      7.745830  
     800A      7.995025   801A      8.375824   802A      8.630306  
     803A      9.002273   804A      9.046063   805A      9.268735  
     806A      9.286983   807A      9.403274   808A      9.518660  
     809A      9.537320   810A      9.593290   811A      9.640031  
     812A      9.713274   813A     10.031312   814A     10.075894  
     815A     15.530935   816A     16.148029   817A     16.567663  
     818A     16.595592   819A     16.684926   820A     16.807058  
     821A     18.459283   822A     18.700285   823A     19.207537  
     824A     19.690217   825A     20.153215   826A     20.198773  
     827A     20.418705   828A     21.806365  

    Final Occupation by Irrep:
              A 
    DOCC [    49 ]

  Energy converged.

  @DF-RHF Final Energy:  -650.17359227460770

   => Energetics <=

    Nuclear Repulsion Energy =            814.0241992639238333
    One-Electron Energy =               -2502.8494640935487041
    Two-Electron Energy =                1038.6516725550170577
    DFT Exchange-Correlation Energy =       0.0000000000000000
    Empirical Dispersion Energy =           0.0000000000000000
    PCM Polarization Energy =               0.0000000000000000
    EFP Energy =                            0.0000000000000000
    Total Energy =                       -650.1735922746076994



Properties will be evaluated at   0.000000,   0.000000,   0.000000 Bohr

Properties computed using the SCF density matrix

  Nuclear Dipole Moment: (a.u.)
     X:    -2.1332      Y:     1.3135      Z:    -4.2698

  Electronic Dipole Moment: (a.u.)
     X:     1.1404      Y:    -0.7746      Z:     4.9013

  Dipole Moment: (a.u.)
     X:    -0.9928      Y:     0.5390      Z:     0.6314     Total:     1.2942

  Dipole Moment: (Debye)
     X:    -2.5235      Y:     1.3700      Z:     1.6050     Total:     3.2895


*** tstop() called on gpu-1-6.local at Sat Nov 11 23:38:36 2017
Module time:
	user time   =    1284.81 seconds =      21.41 minutes
	system time =      54.82 seconds =       0.91 minutes
	total time  =        567 seconds =       9.45 minutes
Total time:
	user time   =    1284.82 seconds =      21.41 minutes
	system time =      54.82 seconds =       0.91 minutes
	total time  =        567 seconds =       9.45 minutes

  //>>>>>>>>>>>>>>>>>>>>>>>>>>>>>>>>>>>//
  //               DFMP2               //
  //<<<<<<<<<<<<<<<<<<<<<<<<<<<<<<<<<<<//

   => Loading Basis Set <=

    Name: (AUG-CC-PVTZ AUX)
    Role: RIFIT
    Keyword: DF_BASIS_MP2
    atoms 1-11  entry C          line   147 file /cbio/jclab/home/chayas/anaconda/envs/py35/share/psi4/basis/aug-cc-pvtz-ri.gbs 
    atoms 12    entry N          line   205 file /cbio/jclab/home/chayas/anaconda/envs/py35/share/psi4/basis/aug-cc-pvtz-ri.gbs 
    atoms 13    entry O          line   263 file /cbio/jclab/home/chayas/anaconda/envs/py35/share/psi4/basis/aug-cc-pvtz-ri.gbs 
    atoms 14    entry F          line   321 file /cbio/jclab/home/chayas/anaconda/envs/py35/share/psi4/basis/aug-cc-pvtz-ri.gbs 
    atoms 15-22 entry H          line    29 file /cbio/jclab/home/chayas/anaconda/envs/py35/share/psi4/basis/aug-cc-pvtz-ri.gbs 

	 --------------------------------------------------------
	                          DF-MP2                         
	      2nd-Order Density-Fitted Moller-Plesset Theory     
	              RMP2 Wavefunction,   8 Threads             
	                                                         
	        Rob Parrish, Justin Turney, Andy Simmonett,      
	           Ed Hohenstein, and C. David Sherrill          
	 --------------------------------------------------------

   => Auxiliary Basis Set <=

  Basis Set: (AUG-CC-PVTZ AUX)
    Blend: AUG-CC-PVTZ-RI
    Number of shells: 504
    Number of basis function: 1852
    Number of Cartesian functions: 2344
    Spherical Harmonics?: true
    Max angular momentum: 4

	 --------------------------------------------------------
	                 NBF =   828, NAUX =  1852
	 --------------------------------------------------------
	   CLASS    FOCC     OCC    AOCC    AVIR     VIR    FVIR
	   PAIRS       0      49      49     779     779       0
	 --------------------------------------------------------


         ------------------------------------------------------------
                                     CPHF                           
                                  Rob Parrish                       
         ------------------------------------------------------------

  ==> Geometry <==

    Molecular point group: c1
    Full point group: C1

    Geometry (in Angstrom), charge = 0, multiplicity = 1:

       Center              X                  Y                   Z               Mass       
    ------------   -----------------  -----------------  -----------------  -----------------
           C         -1.321743429369     0.755001006756    -0.799494959991    12.000000000000
           C         -2.399743429369     1.328001006756    -0.126494959991    12.000000000000
           C          0.618256570631    -1.477998993244    -1.675494959991    12.000000000000
           C          2.121256570631     0.038001006756    -0.568494959991    12.000000000000
           C         -1.406743429369     0.712001006756     1.988505040009    12.000000000000
           C          1.720256570631    -2.010998993244    -2.324494959991    12.000000000000
           C          3.156256570631    -0.562998993244    -1.266494959991    12.000000000000
           C         -0.285743429369     0.160001006756    -0.079494959991    12.000000000000
           C          0.831256570631    -0.433998993244    -0.782494959991    12.000000000000
           C         -2.442743429369     1.307001006756     1.267505040009    12.000000000000
           C         -0.328743429369     0.139001006756     1.314505040009    12.000000000000
           N          2.988256570631    -1.578998993244    -2.142494959991    14.003074004780
           O         -3.495743429369     1.867001006756     1.924505040009    15.994914619560
           F          0.659256570631    -0.428998993244     2.021505040009    18.998403224000
           H         -1.302743429369     0.779001006756    -1.886494959991     1.007825032070
           H         -3.204743429369     1.789001006756    -0.693494959991     1.007825032070
           H         -0.373743429369    -1.871998993244    -1.870494959991     1.007825032070
           H          2.325256570631     0.851001006756     0.121505040009     1.007825032070
           H         -1.434743429369     0.692001006756     3.074505040009     1.007825032070
           H          1.607256570631    -2.824998993244    -3.032494959991     1.007825032070
           H          4.180256570631    -0.231998993244    -1.133494959991     1.007825032070
           H         -3.381743429369     1.773001006756     2.883505040009     1.007825032070

  Nuclear repulsion =  814.024199263923833
  Reference energy  = -650.173592274607699

  ==> Basis Set <==

  Basis Set: AUG-CC-PVTZ
    Blend: AUG-CC-PVTZ
    Number of shells: 268
    Number of basis function: 828
    Number of Cartesian functions: 970
    Spherical Harmonics?: true
    Max angular momentum: 3

  ==> CGRSolver (by Rob Parrish) <==

   Number of roots    =         1
   Preconditioning    =    JACOBI
   Convergence cutoff =     1E-06
   Maximum iterations =       100

  ==> CPHFRHamiltonian (by Rob Parrish) <== 

  ==> DFJK: Density-Fitted J/K Matrices <==

    J tasked:                  Yes
    K tasked:                  Yes
    wK tasked:                  No
    OpenMP threads:              8
    Integrals threads:           8
    Memory (MB):              3576
    Algorithm:                Disk
    Integral Cache:           NONE
    Schwarz Cutoff:          1E-12
    Fitting Condition:       1E-12

   => Auxiliary Basis Set <=

  Basis Set: (AUG-CC-PVTZ AUX)
    Blend: AUG-CC-PVTZ-JKFIT
    Number of shells: 532
    Number of basis function: 1824
    Number of Cartesian functions: 2274
    Spherical Harmonics?: true
    Max angular momentum: 4

  ==> CPHF Iterations <==

  => Iterations <=

             Iter  Converged  Remaining    Residual
  CGR           1          0          1   1.026E-01
  CGR           2          0          1   3.433E-02
  CGR           3          0          1   2.258E-02
  CGR           4          0          1   9.823E-03
  CGR           5          0          1   4.081E-03
  CGR           6          0          1   1.528E-03
  CGR           7          0          1   4.496E-04
  CGR           8          0          1   1.493E-04
  CGR           9          0          1   4.737E-05
  CGR          10          0          1   1.330E-05
  CGR          11          0          1   5.450E-06
  CGR          12          0          1   1.774E-06
  CGR          13          1          0   8.890E-07

    CGRSolver converged.

  ==> DFCorrGrad: Density-Fitted Correlated Gradients <==

    OpenMP threads:              8
    Integrals threads:           8
    Memory (MB):              3576
    Schwarz Cutoff:          0E+00
    Fitting Condition:       1E-12

   => Auxiliary Basis Set <=

  Basis Set: (AUG-CC-PVTZ AUX)
    Blend: AUG-CC-PVTZ-JKFIT
    Number of shells: 532
    Number of basis function: 1824
    Number of Cartesian functions: 2274
    Spherical Harmonics?: true
    Max angular momentum: 4

	-----------------------------------------------------------
	 ==================> DF-MP2 Energies <==================== 
	-----------------------------------------------------------
	 Reference Energy          =    -650.1735922746076994 [Eh]
	 Singles Energy            =      -0.0000000000000001 [Eh]
	 Same-Spin Energy          =      -0.6775242357027828 [Eh]
	 Opposite-Spin Energy      =      -2.0194501901688593 [Eh]
	 Correlation Energy        =      -2.6969744258716419 [Eh]
	 Total Energy              =    -652.8705667004793440 [Eh]
	-----------------------------------------------------------
	 ================> DF-SCS-MP2 Energies <================== 
	-----------------------------------------------------------
	 SCS Same-Spin Scale       =       0.3333333333333333 [-]
	 SCS Opposite-Spin Scale   =       1.2000000000000000 [-]
	 SCS Same-Spin Energy      =      -0.2258414119009276 [Eh]
	 SCS Opposite-Spin Energy  =      -2.4233402282026311 [Eh]
	 SCS Correlation Energy    =      -2.6491816401035586 [Eh]
	 SCS Total Energy          =    -652.8227739147112061 [Eh]
	-----------------------------------------------------------


  -Total Gradient:
     Atom            X                  Y                   Z
    ------   -----------------  -----------------  -----------------
       1        0.010478073295    -0.002631422239    -0.014340680078
       2        0.003920686182    -0.001899119842     0.003328533506
       3       -0.007252513565    -0.000976941393     0.003048593805
       4       -0.003863734814     0.005911844729     0.003742410428
       5       -0.008042659418     0.004398785752     0.001140125667
       6       -0.014012535471    -0.001029258937     0.002628237926
       7       -0.003142746800     0.009524462582     0.008706709020
       8       -0.001225868936     0.000738311255    -0.002700398218
       9       -0.001575432565     0.001056508361    -0.000960375527
      10       -0.008679128871     0.005035671164    -0.004558940490
      11        0.021084471901    -0.014834114119     0.005530615720
      12        0.013503359587    -0.006731488577    -0.008449808572
      13        0.002795792285    -0.001643928687     0.000382081520
      14        0.001602121016    -0.000310657123     0.002179100941
      15       -0.002791131141     0.001290977283    -0.006286001879
      16       -0.003341175560     0.001636212971    -0.005368467809
      17       -0.003132432774    -0.002590293157    -0.002774889318
      18        0.002901779901     0.003647399278     0.002818442539
      19       -0.000939520223     0.000630127649     0.004379956400
      20        0.000393007210    -0.001766334420    -0.001985537062
      21        0.002492324208     0.000168824738     0.000091089451
      22       -0.001172735464     0.000374432737     0.009449202036


*** tstop() called on gpu-1-6.local at Sun Nov 12 00:15:13 2017
Module time:
	user time   =    5707.52 seconds =      95.13 minutes
	system time =     119.80 seconds =       2.00 minutes
	total time  =       2764 seconds =      46.07 minutes
Total time:
	user time   =    5707.53 seconds =      95.13 minutes
	system time =     119.80 seconds =       2.00 minutes
	total time  =       2764 seconds =      46.07 minutes

			-----------------------------------------
			 OPTKING 2.0: for geometry optimizations 
			  - R.A. King,  Bethel University        
			-----------------------------------------

	Internal coordinates to be generated automatically.
	Detected frag 1 with atoms:  1 2 3 4 5 6 7 8 9 10 11 12 13 14 15 16 17 18 19 20
	 21 22
	---Fragment 1 Bond Connectivity---
	 1 : 2 8 15
	 2 : 1 10 16
	 3 : 6 9 17
	 4 : 7 9 18
	 5 : 10 11 19
	 6 : 3 12 20
	 7 : 4 12 21
	 8 : 1 9 11
	 9 : 3 4 8
	 10 : 2 5 13
	 11 : 5 8 14
	 12 : 6 7
	 13 : 10 22
	 14 : 11
	 15 : 1
	 16 : 2
	 17 : 3
	 18 : 4
	 19 : 5
	 20 : 6
	 21 : 7
	 22 : 13

	Assuming in current code that numbering for constraints corresponds to unified fragment.
	Fixed dihedral atom list: 
	     2    10    13    22
	---Fragment 1 Geometry and Gradient---
	 C          -2.4977330994        1.4267451328       -1.5108265190
	 C          -4.5348578707        2.5095582070       -0.2390408316
	 C           1.1683355984       -2.7930133219       -3.1662266114
	 C           4.0085939761        0.0718114955       -1.0742997823
	 C          -2.6583598207        1.3454869091        3.7577299395
	 C           3.2508137968       -3.8002373507       -4.3926588717
	 C           5.9644605236       -1.0639139103       -2.3933286231
	 C          -0.5399768258        0.3023580838       -0.1502237033
	 C           1.5708472647       -0.8201392392       -1.4787011747
	 C          -4.6161160944        2.4698739582        2.3952373977
	 C          -0.6212350495        0.2626738350        2.4840545259
	 N           5.6469865333       -2.9838756613       -4.0487287155
	 O          -6.6059977123        3.5281205926        3.6367874670
	 F           1.2458143698       -0.8106906085        3.8200909019
	 H          -2.4618283029        1.4720985600       -3.5649588255
	 H          -6.0560874077        3.3807219542       -1.3105155489
	 H          -0.7062727255       -3.5375654183       -3.5347232073
	 H           4.3940981072        1.6081588416        0.2296112494
	 H          -2.7112721525        1.3076923865        5.8099725198
	 H           3.0372747438       -5.3384744229       -5.7305849737
	 H           7.8995400837       -0.4384145603       -2.1419950474
	 H          -6.3905689332        3.3504863361        5.4490348284
	             0.0104780733       -0.0026314222       -0.0143406801
	             0.0039206862       -0.0018991198        0.0033285335
	            -0.0072525136       -0.0009769414        0.0030485938
	            -0.0038637348        0.0059118447        0.0037424104
	            -0.0080426594        0.0043987858        0.0011401257
	            -0.0140125355       -0.0010292589        0.0026282379
	            -0.0031427468        0.0095244626        0.0087067090
	            -0.0012258689        0.0007383113       -0.0027003982
	            -0.0015754326        0.0010565084       -0.0009603755
	            -0.0086791289        0.0050356712       -0.0045589405
	             0.0210844719       -0.0148341141        0.0055306157
	             0.0135033596       -0.0067314886       -0.0084498086
	             0.0027957923       -0.0016439287        0.0003820815
	             0.0016021210       -0.0003106571        0.0021791009
	            -0.0027911311        0.0012909773       -0.0062860019
	            -0.0033411756        0.0016362130       -0.0053684678
	            -0.0031324328       -0.0025902932       -0.0027748893
	             0.0029017799        0.0036473993        0.0028184425
	            -0.0009395202        0.0006301276        0.0043799564
	             0.0003930072       -0.0017663344       -0.0019855371
	             0.0024923242        0.0001688247        0.0000910895
	            -0.0011727355        0.0003744327        0.0094492020

	Previous optimization step data not found.  Starting new optimization.

	---Fragment 1 Intrafragment Coordinates---
	 - Coordinate -           - BOHR/RAD -       - ANG/DEG -
	 R(1,2)           =         2.634350	       1.394038
	 R(1,8)           =         2.635962	       1.394891
	 R(1,15)          =         2.054947	       1.087431
	 R(2,10)          =         2.635830	       1.394821
	 R(2,16)          =         2.054537	       1.087214
	 R(3,6)           =         2.618273	       1.385530
	 R(3,9)           =         2.627164	       1.390235
	 R(3,17)          =         2.050440	       1.085046
	 R(4,7)           =         2.618229	       1.385507
	 R(4,9)           =         2.627114	       1.390209
	 R(4,18)          =         2.051624	       1.085673
	 R(5,10)          =         2.636938	       1.395407
	 R(5,11)          =         2.635263	       1.394521
	 R(5,19)          =         2.053272	       1.086545
	 R(6,12)          =         2.554678	       1.351877
	 R(6,20)          =         2.049834	       1.084725
	 R(7,12)          =         2.554876	       1.351982
	 R(7,21)          =         2.049134	       1.084355
	 R(8,9)           =         2.735038	       1.447320
	 R(8,11)          =         2.635830	       1.394821
	 R(10,13)         =         2.573123	       1.361638
	 R(11,14)         =         2.534359	       1.341125
	 R(13,22)         =         1.833631	       0.970316
	 B(1,2,10)        =         2.094553	     120.009056
	 B(1,2,16)        =         2.088723	     119.675016
	 B(1,8,9)         =         2.091569	     119.838095
	 B(1,8,11)        =         2.093692	     119.959722
	 B(2,1,8)         =         2.094940	     120.031219
	 B(2,1,15)        =         2.079469	     119.144799
	 B(2,10,5)        =         2.094306	     119.994870
	 B(2,10,13)       =         2.094247	     119.991510
	 B(3,6,12)        =         2.165211	     124.057445
	 B(3,6,20)        =         2.107791	     120.767548
	 B(3,9,4)         =         2.089790	     119.736135
	 B(3,9,8)         =         2.096656	     120.129524
	 B(4,7,12)        =         2.164668	     124.026364
	 B(4,7,21)        =         2.107421	     120.746344
	 B(4,9,8)         =         2.096739	     120.134309
	 B(5,10,13)       =         2.094633	     120.013619
	 B(5,11,8)        =         2.095181	     120.045019
	 B(5,11,14)       =         2.081414	     119.256220
	 B(6,3,9)         =         2.057714	     117.898335
	 B(6,3,17)        =         2.098197	     120.217854
	 B(6,12,7)        =         2.030771	     116.354583
	 B(7,4,9)         =         2.058217	     117.927126
	 B(7,4,18)        =         2.099769	     120.307895
	 B(8,1,15)        =         2.108776	     120.823969
	 B(8,11,14)       =         2.106591	     120.698759
	 B(9,3,17)        =         2.127271	     121.883627
	 B(9,4,18)        =         2.125200	     121.764971
	 B(9,8,11)        =         2.097924	     120.202184
	 B(10,2,16)       =         2.099909	     120.315896
	 B(10,5,11)       =         2.093699	     119.960108
	 B(10,5,19)       =         2.100355	     120.341451
	 B(10,13,22)      =         1.924294	     110.253909
	 B(11,5,19)       =         2.089132	     119.698439
	 B(12,6,20)       =         2.010181	     115.174900
	 B(12,7,21)       =         2.011095	     115.227270
	 D(1,2,10,5)      =        -0.000325	      -0.018609
	 D(1,2,10,13)     =         3.141388	     179.988267
	 D(1,8,9,3)       =        -1.047732	     -60.030615
	 D(1,8,9,4)       =         2.092736	     119.904915
	 D(1,8,11,5)      =         0.000325	       0.018608
	 D(1,8,11,14)     =        -3.141528	    -179.996269
	 D(2,1,8,9)       =         3.141277	     179.981897
	 D(2,1,8,11)      =        -0.000348	      -0.019945
	 D(2,10,5,11)     =         0.000301	       0.017261
	 D(2,10,5,19)     =        -3.141029	    -179.967685
	 D(2,10,13,22)    =         3.141285	     179.982383
	 D(3,6,12,7)      =         0.000000	       0.000000
	 D(3,9,4,7)       =        -0.000043	      -0.002444
	 D(3,9,4,18)      =        -3.141070	    -179.970061
	 D(3,9,8,11)      =         2.093893	     119.971231
	 D(4,7,12,6)      =        -0.000490	      -0.028079
	 D(4,9,3,6)       =        -0.000394	      -0.022595
	 D(4,9,3,17)      =        -3.139269	    -179.866889
	 D(4,9,8,11)      =        -1.048825	     -60.093239
	 D(5,10,2,16)     =         3.140149	     179.917291
	 D(5,10,13,22)    =        -0.000187	      -0.010740
	 D(5,11,8,9)      =        -3.141300	    -179.983240
	 D(6,3,9,8)       =         3.140078	     179.913192
	 D(6,12,7,21)     =         3.140154	     179.917593
	 D(7,4,9,8)       =        -3.140515	    -179.938228
	 D(7,12,6,20)     =         3.139530	     179.881843
	 D(8,1,2,10)      =         0.000348	       0.019955
	 D(8,1,2,16)      =        -3.140133	    -179.916358
	 D(8,9,3,17)      =         0.001202	       0.068898
	 D(8,9,4,18)      =         0.001643	       0.094154
	 D(8,11,5,10)     =        -0.000301	      -0.017270
	 D(8,11,5,19)     =         3.141030	     179.967774
	 D(9,3,6,12)      =         0.000430	       0.024638
	 D(9,3,6,20)      =        -3.138988	    -179.850775
	 D(9,4,7,12)      =         0.000513	       0.029399
	 D(9,4,7,21)      =        -3.140081	    -179.913416
	 D(9,8,1,15)      =         0.000403	       0.023110
	 D(9,8,11,14)     =         0.000033	       0.001883
	 D(10,2,1,15)     =         3.141234	     179.979432
	 D(10,5,11,14)    =         3.141547	     179.997392
	 D(11,5,10,13)    =        -3.141411	    -179.989616
	 D(11,8,1,15)     =        -3.141221	    -179.978731
	 D(12,6,3,17)     =         3.139352	     179.871634
	 D(12,7,4,18)     =         3.141549	     179.997508
	 D(13,10,2,16)    =        -0.001324	      -0.075833
	 D(13,10,5,19)    =         0.000444	       0.025437
	 D(14,11,5,19)    =        -0.000307	      -0.017564
	 D(15,1,2,16)     =         0.000753	       0.043120
	 D(17,3,6,20)     =        -0.000066	      -0.003779
	 D(18,4,7,21)     =         0.000955	       0.054693
	 R(4,14)          =         5.689185	       3.010587

	Current energy   :      -652.8705667005

	Generating empirical Hessian (Schlegel '84) for each fragment.
	Adding user-defined constraint: Fragment 1; Coordinate 69:
		Value =     3.141285; Fixed value    =    -3.141575
		Force =    -3.141430; Force constant =     0.500000
	Removing off-diagonal coupling between coordinate 69 and others.
	Taking RFO optimization step.
	Going to follow RFO solution 1.
	Using RFO vector 1.

	Determining step-restricting scale parameter for RS-RFO.
	Maximum step size allowed    0.10000

	 Iter      |step|        alpha        rfo_root  
	------------------------------------------------
	    0     0.93971       1.00000           1
	    1     0.56564       2.90550           1
	    2     0.34864       7.87029           1
	    3     0.22414      19.35053           1
	    4     0.15449      41.09229           1
	    5     0.11833      70.36412           1
	    6     0.10340      92.32882           1
	    7     0.10016      98.43963           1
	    8     0.10000      98.75472           1
	------------------------------------------------
	Norm of target step-size    0.10000
	Projected energy change by RFO approximation:        -0.2388891836

	Back-transformation to cartesian coordinates...
	The INTCO_EXCEPTion handler:
	TORS::compute_val: unable to compute torsion value
	Dynamic level is 0.
	exc.g_really_quit() is 0.

  **** Optimization has failed! (in 1 steps) ****
			--------------------------
			 OPTKING Finished Execution 
			--------------------------
	Cleaning optimization helper files.

*** Psi4 exiting successfully. Buy a developer a beer!
