
    -----------------------------------------------------------------------
          Psi4: An Open-Source Ab Initio Electronic Structure Package
                               Psi4 1.1 release

                         Git: Rev {HEAD} add49b9 


    R. M. Parrish, L. A. Burns, D. G. A. Smith, A. C. Simmonett,
    A. E. DePrince III, E. G. Hohenstein, U. Bozkaya, A. Yu. Sokolov,
    R. Di Remigio, R. M. Richard, J. F. Gonthier, A. M. James,
    H. R. McAlexander, A. Kumar, M. Saitow, X. Wang, B. P. Pritchard,
    P. Verma, H. F. Schaefer III, K. Patkowski, R. A. King, E. F. Valeev,
    F. A. Evangelista, J. M. Turney, T. D. Crawford, and C. D. Sherrill,
    J. Chem. Theory Comput. in press (2017).
    (doi: 10.1021/acs.jctc.7b00174)

    -----------------------------------------------------------------------


    Psi4 started on: Sunday, 12 November 2017 08:46AM

    Process ID:   4610
    PSIDATADIR: /cbio/jclab/home/chayas/anaconda/envs/py35/share/psi4
    Memory:     500.0 MiB
    Threads:    8
    
  ==> Input File <==

--------------------------------------------------------------------------

memory 5 Gb

molecule phepyrOH_cation {
  symmetry C1
  1 1 
  C      1.885   -1.036   -0.112
  C      2.878   -1.652   2.002
  C      0.807   -0.463   0.561
  C      1.800   -1.079   2.676
  C      4.440   -1.719   -1.322
  C      4.716   -3.305   0.469
  C      5.516   -2.309   -1.970
  C      5.786   -3.855   -0.224
  C      2.921   -1.631   0.608
  C      4.040   -2.225   -0.090
  C      0.764   -0.484   1.955
  N      6.150   -3.348   -1.409
  O      -0.288   0.076   2.612
  H      1.904   -1.012   -1.199
  H      3.678   -2.112   2.578
  H      0.003   -0.001   -0.006
  H      1.772   -1.098   3.762
  H      3.931   -0.877   -1.782
  H      4.425   -3.721   1.429
  H      5.897   -1.982   -2.928
  H      6.368   -4.693   0.134
  H      6.938   -3.767   -1.902
  H      -0.742   -0.592   3.151
  units Angstrom
}

dih_string = "3 11 13 23 120"
set optking fixed_dihedral = $dih_string

optimize('MP2/aug-cc-PVTZ')
--------------------------------------------------------------------------

  Memory set to   4.657 GiB by Python driver.
gradient() will perform analytic gradient computation.

*** tstart() called on gpu-1-17.local
*** at Sun Nov 12 08:46:41 2017

    SCF Algorithm Type (re)set to DF.

*** tstart() called on gpu-1-17.local
*** at Sun Nov 12 08:46:41 2017

   => Loading Basis Set <=

    Name: AUG-CC-PVTZ
    Role: ORBITAL
    Keyword: BASIS
    atoms 1-11  entry C          line   221 file /cbio/jclab/home/chayas/anaconda/envs/py35/share/psi4/basis/aug-cc-pvtz.gbs 
    atoms 12    entry N          line   267 file /cbio/jclab/home/chayas/anaconda/envs/py35/share/psi4/basis/aug-cc-pvtz.gbs 
    atoms 13    entry O          line   313 file /cbio/jclab/home/chayas/anaconda/envs/py35/share/psi4/basis/aug-cc-pvtz.gbs 
    atoms 14-23 entry H          line    34 file /cbio/jclab/home/chayas/anaconda/envs/py35/share/psi4/basis/aug-cc-pvtz.gbs 


         ---------------------------------------------------------
                                   SCF
            by Justin Turney, Rob Parrish, and Andy Simmonett
                              RHF Reference
                        8 Threads,   4768 MiB Core
         ---------------------------------------------------------

  ==> Geometry <==

    Molecular point group: c1
    Full point group: C1

    Geometry (in Angstrom), charge = 1, multiplicity = 1:

       Center              X                  Y                   Z               Mass       
    ------------   -----------------  -----------------  -----------------  -----------------
           C         -1.268194105656     0.723528486471    -0.576600550503    12.000000000000
           C         -0.275194105656     0.107528486471     1.537399449497    12.000000000000
           C         -2.346194105656     1.296528486471     0.096399449497    12.000000000000
           C         -1.353194105656     0.680528486471     2.211399449497    12.000000000000
           C          1.286805894344     0.040528486471    -1.786600550503    12.000000000000
           C          1.562805894344    -1.545471513529     0.004399449497    12.000000000000
           C          2.362805894344    -0.549471513529    -2.434600550503    12.000000000000
           C          2.632805894344    -2.095471513529    -0.688600550503    12.000000000000
           C         -0.232194105656     0.128528486471     0.143399449497    12.000000000000
           C          0.886805894344    -0.465471513529    -0.554600550503    12.000000000000
           C         -2.389194105656     1.275528486471     1.490399449497    12.000000000000
           N          2.996805894344    -1.588471513529    -1.873600550503    14.003074004780
           O         -3.441194105656     1.835528486471     2.147399449497    15.994914619560
           H         -1.249194105656     0.747528486471    -1.663600550503     1.007825032070
           H          0.524805894344    -0.352471513529     2.113399449497     1.007825032070
           H         -3.150194105656     1.758528486471    -0.470600550503     1.007825032070
           H         -1.381194105656     0.661528486471     3.297399449497     1.007825032070
           H          0.777805894344     0.882528486471    -2.246600550503     1.007825032070
           H          1.271805894344    -1.961471513529     0.964399449497     1.007825032070
           H          2.743805894344    -0.222471513529    -3.392600550503     1.007825032070
           H          3.214805894344    -2.933471513529    -0.330600550503     1.007825032070
           H          3.784805894344    -2.007471513529    -2.366600550503     1.007825032070
           H         -3.895194105656     1.167528486471     2.686399449497     1.007825032070

  Running in c1 symmetry.

  Rotational constants: A =      0.09612  B =      0.01335  C =      0.01192 [cm^-1]
  Rotational constants: A =   2881.71987  B =    400.30904  C =    357.50142 [MHz]
  Nuclear repulsion =  713.165801167540053

  Charge       = 1
  Multiplicity = 1
  Electrons    = 90
  Nalpha       = 45
  Nbeta        = 45

  ==> Algorithm <==

  SCF Algorithm Type is DF.
  DIIS enabled.
  MOM disabled.
  Fractional occupation disabled.
  Guess Type is SAD.
  Energy threshold   = 1.00e-10
  Density threshold  = 1.00e-10
  Integral threshold = 0.00e+00

  ==> Primary Basis <==

  Basis Set: AUG-CC-PVTZ
    Blend: AUG-CC-PVTZ
    Number of shells: 272
    Number of basis function: 828
    Number of Cartesian functions: 965
    Spherical Harmonics?: true
    Max angular momentum: 3

   => Loading Basis Set <=

    Name: (AUG-CC-PVTZ AUX)
    Role: JKFIT
    Keyword: DF_BASIS_SCF
    atoms 1-11  entry C          line   161 file /cbio/jclab/home/chayas/anaconda/envs/py35/share/psi4/basis/aug-cc-pvtz-jkfit.gbs 
    atoms 12    entry N          line   223 file /cbio/jclab/home/chayas/anaconda/envs/py35/share/psi4/basis/aug-cc-pvtz-jkfit.gbs 
    atoms 13    entry O          line   285 file /cbio/jclab/home/chayas/anaconda/envs/py35/share/psi4/basis/aug-cc-pvtz-jkfit.gbs 
    atoms 14-23 entry H          line    69 file /cbio/jclab/home/chayas/anaconda/envs/py35/share/psi4/basis/aug-cc-pvtz-jkfit.gbs 

  ==> Pre-Iterations <==

   -------------------------------------------------------
    Irrep   Nso     Nmo     Nalpha   Nbeta   Ndocc  Nsocc
   -------------------------------------------------------
     A        828     828       0       0       0       0
   -------------------------------------------------------
    Total     828     828      45      45      45       0
   -------------------------------------------------------

  ==> Integral Setup <==

  ==> DFJK: Density-Fitted J/K Matrices <==

    J tasked:                  Yes
    K tasked:                  Yes
    wK tasked:                  No
    OpenMP threads:              8
    Integrals threads:           8
    Memory (MB):              3576
    Algorithm:                Disk
    Integral Cache:           NONE
    Schwarz Cutoff:          1E-12
    Fitting Condition:       1E-12

   => Auxiliary Basis Set <=

  Basis Set: (AUG-CC-PVTZ AUX)
    Blend: AUG-CC-PVTZ-JKFIT
    Number of shells: 530
    Number of basis function: 1812
    Number of Cartesian functions: 2253
    Spherical Harmonics?: true
    Max angular momentum: 4

  Minimum eigenvalue in the overlap matrix is 5.9293891522E-07.
  Using Symmetric Orthogonalization.

  SCF Guess: Superposition of Atomic Densities via on-the-fly atomic UHF.

  ==> Iterations <==

                           Total Energy        Delta E     RMS |[F,P]|

   @DF-RHF iter   0:  -555.75246576432892   -5.55752e+02   2.33816e-02 
   @DF-RHF iter   1:  -551.34394475261979    4.40852e+00   1.83863e-03 
   @DF-RHF iter   2:  -551.61355905277594   -2.69614e-01   6.39369e-04 DIIS
   @DF-RHF iter   3:  -551.65683277433038   -4.32737e-02   3.66932e-04 DIIS
   @DF-RHF iter   4:  -551.66954748350372   -1.27147e-02   1.27581e-04 DIIS
   @DF-RHF iter   5:  -551.67126204725582   -1.71456e-03   5.22596e-05 DIIS
   @DF-RHF iter   6:  -551.67159003887446   -3.27992e-04   1.37989e-05 DIIS
   @DF-RHF iter   7:  -551.67161946253555   -2.94237e-05   5.38997e-06 DIIS
   @DF-RHF iter   8:  -551.67162223875857   -2.77622e-06   1.52307e-06 DIIS
   @DF-RHF iter   9:  -551.67162255691767   -3.18159e-07   6.08834e-07 DIIS
   @DF-RHF iter  10:  -551.67162262407294   -6.71553e-08   2.65534e-07 DIIS
   @DF-RHF iter  11:  -551.67162263952559   -1.54527e-08   9.84069e-08 DIIS
   @DF-RHF iter  12:  -551.67162264257820   -3.05261e-09   5.14510e-08 DIIS
   @DF-RHF iter  13:  -551.67162264314879   -5.70594e-10   1.76676e-08 DIIS
   @DF-RHF iter  14:  -551.67162264323611   -8.73115e-11   7.72809e-09 DIIS
   @DF-RHF iter  15:  -551.67162264326362   -2.75122e-11   2.48775e-09 DIIS
   @DF-RHF iter  16:  -551.67162264328556   -2.19416e-11   1.35699e-09 DIIS
   @DF-RHF iter  17:  -551.67162264327362    1.19371e-11   7.13865e-10 DIIS
   @DF-RHF iter  18:  -551.67162264327783   -4.20641e-12   3.15882e-10 DIIS
   @DF-RHF iter  19:  -551.67162264327214    5.68434e-12   1.39745e-10 DIIS
   @DF-RHF iter  20:  -551.67162264327771   -5.57066e-12   5.26563e-11 DIIS

  ==> Post-Iterations <==

    Orbital Energies (a.u.)
    -----------------------

    Doubly Occupied:                                                      

       1A    -20.690695     2A    -15.834820     3A    -11.485235  
       4A    -11.485153     5A    -11.446869     6A    -11.426612  
       7A    -11.415841     8A    -11.415529     9A    -11.377682  
      10A    -11.376941    11A    -11.374390    12A    -11.356157  
      13A    -11.354762    14A     -1.512466    15A     -1.509317  
      16A     -1.321888    17A     -1.263630    18A     -1.238180  
      19A     -1.153959    20A     -1.150194    21A     -1.069427  
      22A     -1.054380    23A     -0.970743    24A     -0.963246  
      25A     -0.949827    26A     -0.868755    27A     -0.859239  
      28A     -0.853642    29A     -0.820841    30A     -0.799728  
      31A     -0.780770    32A     -0.771525    33A     -0.756154  
      34A     -0.744426    35A     -0.725142    36A     -0.706501  
      37A     -0.706140    38A     -0.656214    39A     -0.651716  
      40A     -0.642863    41A     -0.599010    42A     -0.573369  
      43A     -0.538277    44A     -0.467782    45A     -0.445987  

    Virtual:                                                              

      46A     -0.107310    47A     -0.085143    48A     -0.064745  
      49A     -0.063304    50A     -0.059861    51A     -0.049579  
      52A     -0.043578    53A     -0.039732    54A     -0.034775  
      55A     -0.029637    56A     -0.026389    57A     -0.024341  
      58A     -0.017048    59A     -0.009466    60A     -0.007995  
      61A     -0.005114    62A      0.004177    63A      0.005526  
      64A      0.008520    65A      0.013659    66A      0.015927  
      67A      0.018455    68A      0.023955    69A      0.025617  
      70A      0.028206    71A      0.032945    72A      0.037544  
      73A      0.037651    74A      0.042860    75A      0.046557  
      76A      0.049699    77A      0.055189    78A      0.057695  
      79A      0.059365    80A      0.062898    81A      0.068050  
      82A      0.070899    83A      0.073472    84A      0.078030  
      85A      0.083353    86A      0.086722    87A      0.088414  
      88A      0.094899    89A      0.097193    90A      0.108426  
      91A      0.109325    92A      0.113987    93A      0.116814  
      94A      0.122924    95A      0.126728    96A      0.128385  
      97A      0.133232    98A      0.136924    99A      0.139068  
     100A      0.144176   101A      0.152042   102A      0.154982  
     103A      0.159205   104A      0.163278   105A      0.166289  
     106A      0.168124   107A      0.170785   108A      0.174429  
     109A      0.180373   110A      0.184548   111A      0.188302  
     112A      0.192392   113A      0.195699   114A      0.196911  
     115A      0.199281   116A      0.205722   117A      0.210408  
     118A      0.213129   119A      0.214678   120A      0.219471  
     121A      0.225611   122A      0.227053   123A      0.229615  
     124A      0.232503   125A      0.233684   126A      0.237326  
     127A      0.240663   128A      0.246567   129A      0.251825  
     130A      0.258047   131A      0.259844   132A      0.270427  
     133A      0.275199   134A      0.276589   135A      0.280613  
     136A      0.284795   137A      0.287562   138A      0.291530  
     139A      0.299534   140A      0.301306   141A      0.307701  
     142A      0.311558   143A      0.312087   144A      0.320070  
     145A      0.323317   146A      0.325534   147A      0.327311  
     148A      0.333350   149A      0.335815   150A      0.338629  
     151A      0.340255   152A      0.346282   153A      0.351600  
     154A      0.354391   155A      0.358939   156A      0.361595  
     157A      0.364541   158A      0.368092   159A      0.371715  
     160A      0.375239   161A      0.376534   162A      0.379736  
     163A      0.385123   164A      0.387192   165A      0.394013  
     166A      0.395085   167A      0.398689   168A      0.404538  
     169A      0.405889   170A      0.407057   171A      0.408170  
     172A      0.415190   173A      0.415586   174A      0.420859  
     175A      0.424816   176A      0.428708   177A      0.432911  
     178A      0.433790   179A      0.437741   180A      0.445459  
     181A      0.448282   182A      0.449843   183A      0.457301  
     184A      0.462781   185A      0.471097   186A      0.474442  
     187A      0.483944   188A      0.487726   189A      0.495671  
     190A      0.501815   191A      0.508810   192A      0.511372  
     193A      0.514714   194A      0.522728   195A      0.532097  
     196A      0.534019   197A      0.536469   198A      0.543459  
     199A      0.553896   200A      0.560153   201A      0.564575  
     202A      0.570891   203A      0.574502   204A      0.579558  
     205A      0.585480   206A      0.588105   207A      0.590406  
     208A      0.600655   209A      0.606152   210A      0.609163  
     211A      0.615048   212A      0.621238   213A      0.624286  
     214A      0.627030   215A      0.631710   216A      0.638412  
     217A      0.649714   218A      0.652048   219A      0.655782  
     220A      0.659750   221A      0.665749   222A      0.670254  
     223A      0.675769   224A      0.681459   225A      0.696688  
     226A      0.704821   227A      0.710571   228A      0.711418  
     229A      0.714150   230A      0.717905   231A      0.720414  
     232A      0.732895   233A      0.735948   234A      0.742766  
     235A      0.745444   236A      0.752876   237A      0.756034  
     238A      0.757711   239A      0.762210   240A      0.770393  
     241A      0.773790   242A      0.778118   243A      0.786162  
     244A      0.790585   245A      0.794445   246A      0.797695  
     247A      0.803692   248A      0.803959   249A      0.808825  
     250A      0.810058   251A      0.817600   252A      0.823311  
     253A      0.828780   254A      0.838703   255A      0.842597  
     256A      0.848331   257A      0.851396   258A      0.855888  
     259A      0.858087   260A      0.860337   261A      0.866769  
     262A      0.871757   263A      0.873012   264A      0.880133  
     265A      0.884364   266A      0.891036   267A      0.893082  
     268A      0.898077   269A      0.900607   270A      0.909782  
     271A      0.912267   272A      0.915803   273A      0.919037  
     274A      0.921594   275A      0.926028   276A      0.930187  
     277A      0.932674   278A      0.940587   279A      0.948227  
     280A      0.954376   281A      0.958376   282A      0.961635  
     283A      0.966783   284A      0.967063   285A      0.970336  
     286A      0.973456   287A      0.977065   288A      0.984293  
     289A      0.989296   290A      0.995055   291A      0.999262  
     292A      1.001015   293A      1.009041   294A      1.011660  
     295A      1.013784   296A      1.017592   297A      1.022016  
     298A      1.029666   299A      1.036659   300A      1.042861  
     301A      1.048111   302A      1.051183   303A      1.055278  
     304A      1.061524   305A      1.065115   306A      1.070831  
     307A      1.072492   308A      1.078578   309A      1.080624  
     310A      1.082120   311A      1.086200   312A      1.094667  
     313A      1.099593   314A      1.103419   315A      1.105802  
     316A      1.111580   317A      1.118465   318A      1.123385  
     319A      1.131257   320A      1.138842   321A      1.141917  
     322A      1.149150   323A      1.154404   324A      1.159478  
     325A      1.165390   326A      1.171665   327A      1.172861  
     328A      1.178968   329A      1.192430   330A      1.195389  
     331A      1.203989   332A      1.215620   333A      1.221314  
     334A      1.228549   335A      1.232088   336A      1.236237  
     337A      1.241537   338A      1.247507   339A      1.253394  
     340A      1.259322   341A      1.268790   342A      1.278871  
     343A      1.285250   344A      1.288767   345A      1.296131  
     346A      1.301682   347A      1.305194   348A      1.315346  
     349A      1.324785   350A      1.329310   351A      1.335980  
     352A      1.350187   353A      1.357258   354A      1.359555  
     355A      1.367063   356A      1.372978   357A      1.380102  
     358A      1.387452   359A      1.391636   360A      1.394629  
     361A      1.405521   362A      1.411560   363A      1.417350  
     364A      1.421633   365A      1.424968   366A      1.433537  
     367A      1.446893   368A      1.451449   369A      1.461246  
     370A      1.474712   371A      1.487170   372A      1.490516  
     373A      1.493509   374A      1.500651   375A      1.506221  
     376A      1.510247   377A      1.518090   378A      1.538051  
     379A      1.548106   380A      1.551375   381A      1.558889  
     382A      1.565082   383A      1.565789   384A      1.573602  
     385A      1.582463   386A      1.593194   387A      1.598664  
     388A      1.607103   389A      1.616802   390A      1.622452  
     391A      1.643535   392A      1.647914   393A      1.651743  
     394A      1.664260   395A      1.671469   396A      1.672012  
     397A      1.689894   398A      1.698024   399A      1.699193  
     400A      1.708103   401A      1.712283   402A      1.718092  
     403A      1.731329   404A      1.732794   405A      1.737779  
     406A      1.750203   407A      1.757113   408A      1.770144  
     409A      1.782163   410A      1.785638   411A      1.790234  
     412A      1.795686   413A      1.800303   414A      1.807080  
     415A      1.818433   416A      1.822009   417A      1.834971  
     418A      1.841500   419A      1.856095   420A      1.860157  
     421A      1.867363   422A      1.878877   423A      1.885959  
     424A      1.889119   425A      1.898919   426A      1.901948  
     427A      1.906354   428A      1.908637   429A      1.916598  
     430A      1.924406   431A      1.928722   432A      1.941101  
     433A      1.944289   434A      1.949424   435A      1.958576  
     436A      1.964441   437A      1.968671   438A      1.980224  
     439A      1.987422   440A      1.996911   441A      1.999149  
     442A      2.009262   443A      2.014143   444A      2.025457  
     445A      2.031136   446A      2.055155   447A      2.059350  
     448A      2.065483   449A      2.069418   450A      2.076848  
     451A      2.081702   452A      2.086404   453A      2.094427  
     454A      2.107619   455A      2.129169   456A      2.138774  
     457A      2.144102   458A      2.168453   459A      2.189027  
     460A      2.199146   461A      2.201556   462A      2.209420  
     463A      2.213748   464A      2.215409   465A      2.229714  
     466A      2.241145   467A      2.244242   468A      2.252146  
     469A      2.254343   470A      2.276676   471A      2.281700  
     472A      2.287824   473A      2.302301   474A      2.306852  
     475A      2.322382   476A      2.332349   477A      2.344870  
     478A      2.357989   479A      2.362501   480A      2.371964  
     481A      2.395495   482A      2.398636   483A      2.407683  
     484A      2.409597   485A      2.418120   486A      2.424149  
     487A      2.432526   488A      2.451420   489A      2.463727  
     490A      2.477895   491A      2.479365   492A      2.503317  
     493A      2.520418   494A      2.548511   495A      2.550798  
     496A      2.569272   497A      2.577448   498A      2.587226  
     499A      2.600009   500A      2.600773   501A      2.631820  
     502A      2.642451   503A      2.656319   504A      2.666195  
     505A      2.675920   506A      2.704687   507A      2.729911  
     508A      2.735004   509A      2.737421   510A      2.778359  
     511A      2.790494   512A      2.805402   513A      2.824324  
     514A      2.845459   515A      2.856969   516A      2.880207  
     517A      2.889946   518A      2.929246   519A      2.934914  
     520A      2.954899   521A      2.979069   522A      2.993076  
     523A      3.002432   524A      3.016857   525A      3.032430  
     526A      3.050177   527A      3.056226   528A      3.073556  
     529A      3.086652   530A      3.103694   531A      3.130977  
     532A      3.142187   533A      3.163054   534A      3.168718  
     535A      3.193024   536A      3.197904   537A      3.210844  
     538A      3.222735   539A      3.228588   540A      3.240744  
     541A      3.245917   542A      3.257734   543A      3.264912  
     544A      3.266487   545A      3.281979   546A      3.287124  
     547A      3.299312   548A      3.319166   549A      3.333587  
     550A      3.347157   551A      3.353220   552A      3.365615  
     553A      3.374686   554A      3.379290   555A      3.385525  
     556A      3.394530   557A      3.395962   558A      3.409809  
     559A      3.411082   560A      3.414536   561A      3.426084  
     562A      3.431173   563A      3.445351   564A      3.460896  
     565A      3.465960   566A      3.467052   567A      3.469220  
     568A      3.491075   569A      3.500230   570A      3.505895  
     571A      3.512216   572A      3.534046   573A      3.546123  
     574A      3.557256   575A      3.561073   576A      3.572846  
     577A      3.577173   578A      3.596565   579A      3.599821  
     580A      3.608037   581A      3.625577   582A      3.629392  
     583A      3.632035   584A      3.654216   585A      3.658800  
     586A      3.660251   587A      3.663695   588A      3.684034  
     589A      3.696099   590A      3.704972   591A      3.711276  
     592A      3.720454   593A      3.734132   594A      3.741319  
     595A      3.750037   596A      3.756009   597A      3.767202  
     598A      3.774204   599A      3.783211   600A      3.787045  
     601A      3.791849   602A      3.810607   603A      3.819371  
     604A      3.820011   605A      3.837676   606A      3.847509  
     607A      3.849982   608A      3.857189   609A      3.868162  
     610A      3.870022   611A      3.883173   612A      3.885484  
     613A      3.887934   614A      3.890261   615A      3.897516  
     616A      3.911269   617A      3.936287   618A      3.943472  
     619A      3.952539   620A      3.957455   621A      3.962520  
     622A      3.982244   623A      3.988592   624A      4.000588  
     625A      4.021896   626A      4.030771   627A      4.037807  
     628A      4.042254   629A      4.053695   630A      4.057201  
     631A      4.061544   632A      4.075391   633A      4.082476  
     634A      4.084618   635A      4.099926   636A      4.105909  
     637A      4.112389   638A      4.125048   639A      4.135817  
     640A      4.143266   641A      4.146292   642A      4.160315  
     643A      4.166090   644A      4.175547   645A      4.183578  
     646A      4.195105   647A      4.202316   648A      4.210057  
     649A      4.223181   650A      4.228841   651A      4.232463  
     652A      4.246500   653A      4.253107   654A      4.264189  
     655A      4.265139   656A      4.273376   657A      4.282969  
     658A      4.298377   659A      4.299671   660A      4.311041  
     661A      4.318778   662A      4.326650   663A      4.339825  
     664A      4.343446   665A      4.364405   666A      4.369307  
     667A      4.370788   668A      4.377280   669A      4.387171  
     670A      4.404715   671A      4.413987   672A      4.422720  
     673A      4.440058   674A      4.446965   675A      4.451798  
     676A      4.465348   677A      4.486460   678A      4.502487  
     679A      4.517027   680A      4.528543   681A      4.536466  
     682A      4.549819   683A      4.564472   684A      4.582959  
     685A      4.594344   686A      4.606657   687A      4.611681  
     688A      4.625673   689A      4.640045   690A      4.650984  
     691A      4.657830   692A      4.665723   693A      4.678728  
     694A      4.694363   695A      4.715654   696A      4.736552  
     697A      4.745930   698A      4.756714   699A      4.766877  
     700A      4.771809   701A      4.789798   702A      4.803210  
     703A      4.814143   704A      4.827289   705A      4.833326  
     706A      4.838055   707A      4.858369   708A      4.879797  
     709A      4.895084   710A      4.903036   711A      4.908938  
     712A      4.920165   713A      4.936315   714A      4.952433  
     715A      4.957333   716A      4.961951   717A      4.965682  
     718A      4.985777   719A      4.993815   720A      5.005221  
     721A      5.008376   722A      5.023849   723A      5.029313  
     724A      5.036867   725A      5.047125   726A      5.060381  
     727A      5.073300   728A      5.094443   729A      5.105194  
     730A      5.130247   731A      5.141089   732A      5.154281  
     733A      5.160606   734A      5.193771   735A      5.205802  
     736A      5.207604   737A      5.214256   738A      5.241817  
     739A      5.259141   740A      5.269943   741A      5.281440  
     742A      5.294490   743A      5.320082   744A      5.330974  
     745A      5.350007   746A      5.360034   747A      5.373050  
     748A      5.387474   749A      5.414012   750A      5.440476  
     751A      5.448372   752A      5.503437   753A      5.510927  
     754A      5.538746   755A      5.549290   756A      5.561371  
     757A      5.584358   758A      5.601425   759A      5.615082  
     760A      5.620627   761A      5.648182   762A      5.673017  
     763A      5.692301   764A      5.697712   765A      5.717465  
     766A      5.732573   767A      5.779004   768A      5.824715  
     769A      5.842139   770A      5.860759   771A      5.930834  
     772A      5.939852   773A      5.985166   774A      5.993467  
     775A      6.016222   776A      6.046266   777A      6.103727  
     778A      6.127632   779A      6.146909   780A      6.190497  
     781A      6.256122   782A      6.281076   783A      6.295365  
     784A      6.348966   785A      6.386759   786A      6.393859  
     787A      6.415748   788A      6.477965   789A      6.490286  
     790A      6.546540   791A      6.579228   792A      6.638237  
     793A      6.670154   794A      6.750722   795A      6.776907  
     796A      6.796666   797A      6.813081   798A      6.829168  
     799A      6.830924   800A      6.844045   801A      6.968634  
     802A      6.980297   803A      7.032396   804A      7.188217  
     805A      7.223404   806A      7.321567   807A      7.434664  
     808A      7.464525   809A      7.534326   810A      7.542065  
     811A      7.552472   812A      7.724942   813A      7.839968  
     814A      8.128896   815A      8.509904   816A     16.011747  
     817A     16.254698   818A     16.659679   819A     16.828340  
     820A     16.974677   821A     18.789784   822A     19.091994  
     823A     19.548439   824A     19.842419   825A     20.012187  
     826A     20.027577   827A     20.533323   828A     21.736969  

    Final Occupation by Irrep:
              A 
    DOCC [    45 ]

  Energy converged.

  @DF-RHF Final Energy:  -551.67162264327771

   => Energetics <=

    Nuclear Repulsion Energy =            713.1658011675400530
    One-Electron Energy =               -2149.3427991252410720
    Two-Electron Energy =                 884.5053753144234179
    DFT Exchange-Correlation Energy =       0.0000000000000000
    Empirical Dispersion Energy =           0.0000000000000000
    PCM Polarization Energy =               0.0000000000000000
    EFP Energy =                            0.0000000000000000
    Total Energy =                       -551.6716226432777148



Properties will be evaluated at   0.000000,   0.000000,   0.000000 Bohr

Properties computed using the SCF density matrix

  Nuclear Dipole Moment: (a.u.)
     X:     2.4516      Y:    -2.1050      Z:    -1.3051

  Electronic Dipole Moment: (a.u.)
     X:     0.5566      Y:    -0.0707      Z:    -0.4340

  Dipole Moment: (a.u.)
     X:     3.0082      Y:    -2.1757      Z:    -1.7391     Total:     4.0997

  Dipole Moment: (Debye)
     X:     7.6460      Y:    -5.5300      Z:    -4.4204     Total:    10.4203


*** tstop() called on gpu-1-17.local at Sun Nov 12 08:54:02 2017
Module time:
	user time   =    1084.32 seconds =      18.07 minutes
	system time =      49.74 seconds =       0.83 minutes
	total time  =        441 seconds =       7.35 minutes
Total time:
	user time   =    1084.33 seconds =      18.07 minutes
	system time =      49.74 seconds =       0.83 minutes
	total time  =        441 seconds =       7.35 minutes

  //>>>>>>>>>>>>>>>>>>>>>>>>>>>>>>>>>>>//
  //               DFMP2               //
  //<<<<<<<<<<<<<<<<<<<<<<<<<<<<<<<<<<<//

   => Loading Basis Set <=

    Name: (AUG-CC-PVTZ AUX)
    Role: RIFIT
    Keyword: DF_BASIS_MP2
    atoms 1-11  entry C          line   147 file /cbio/jclab/home/chayas/anaconda/envs/py35/share/psi4/basis/aug-cc-pvtz-ri.gbs 
    atoms 12    entry N          line   205 file /cbio/jclab/home/chayas/anaconda/envs/py35/share/psi4/basis/aug-cc-pvtz-ri.gbs 
    atoms 13    entry O          line   263 file /cbio/jclab/home/chayas/anaconda/envs/py35/share/psi4/basis/aug-cc-pvtz-ri.gbs 
    atoms 14-23 entry H          line    29 file /cbio/jclab/home/chayas/anaconda/envs/py35/share/psi4/basis/aug-cc-pvtz-ri.gbs 

	 --------------------------------------------------------
	                          DF-MP2                         
	      2nd-Order Density-Fitted Moller-Plesset Theory     
	              RMP2 Wavefunction,   8 Threads             
	                                                         
	        Rob Parrish, Justin Turney, Andy Simmonett,      
	           Ed Hohenstein, and C. David Sherrill          
	 --------------------------------------------------------

   => Auxiliary Basis Set <=

  Basis Set: (AUG-CC-PVTZ AUX)
    Blend: AUG-CC-PVTZ-RI
    Number of shells: 504
    Number of basis function: 1838
    Number of Cartesian functions: 2318
    Spherical Harmonics?: true
    Max angular momentum: 4

	 --------------------------------------------------------
	                 NBF =   828, NAUX =  1838
	 --------------------------------------------------------
	   CLASS    FOCC     OCC    AOCC    AVIR     VIR    FVIR
	   PAIRS       0      45      45     783     783       0
	 --------------------------------------------------------


         ------------------------------------------------------------
                                     CPHF                           
                                  Rob Parrish                       
         ------------------------------------------------------------

  ==> Geometry <==

    Molecular point group: c1
    Full point group: C1

    Geometry (in Angstrom), charge = 1, multiplicity = 1:

       Center              X                  Y                   Z               Mass       
    ------------   -----------------  -----------------  -----------------  -----------------
           C         -1.268194105656     0.723528486471    -0.576600550503    12.000000000000
           C         -0.275194105656     0.107528486471     1.537399449497    12.000000000000
           C         -2.346194105656     1.296528486471     0.096399449497    12.000000000000
           C         -1.353194105656     0.680528486471     2.211399449497    12.000000000000
           C          1.286805894344     0.040528486471    -1.786600550503    12.000000000000
           C          1.562805894344    -1.545471513529     0.004399449497    12.000000000000
           C          2.362805894344    -0.549471513529    -2.434600550503    12.000000000000
           C          2.632805894344    -2.095471513529    -0.688600550503    12.000000000000
           C         -0.232194105656     0.128528486471     0.143399449497    12.000000000000
           C          0.886805894344    -0.465471513529    -0.554600550503    12.000000000000
           C         -2.389194105656     1.275528486471     1.490399449497    12.000000000000
           N          2.996805894344    -1.588471513529    -1.873600550503    14.003074004780
           O         -3.441194105656     1.835528486471     2.147399449497    15.994914619560
           H         -1.249194105656     0.747528486471    -1.663600550503     1.007825032070
           H          0.524805894344    -0.352471513529     2.113399449497     1.007825032070
           H         -3.150194105656     1.758528486471    -0.470600550503     1.007825032070
           H         -1.381194105656     0.661528486471     3.297399449497     1.007825032070
           H          0.777805894344     0.882528486471    -2.246600550503     1.007825032070
           H          1.271805894344    -1.961471513529     0.964399449497     1.007825032070
           H          2.743805894344    -0.222471513529    -3.392600550503     1.007825032070
           H          3.214805894344    -2.933471513529    -0.330600550503     1.007825032070
           H          3.784805894344    -2.007471513529    -2.366600550503     1.007825032070
           H         -3.895194105656     1.167528486471     2.686399449497     1.007825032070

  Nuclear repulsion =  713.165801167540053
  Reference energy  = -551.671622643277715

  ==> Basis Set <==

  Basis Set: AUG-CC-PVTZ
    Blend: AUG-CC-PVTZ
    Number of shells: 272
    Number of basis function: 828
    Number of Cartesian functions: 965
    Spherical Harmonics?: true
    Max angular momentum: 3

  ==> CGRSolver (by Rob Parrish) <==

   Number of roots    =         1
   Preconditioning    =    JACOBI
   Convergence cutoff =     1E-06
   Maximum iterations =       100

  ==> CPHFRHamiltonian (by Rob Parrish) <== 

  ==> DFJK: Density-Fitted J/K Matrices <==

    J tasked:                  Yes
    K tasked:                  Yes
    wK tasked:                  No
    OpenMP threads:              8
    Integrals threads:           8
    Memory (MB):              3576
    Algorithm:                Disk
    Integral Cache:           NONE
    Schwarz Cutoff:          1E-12
    Fitting Condition:       1E-12

   => Auxiliary Basis Set <=

  Basis Set: (AUG-CC-PVTZ AUX)
    Blend: AUG-CC-PVTZ-JKFIT
    Number of shells: 530
    Number of basis function: 1812
    Number of Cartesian functions: 2253
    Spherical Harmonics?: true
    Max angular momentum: 4

  ==> CPHF Iterations <==

  => Iterations <=

             Iter  Converged  Remaining    Residual
  CGR           1          0          1   1.056E-01
  CGR           2          0          1   4.901E-02
  CGR           3          0          1   2.810E-02
  CGR           4          0          1   9.088E-03
  CGR           5          0          1   4.066E-03
  CGR           6          0          1   2.065E-03
  CGR           7          0          1   7.004E-04
  CGR           8          0          1   2.798E-04
  CGR           9          0          1   1.239E-04
  CGR          10          0          1   4.149E-05
  CGR          11          0          1   1.178E-05
  CGR          12          0          1   4.767E-06
  CGR          13          0          1   1.533E-06
  CGR          14          1          0   4.980E-07

    CGRSolver converged.

  ==> DFCorrGrad: Density-Fitted Correlated Gradients <==

    OpenMP threads:              8
    Integrals threads:           8
    Memory (MB):              3576
    Schwarz Cutoff:          0E+00
    Fitting Condition:       1E-12

   => Auxiliary Basis Set <=

  Basis Set: (AUG-CC-PVTZ AUX)
    Blend: AUG-CC-PVTZ-JKFIT
    Number of shells: 530
    Number of basis function: 1812
    Number of Cartesian functions: 2253
    Spherical Harmonics?: true
    Max angular momentum: 4

	-----------------------------------------------------------
	 ==================> DF-MP2 Energies <==================== 
	-----------------------------------------------------------
	 Reference Energy          =    -551.6716226432777148 [Eh]
	 Singles Energy            =      -0.0000000000000002 [Eh]
	 Same-Spin Energy          =      -0.5962610034999585 [Eh]
	 Opposite-Spin Energy      =      -1.8248063934056826 [Eh]
	 Correlation Energy        =      -2.4210673969056411 [Eh]
	 Total Energy              =    -554.0926900401833564 [Eh]
	-----------------------------------------------------------
	 ================> DF-SCS-MP2 Energies <================== 
	-----------------------------------------------------------
	 SCS Same-Spin Scale       =       0.3333333333333333 [-]
	 SCS Opposite-Spin Scale   =       1.2000000000000000 [-]
	 SCS Same-Spin Energy      =      -0.1987536678333195 [Eh]
	 SCS Opposite-Spin Energy  =      -2.1897676720868189 [Eh]
	 SCS Correlation Energy    =      -2.3885213399201382 [Eh]
	 SCS Total Energy          =    -554.0601439831978041 [Eh]
	-----------------------------------------------------------


  -Total Gradient:
     Atom            X                  Y                   Z
    ------   -----------------  -----------------  -----------------
       1        0.006980807821    -0.010108014438    -0.004610896586
       2        0.009984830781    -0.000202346955    -0.008371302057
       3       -0.003786670354    -0.001179210655     0.006474234496
       4       -0.009850054956     0.005065128873     0.003548650203
       5       -0.015034167259     0.008949581367     0.013106918058
       6       -0.018726867436     0.008211880377     0.008434229807
       7        0.008051855242    -0.009999432277     0.004801830871
       8        0.005269689046     0.003424271964    -0.013567490728
       9       -0.001107698166     0.000442185286     0.000625760935
      10        0.013126537218    -0.006291940611    -0.008444100346
      11       -0.000534992017     0.008527658881    -0.003633925784
      12       -0.001322127205     0.000249638625     0.001228876623
      13        0.006732476047     0.002583056479     0.003349719281
      14        0.001749554182     0.001724145111    -0.005829487225
      15        0.003640257627    -0.004411129165     0.002777521151
      16       -0.002610200668     0.002565531156    -0.005337754307
      17        0.001059839883    -0.001808199316     0.005237325025
      18       -0.005059624268     0.004291777351    -0.002942619826
      19       -0.001586433511    -0.000760720410     0.006998918987
      20        0.001882885809    -0.000439458566    -0.002562098732
      21        0.002388656703    -0.001690256953    -0.000090472583
      22        0.005026244654    -0.002706424298    -0.003185253994
      23       -0.006274799178    -0.006437721827     0.001991416737


*** tstop() called on gpu-1-17.local at Sun Nov 12 09:28:41 2017
Module time:
	user time   =    5346.92 seconds =      89.12 minutes
	system time =     121.77 seconds =       2.03 minutes
	total time  =       2520 seconds =      42.00 minutes
Total time:
	user time   =    5346.93 seconds =      89.12 minutes
	system time =     121.77 seconds =       2.03 minutes
	total time  =       2520 seconds =      42.00 minutes

			-----------------------------------------
			 OPTKING 2.0: for geometry optimizations 
			  - R.A. King,  Bethel University        
			-----------------------------------------

	Internal coordinates to be generated automatically.
	Detected frag 1 with atoms:  1 2 3 4 5 6 7 8 9 10 11 12 13 14 15 16 17 18 19 20
	 21 22 23
	---Fragment 1 Bond Connectivity---
	 1 : 3 9 14
	 2 : 4 9 15
	 3 : 1 11 16
	 4 : 2 11 17
	 5 : 7 10 18
	 6 : 8 10 19
	 7 : 5 12 20
	 8 : 6 12 21
	 9 : 1 2 10
	 10 : 5 6 9
	 11 : 3 4 13
	 12 : 7 8 22
	 13 : 11 23
	 14 : 1
	 15 : 2
	 16 : 3
	 17 : 4
	 18 : 5
	 19 : 6
	 20 : 7
	 21 : 8
	 22 : 12
	 23 : 13

	Assuming in current code that numbering for constraints corresponds to unified fragment.
	Fixed dihedral atom list: 
	     3    11    13    23
	---Fragment 1 Geometry and Gradient---
	 C          -2.3965395430        1.3672706888       -1.0896171285
	 C          -0.5200414931        0.2031993909        2.9052639164
	 C          -4.4336643143        2.4500837629        0.1821685589
	 C          -2.5571662643        1.2860124651        4.1789393300
	 C           2.4317107265        0.0765877400       -3.3761857493
	 C           2.9532751392       -2.9205179067        0.0083137547
	 C           4.4650560455       -1.0383506784       -4.6007282834
	 C           4.9752821014       -3.9598672798       -1.3012664554
	 C          -0.4387832694        0.2428836397        0.2709856872
	 C           1.6758202733       -0.8796136832       -1.0480431536
	 C          -4.5149225380        2.4103995141        2.8164467882
	 N           5.6631424137       -3.0017761305       -3.5405919229
	 O          -6.5029144298        3.4686461485        4.0579968575
	 H          -2.3606347465        1.4126241160       -3.1437494350
	 H           0.9917394132       -0.6660746302        3.9937461689
	 H          -5.9530041251        3.3231372363       -0.8893061584
	 H          -2.6100785960        1.2501076685        6.2311819103
	 H           1.4698401249        1.6677371439       -4.2454597704
	 H           2.4033648345       -3.7066439780        1.8224508423
	 H           5.1850417021       -0.4204102329       -6.4110859187
	 H           6.0751027107       -5.5434577792       -0.6247444998
	 H           7.1522466064       -3.7935713801       -4.4722269064
	 H          -7.3608500941        2.2063090918        5.0765592431
	             0.0069808078       -0.0101080144       -0.0046108966
	             0.0099848308       -0.0002023470       -0.0083713021
	            -0.0037866704       -0.0011792107        0.0064742345
	            -0.0098500550        0.0050651289        0.0035486502
	            -0.0150341673        0.0089495814        0.0131069181
	            -0.0187268674        0.0082118804        0.0084342298
	             0.0080518552       -0.0099994323        0.0048018309
	             0.0052696890        0.0034242720       -0.0135674907
	            -0.0011076982        0.0004421853        0.0006257609
	             0.0131265372       -0.0062919406       -0.0084441003
	            -0.0005349920        0.0085276589       -0.0036339258
	            -0.0013221272        0.0002496386        0.0012288766
	             0.0067324760        0.0025830565        0.0033497193
	             0.0017495542        0.0017241451       -0.0058294872
	             0.0036402576       -0.0044111292        0.0027775212
	            -0.0026102007        0.0025655312       -0.0053377543
	             0.0010598399       -0.0018081993        0.0052373250
	            -0.0050596243        0.0042917774       -0.0029426198
	            -0.0015864335       -0.0007607204        0.0069989190
	             0.0018828858       -0.0004394586       -0.0025620987
	             0.0023886567       -0.0016902570       -0.0000904726
	             0.0050262447       -0.0027064243       -0.0031852540
	            -0.0062747992       -0.0064377218        0.0019914167

	Previous optimization step data not found.  Starting new optimization.

	---Fragment 1 Intrafragment Coordinates---
	 - Coordinate -           - BOHR/RAD -       - ANG/DEG -
	 R(1,3)           =         2.634350	       1.394038
	 R(1,9)           =         2.635962	       1.394891
	 R(1,14)          =         2.054947	       1.087431
	 R(2,4)           =         2.635263	       1.394521
	 R(2,9)           =         2.635830	       1.394821
	 R(2,15)          =         2.055702	       1.087831
	 R(3,11)          =         2.635830	       1.394821
	 R(3,16)          =         2.053941	       1.086899
	 R(4,11)          =         2.636938	       1.395407
	 R(4,17)          =         2.053239	       1.086527
	 R(5,7)           =         2.622420	       1.387725
	 R(5,10)          =         2.627915	       1.390633
	 R(5,18)          =         2.052459	       1.086115
	 R(6,8)           =         2.623692	       1.388398
	 R(6,10)          =         2.629272	       1.391351
	 R(6,19)          =         2.052191	       1.085973
	 R(7,12)          =         2.532655	       1.340223
	 R(7,20)          =         2.043924	       1.081598
	 R(8,12)          =         2.530942	       1.339317
	 R(8,21)          =         2.043293	       1.081264
	 R(9,10)          =         2.733384	       1.446444
	 R(11,13)         =         2.571662	       1.360865
	 R(12,22)         =         1.926737	       1.019585
	 R(13,23)         =         1.834944	       0.971010
	 B(1,3,11)        =         2.094553	     120.009056
	 B(1,3,16)        =         2.088505	     119.662516
	 B(1,9,2)         =         2.093692	     119.959722
	 B(1,9,10)        =         2.095161	     120.043881
	 B(2,4,11)        =         2.093699	     119.960108
	 B(2,4,17)        =         2.089577	     119.723926
	 B(2,9,10)        =         2.094332	     119.996376
	 B(3,1,9)         =         2.094940	     120.031219
	 B(3,1,14)        =         2.079469	     119.144799
	 B(3,11,4)        =         2.094306	     119.994870
	 B(3,11,13)       =         2.094549	     120.008801
	 B(4,2,9)         =         2.095181	     120.045019
	 B(4,2,15)        =         2.078675	     119.099297
	 B(4,11,13)       =         2.094331	     119.996326
	 B(5,7,12)        =         2.095473	     120.061759
	 B(5,7,20)        =         2.162990	     123.930212
	 B(5,10,6)        =         2.092808	     119.909049
	 B(5,10,9)        =         2.095104	     120.040644
	 B(6,8,12)        =         2.095689	     120.074121
	 B(6,8,21)        =         2.161055	     123.819347
	 B(6,10,9)        =         2.095271	     120.050189
	 B(7,5,10)        =         2.073747	     118.816947
	 B(7,5,18)        =         2.088865	     119.683141
	 B(7,12,8)        =         2.135611	     122.361511
	 B(7,12,22)       =         2.073499	     118.802740
	 B(8,6,10)        =         2.073041	     118.776513
	 B(8,6,19)        =         2.089782	     119.735704
	 B(8,12,22)       =         2.074075	     118.835741
	 B(9,1,14)        =         2.108776	     120.823969
	 B(9,2,15)        =         2.109330	     120.855683
	 B(10,5,18)       =         2.120573	     121.499869
	 B(10,6,19)       =         2.120361	     121.487761
	 B(11,3,16)       =         2.100127	     120.328425
	 B(11,4,17)       =         2.099910	     120.315955
	 B(11,13,23)      =         1.924457	     110.263272
	 B(12,7,20)       =         2.024722	     116.007998
	 B(12,8,21)       =         2.026441	     116.106509
	 D(1,3,11,4)      =        -0.000325	      -0.018609
	 D(1,3,11,13)     =         3.140978	     179.964785
	 D(1,9,2,4)       =         0.000325	       0.018608
	 D(1,9,2,15)      =        -3.141497	    -179.994534
	 D(1,9,10,5)      =         0.522161	      29.917626
	 D(1,9,10,6)      =        -2.617252	    -149.957477
	 D(2,4,11,3)      =         0.000301	       0.017261
	 D(2,4,11,13)     =        -3.141002	    -179.966135
	 D(2,9,1,3)       =        -0.000348	      -0.019945
	 D(2,9,1,14)      =        -3.141221	    -179.978731
	 D(2,9,10,5)      =        -2.618515	    -150.029870
	 D(2,9,10,6)      =         0.525257	      30.095026
	 D(3,1,9,10)      =        -3.141025	    -179.967461
	 D(3,11,4,17)     =         3.141223	     179.978848
	 D(3,11,13,23)    =         2.094602	     120.011832
	 D(4,2,9,10)      =         3.141002	     179.966149
	 D(4,11,3,16)     =         3.141593	     180.000000
	 D(4,11,13,23)    =        -1.047281	     -60.004774
	 D(5,7,12,8)      =        -0.000900	      -0.051587
	 D(5,7,12,22)     =         3.141281	     179.982140
	 D(5,10,6,8)      =         0.001757	       0.100696
	 D(5,10,6,19)     =        -3.140779	    -179.953357
	 D(6,8,12,7)      =         0.001479	       0.084766
	 D(6,8,12,22)     =        -3.140702	    -179.948971
	 D(6,10,5,7)      =        -0.001201	      -0.068795
	 D(6,10,5,18)     =        -3.141485	    -179.993816
	 D(7,5,10,9)      =        -3.140617	    -179.944076
	 D(7,12,8,21)     =        -3.141052	    -179.969035
	 D(8,6,10,9)      =         3.141173	     179.975965
	 D(8,12,7,20)     =         3.139609	     179.886353
	 D(9,1,3,11)      =         0.000348	       0.019955
	 D(9,1,3,16)      =        -3.141571	    -179.998735
	 D(9,2,4,11)      =        -0.000301	      -0.017270
	 D(9,2,4,17)      =        -3.141228	    -179.979086
	 D(9,10,5,18)     =         0.002285	       0.130903
	 D(9,10,6,19)     =        -0.001363	      -0.078088
	 D(10,5,7,12)     =         0.000747	       0.042772
	 D(10,5,7,20)     =        -3.139673	    -179.890006
	 D(10,6,8,12)     =        -0.001882	      -0.107847
	 D(10,6,8,21)     =         3.140725	     179.950304
	 D(10,9,1,14)     =         0.001287	       0.073752
	 D(10,9,2,15)     =        -0.000820	      -0.046992
	 D(11,3,1,14)     =         3.141234	     179.979432
	 D(11,4,2,15)     =         3.141517	     179.995641
	 D(12,7,5,18)     =         3.141055	     179.969186
	 D(12,8,6,19)     =         3.140637	     179.945236
	 D(13,11,3,16)    =        -0.000286	      -0.016400
	 D(13,11,4,17)    =        -0.000079	      -0.004548
	 D(14,1,3,16)     =        -0.000685	      -0.039257
	 D(15,2,4,17)     =         0.000590	       0.033826
	 D(18,5,7,20)     =         0.000635	       0.036408
	 D(19,6,8,21)     =         0.000059	       0.003387
	 D(20,7,12,22)    =        -0.001395	      -0.079920
	 D(21,8,12,22)    =        -0.000048	      -0.002772

	Current energy   :      -554.0926900402

	Generating empirical Hessian (Schlegel '84) for each fragment.
	Adding user-defined constraint: Fragment 1; Coordinate 76:
		Value =     2.094602; Fixed value    =     2.094395
		Force =    -0.000103; Force constant =     0.500000
	Removing off-diagonal coupling between coordinate 76 and others.
	Taking RFO optimization step.
	Going to follow RFO solution 1.
	Using RFO vector 1.

	Determining step-restricting scale parameter for RS-RFO.
	Maximum step size allowed    0.10000

	 Iter      |step|        alpha        rfo_root  
	------------------------------------------------
	    0     0.24348       1.00000           1
	    1     0.17094       4.27755           1
	    2     0.13236      10.48055           1
	    3     0.11134      19.67286           1
	    4     0.10204      26.99618           1
	    5     0.10008      28.93044           1
	    6     0.10000      29.01526           1
	------------------------------------------------
	Norm of target step-size    0.10000
	Projected energy change by RFO approximation:        -0.0043459422

	Back-transformation to cartesian coordinates...
	Could not converge backtransformation.
	Using first guess instead.

	--- Internal Coordinate Step in ANG or DEG, aJ/ANG or AJ/DEG ---
	 ---------------------------------------------------------------------------
	   Coordinate                Previous        Force       Change         New 
	   ----------                --------       ------       ------       ------
	    1 R(1,3)          =      1.394038    -0.085694    -0.009487     1.384551
	    2 R(1,9)          =      1.394891     0.015523     0.001942     1.396833
	    3 R(1,14)         =      1.087431    -0.048574    -0.006631     1.080800
	    4 R(2,4)          =      1.394521    -0.089353    -0.009856     1.384665
	    5 R(2,9)          =      1.394821     0.013260     0.001692     1.396513
	    6 R(2,15)         =      1.087831    -0.049540    -0.006772     1.081058
	    7 R(3,11)         =      1.394821    -0.051982    -0.005944     1.388877
	    8 R(3,16)         =      1.086899    -0.047833    -0.006505     1.080394
	    9 R(4,11)         =      1.395407    -0.025872    -0.003029     1.392378
	   10 R(4,17)         =      1.086527    -0.043163    -0.005860     1.080667
	   11 R(5,7)          =      1.387725    -0.112364    -0.012137     1.375588
	   12 R(5,10)         =      1.390633     0.067447     0.007576     1.398209
	   13 R(5,18)         =      1.086115    -0.057215    -0.007797     1.078318
	   14 R(6,8)          =      1.388398    -0.116359    -0.012646     1.375752
	   15 R(6,10)         =      1.391351     0.062381     0.007116     1.398466
	   16 R(6,19)         =      1.085973    -0.056876    -0.007705     1.078268
	   17 R(7,12)         =      1.340223     0.017814     0.001608     1.341831
	   18 R(7,20)         =      1.081598    -0.023066    -0.003078     1.078520
	   19 R(8,12)         =      1.339317     0.023804     0.002177     1.341494
	   20 R(8,21)         =      1.081264    -0.021138    -0.002847     1.078417
	   21 R(9,10)         =      1.446444     0.064117     0.008202     1.454647
	   22 R(11,13)        =      1.360865    -0.005261    -0.000303     1.360561
	   23 R(12,22)        =      1.019585    -0.053856    -0.006185     1.013400
	   24 R(13,23)        =      0.971010    -0.069766    -0.006851     0.964159
	   25 B(1,3,11)       =    120.009056     0.000015    -0.023455   119.985601
	   26 B(1,3,16)       =    119.662516     0.000206     0.600328   120.262844
	   27 B(1,9,2)        =    119.959722    -0.000432    -0.837512   119.122210
	   28 B(1,9,10)       =    120.043881     0.000207     0.400366   120.444248
	   29 B(2,4,11)       =    119.960108     0.000071     0.117351   120.077460
	   30 B(2,4,17)       =    119.723926     0.000111     0.343909   120.067835
	   31 B(2,9,10)       =    119.996376     0.000225     0.437105   120.433481
	   32 B(3,1,9)        =    120.031219     0.000211     0.487073   120.518292
	   33 B(3,1,14)       =    119.144799    -0.000158    -0.393085   118.751714
	   34 B(3,11,4)       =    119.994870     0.000015    -0.045684   119.949187
	   35 B(3,11,13)      =    120.008801    -0.000495    -0.982998   119.025804
	   36 B(4,2,9)        =    120.045019     0.000121     0.300504   120.345523
	   37 B(4,2,15)       =    119.099297    -0.000093    -0.243297   118.856000
	   38 B(4,11,13)      =    119.996326     0.000481     1.026888   121.023215
	   39 B(5,7,12)       =    120.061759    -0.000232    -0.562475   119.499284
	   40 B(5,7,20)       =    123.930212    -0.000004    -0.047144   123.883068
	   41 B(5,10,6)       =    119.909049    -0.000819    -1.675448   118.233600
	   42 B(5,10,9)       =    120.040644     0.000395     0.808087   120.848732
	   43 B(6,8,12)       =    120.074121    -0.000227    -0.555224   119.518896
	   44 B(6,8,21)       =    123.819347     0.000008    -0.011127   123.808220
	   45 B(6,10,9)       =    120.050189     0.000424     0.867419   120.917608
	   46 B(7,5,10)       =    118.816947     0.000520     1.161705   119.978652
	   47 B(7,5,18)       =    119.683141    -0.000344    -0.818497   118.864645
	   48 B(7,12,8)       =    122.361511     0.000227     0.455052   122.816563
	   49 B(7,12,22)      =    118.802740    -0.000113    -0.226837   118.575902
	   50 B(8,6,10)       =    118.776513     0.000530     1.176411   119.952924
	   51 B(8,6,19)       =    119.735704    -0.000354    -0.840973   118.894731
	   52 B(8,12,22)      =    118.835741    -0.000114    -0.228212   118.607529
	   53 B(9,1,14)       =    120.823969    -0.000053    -0.097939   120.726030
	   54 B(9,2,15)       =    120.855683    -0.000028    -0.061050   120.794633
	   55 B(10,5,18)      =    121.499869    -0.000176    -0.344638   121.155231
	   56 B(10,6,19)      =    121.487761    -0.000176    -0.336181   121.151580
	   57 B(11,3,16)      =    120.328425    -0.000221    -0.576940   119.751485
	   58 B(11,4,17)      =    120.315955    -0.000182    -0.461619   119.854336
	   59 B(11,13,23)     =    110.263272    -0.000034    -0.090327   110.172945
	   60 B(12,7,20)      =    116.007998     0.000236     0.609217   116.617215
	   61 B(12,8,21)      =    116.106509     0.000219     0.566003   116.672512
	   62 D(1,3,11,4)     =     -0.018609    -0.000005    -0.190575    -0.209184
	   63 D(1,3,11,13)    =    179.964785    -0.000030    -0.656322   179.308463
	   64 D(1,9,2,4)      =      0.018608    -0.000007    -0.187080    -0.168472
	   65 D(1,9,2,15)     =   -179.994534     0.000023     0.547444  -179.447090
	   66 D(1,9,10,5)     =     29.917626     0.000009     0.234781    30.152407
	   67 D(1,9,10,6)     =   -149.957477     0.000007     0.200634  -149.756843
	   68 D(2,4,11,3)     =      0.017261    -0.000011    -0.197707    -0.180445
	   69 D(2,4,11,13)    =   -179.966135     0.000014     0.277861  -179.688274
	   70 D(2,9,1,3)      =     -0.019945    -0.000009    -0.202812    -0.222757
	   71 D(2,9,1,14)     =   -179.978731     0.000019     0.489317  -179.489414
	   72 D(2,9,10,5)     =   -150.029870     0.000011     0.273207  -149.756664
	   73 D(2,9,10,6)     =     30.095026     0.000010     0.239060    30.334086
	   74 D(3,1,9,10)     =   -179.967461    -0.000007    -0.165550  -180.133011
	   75 D(3,11,4,17)    =    179.978848    -0.000018    -0.380299   179.598549
	   76 D(3,11,13,23)   =    120.011832     0.000029     0.225192   120.237024
	   77 D(4,2,9,10)     =    179.966149    -0.000009    -0.224357   179.741792
	   78 D(4,11,3,16)    =    180.000000    -0.000002    -0.113145   179.886855
	   79 D(4,11,13,23)   =    -60.004774     0.000004    -0.245908   -60.250681
	   80 D(5,7,12,8)     =     -0.051587     0.000001     0.022081    -0.029506
	   81 D(5,7,12,22)    =    179.982140     0.000001     0.016530   179.998669
	   82 D(5,10,6,8)     =      0.100696    -0.000001    -0.010500     0.090195
	   83 D(5,10,6,19)    =   -179.953357     0.000015     0.365376  -179.587981
	   84 D(6,8,12,7)     =      0.084766    -0.000000    -0.007564     0.077202
	   85 D(6,8,12,22)    =   -179.948971    -0.000000    -0.002011  -179.950982
	   86 D(6,10,5,7)     =     -0.068795     0.000001     0.025606    -0.043189
	   87 D(6,10,5,18)    =   -179.993816     0.000016     0.397079  -179.596738
	   88 D(7,5,10,9)     =   -179.944076    -0.000001    -0.010745  -179.954820
	   89 D(7,12,8,21)    =   -179.969035    -0.000007    -0.166982  -180.136017
	   90 D(8,6,10,9)     =    179.975965     0.000001     0.025799   180.001763
	   91 D(8,12,7,20)    =    179.886353    -0.000006    -0.146097   179.740256
	   92 D(9,1,3,11)     =      0.019955     0.000015     0.391637     0.411591
	   93 D(9,1,3,16)     =   -179.998735     0.000012     0.313791  -179.684944
	   94 D(9,2,4,11)     =     -0.017270     0.000017     0.386741     0.369471
	   95 D(9,2,4,17)     =   -179.979086     0.000024     0.570037  -179.409048
	   96 D(9,10,5,18)    =      0.130903     0.000015     0.360728     0.491631
	   97 D(9,10,6,19)    =     -0.078088     0.000016     0.401675     0.323587
	   98 D(10,5,7,12)    =      0.042772    -0.000001    -0.030269     0.012504
	   99 D(10,5,7,20)    =   -179.890006     0.000006     0.150453  -179.739553
	  100 D(10,6,8,12)    =     -0.107847     0.000000     0.000806    -0.107041
	  101 D(10,6,8,21)    =    179.950304     0.000007     0.171959   180.122263
	  102 D(10,9,1,14)    =      0.073752     0.000021     0.526579     0.600332
	  103 D(10,9,2,15)    =     -0.046992     0.000021     0.510166     0.463173
	  104 D(11,3,1,14)    =    179.979432    -0.000013    -0.286886   179.692546
	  105 D(11,4,2,15)    =    179.995641    -0.000013    -0.333691   179.661950
	  106 D(12,7,5,18)    =    179.969186    -0.000016    -0.392941   179.576245
	  107 D(12,8,6,19)    =    179.945236    -0.000015    -0.366857   179.578379
	  108 D(13,11,3,16)   =     -0.016400    -0.000027    -0.579098    -0.595498
	  109 D(13,11,4,17)   =     -0.004548     0.000007     0.095268     0.090720
	  110 D(14,1,3,16)    =     -0.039257    -0.000015    -0.364732    -0.403989
	  111 D(15,2,4,17)    =      0.033826    -0.000006    -0.150395    -0.116569
	  112 D(18,5,7,20)    =      0.036408    -0.000009    -0.212220    -0.175811
	  113 D(19,6,8,21)    =      0.003387    -0.000008    -0.195704    -0.192317
	  114 D(20,7,12,22)   =     -0.079920    -0.000006    -0.151648    -0.231568
	  115 D(21,8,12,22)   =     -0.002772    -0.000007    -0.161429    -0.164201
	 ---------------------------------------------------------------------------
	Successfully symmetrized geometry.
	 Forces used to impose fixed constraints are not included.
	  Forces zeroed: 76 

  ==> Convergence Check <==

  Measures of convergence in internal coordinates in au.
  Criteria marked as inactive (o), active & met (*), and active & unmet ( ).
  --------------------------------------------------------------------------------------------- ~
   Step     Total Energy     Delta E     MAX Force     RMS Force      MAX Disp      RMS Disp    ~
  --------------------------------------------------------------------------------------------- ~
    Convergence Criteria    1.00e-06 *    3.00e-04 *             o    1.20e-03 *             o  ~
  --------------------------------------------------------------------------------------------- ~
      1    -554.09269004   -5.54e+02      1.41e-02      3.95e-03 o    2.92e-02      9.32e-03 o  ~
  ---------------------------------------------------------------------------------------------

	Writing optimization data to binary file.
	Structure for next step:
	Cartesian Geometry (in Angstrom)
	    C    -1.2804956155   0.7249944748  -0.5603155455
	    C    -0.2869008416   0.1118276572   1.5460771158
	    C    -2.3533240265   1.2901752859   0.1079600495
	    C    -1.3560227476   0.6842762572   2.2143418613
	    C     1.3053230518   0.0311683927  -1.7908497317
	    C     1.5796929644  -1.5562643684  -0.0116649401
	    C     2.3708292242  -0.5466356481  -2.4412965501
	    C     2.6408946900  -2.1043827276  -0.6943875689
	    C    -0.2369129199   0.1277113490   0.1505496491
	    C     0.8880554670  -0.4681519740  -0.5532894459
	    C    -2.3932276666   1.2734642099   1.4961633591
	    N     3.0019343820  -1.5887943260  -1.8790498248
	    O    -3.4498170274   1.8470265030   2.1331659362
	    H    -1.2723087953   0.7446573818  -1.6409051966
	    H     0.5102822365  -0.3352627422   2.1233956152
	    H    -3.1607350397   1.7465766234  -0.4461486201
	    H    -1.3854697298   0.6778848837   3.2945887191
	    H     0.8100005568   0.8724697389  -2.2487117489
	    H     1.2938007923  -1.9829488046   0.9364211558
	    H     2.7475138699  -0.2105629583  -3.3943802771
	    H     3.2157339773  -2.9436044971  -0.3362669133
	    H     3.7851131815  -2.0037299799  -2.3704148242
	    H    -3.9084244140   1.1922604577   2.6722050643
			--------------------------
			 OPTKING Finished Execution 
			--------------------------

    Structure for next step:
    Molecular point group: c1
    Full point group: C1

    Geometry (in Angstrom), charge = 1, multiplicity = 1:

    C           -1.280773684195     0.725846330075    -0.559999059452
    C           -0.287178910276     0.112679512512     1.546393601817
    C           -2.353602095240     1.291027141251     0.108276535504
    C           -1.356300816294     0.685128112509     2.214658347337
    C            1.305044983094     0.032020247989    -1.790533245659
    C            1.579414895643    -1.555412513038    -0.011348454091
    C            2.370551155513    -0.545783792759    -2.440980064081
    C            2.640616621253    -2.103530872269    -0.694071082852
    C           -0.237190988579     0.128563204344     0.150866135118
    C            0.887777398279    -0.467300118725    -0.552972959917
    C           -2.393505735301     1.274316065185     1.496479845153
    N            3.001656313313    -1.587942470651    -1.878733338782
    O           -3.450095096149     1.847878358281     2.133482422211
    H           -1.272586864018     0.745509237085    -1.640588710568
    H            0.510004167739    -0.334410886900     2.123712101198
    H           -3.161013108383     1.747428478755    -0.445832134092
    H           -1.385747798520     0.678736739050     3.294905205118
    H            0.809722488067     0.873321594225    -2.248395262869
    H            1.293522723585    -1.982096949277     0.936737641811
    H            2.747235801184    -0.209711103014    -3.394063791053
    H            3.215455908564    -2.942752641759    -0.335950427293
    H            3.784835112821    -2.002878124607    -2.370098338164
    H           -3.908702482745     1.193112313047     2.672521550323

gradient() will perform analytic gradient computation.

*** tstart() called on gpu-1-17.local
*** at Sun Nov 12 09:28:43 2017

    SCF Algorithm Type (re)set to DF.

*** tstart() called on gpu-1-17.local
*** at Sun Nov 12 09:28:43 2017

   => Loading Basis Set <=

    Name: AUG-CC-PVTZ
    Role: ORBITAL
    Keyword: BASIS
    atoms 1-11  entry C          line   221 file /cbio/jclab/home/chayas/anaconda/envs/py35/share/psi4/basis/aug-cc-pvtz.gbs 
    atoms 12    entry N          line   267 file /cbio/jclab/home/chayas/anaconda/envs/py35/share/psi4/basis/aug-cc-pvtz.gbs 
    atoms 13    entry O          line   313 file /cbio/jclab/home/chayas/anaconda/envs/py35/share/psi4/basis/aug-cc-pvtz.gbs 
    atoms 14-23 entry H          line    34 file /cbio/jclab/home/chayas/anaconda/envs/py35/share/psi4/basis/aug-cc-pvtz.gbs 


         ---------------------------------------------------------
                                   SCF
            by Justin Turney, Rob Parrish, and Andy Simmonett
                              RHF Reference
                        8 Threads,   4768 MiB Core
         ---------------------------------------------------------

  ==> Geometry <==

    Molecular point group: c1
    Full point group: C1

    Geometry (in Angstrom), charge = 1, multiplicity = 1:

       Center              X                  Y                   Z               Mass       
    ------------   -----------------  -----------------  -----------------  -----------------
           C         -1.280773684195     0.725846330075    -0.559999059452    12.000000000000
           C         -0.287178910276     0.112679512512     1.546393601817    12.000000000000
           C         -2.353602095240     1.291027141251     0.108276535504    12.000000000000
           C         -1.356300816294     0.685128112509     2.214658347337    12.000000000000
           C          1.305044983094     0.032020247989    -1.790533245659    12.000000000000
           C          1.579414895643    -1.555412513038    -0.011348454091    12.000000000000
           C          2.370551155513    -0.545783792759    -2.440980064081    12.000000000000
           C          2.640616621253    -2.103530872269    -0.694071082852    12.000000000000
           C         -0.237190988579     0.128563204344     0.150866135118    12.000000000000
           C          0.887777398279    -0.467300118725    -0.552972959917    12.000000000000
           C         -2.393505735301     1.274316065185     1.496479845153    12.000000000000
           N          3.001656313313    -1.587942470651    -1.878733338782    14.003074004780
           O         -3.450095096149     1.847878358281     2.133482422211    15.994914619560
           H         -1.272586864018     0.745509237085    -1.640588710568     1.007825032070
           H          0.510004167739    -0.334410886900     2.123712101198     1.007825032070
           H         -3.161013108383     1.747428478755    -0.445832134092     1.007825032070
           H         -1.385747798520     0.678736739050     3.294905205118     1.007825032070
           H          0.809722488067     0.873321594225    -2.248395262869     1.007825032070
           H          1.293522723585    -1.982096949277     0.936737641811     1.007825032070
           H          2.747235801184    -0.209711103014    -3.394063791053     1.007825032070
           H          3.215455908564    -2.942752641759    -0.335950427293     1.007825032070
           H          3.784835112821    -2.002878124607    -2.370098338164     1.007825032070
           H         -3.908702482745     1.193112313047     2.672521550323     1.007825032070

  Running in c1 symmetry.

  Rotational constants: A =      0.09649  B =      0.01327  C =      0.01187 [cm^-1]
  Rotational constants: A =   2892.62367  B =    397.82677  C =    355.80799 [MHz]
  Nuclear repulsion =  712.970088986952646

  Charge       = 1
  Multiplicity = 1
  Electrons    = 90
  Nalpha       = 45
  Nbeta        = 45

  ==> Algorithm <==

  SCF Algorithm Type is DF.
  DIIS enabled.
  MOM disabled.
  Fractional occupation disabled.
  Guess Type is READ.
  Energy threshold   = 1.00e-10
  Density threshold  = 1.00e-10
  Integral threshold = 0.00e+00

  ==> Primary Basis <==

  Basis Set: AUG-CC-PVTZ
    Blend: AUG-CC-PVTZ
    Number of shells: 272
    Number of basis function: 828
    Number of Cartesian functions: 965
    Spherical Harmonics?: true
    Max angular momentum: 3

   => Loading Basis Set <=

    Name: (AUG-CC-PVTZ AUX)
    Role: JKFIT
    Keyword: DF_BASIS_SCF
    atoms 1-11  entry C          line   161 file /cbio/jclab/home/chayas/anaconda/envs/py35/share/psi4/basis/aug-cc-pvtz-jkfit.gbs 
    atoms 12    entry N          line   223 file /cbio/jclab/home/chayas/anaconda/envs/py35/share/psi4/basis/aug-cc-pvtz-jkfit.gbs 
    atoms 13    entry O          line   285 file /cbio/jclab/home/chayas/anaconda/envs/py35/share/psi4/basis/aug-cc-pvtz-jkfit.gbs 
    atoms 14-23 entry H          line    69 file /cbio/jclab/home/chayas/anaconda/envs/py35/share/psi4/basis/aug-cc-pvtz-jkfit.gbs 

  Reading orbitals from file 180, no projection.

  ==> Pre-Iterations <==

   -------------------------------------------------------
    Irrep   Nso     Nmo     Nalpha   Nbeta   Ndocc  Nsocc
   -------------------------------------------------------
     A        828     828       0       0       0       0
   -------------------------------------------------------
    Total     828     828      45      45      45       0
   -------------------------------------------------------

  ==> Integral Setup <==

  ==> DFJK: Density-Fitted J/K Matrices <==

    J tasked:                  Yes
    K tasked:                  Yes
    wK tasked:                  No
    OpenMP threads:              8
    Integrals threads:           8
    Memory (MB):              3576
    Algorithm:                Disk
    Integral Cache:           NONE
    Schwarz Cutoff:          1E-12
    Fitting Condition:       1E-12

   => Auxiliary Basis Set <=

  Basis Set: (AUG-CC-PVTZ AUX)
    Blend: AUG-CC-PVTZ-JKFIT
    Number of shells: 530
    Number of basis function: 1812
    Number of Cartesian functions: 2253
    Spherical Harmonics?: true
    Max angular momentum: 4

  Minimum eigenvalue in the overlap matrix is 5.7188158757E-07.
  Using Symmetric Orthogonalization.

  SCF Guess: Orbitals guess was supplied from a previous computation.

  ==> Iterations <==

                           Total Energy        Delta E     RMS |[F,P]|

   @DF-RHF iter   0:  -551.79005548045734   -5.51790e+02   4.19676e-04 
   @DF-RHF iter   1:  -551.67576675096348    1.14289e-01   8.50728e-05 
   @DF-RHF iter   2:  -551.67618170888522   -4.14958e-04   8.96037e-05 DIIS
   @DF-RHF iter   3:  -551.67656289055867   -3.81182e-04   1.21405e-05 DIIS
   @DF-RHF iter   4:  -551.67657056325436   -7.67270e-06   2.47808e-06 DIIS
   @DF-RHF iter   5:  -551.67657219369198   -1.63044e-06   1.20588e-06 DIIS
   @DF-RHF iter   6:  -551.67657243941187   -2.45720e-07   6.28381e-07 DIIS
   @DF-RHF iter   7:  -551.67657251710750   -7.76956e-08   2.39257e-07 DIIS
   @DF-RHF iter   8:  -551.67657254328958   -2.61821e-08   1.12191e-07 DIIS
   @DF-RHF iter   9:  -551.67657254860899   -5.31941e-09   4.78665e-08 DIIS
   @DF-RHF iter  10:  -551.67657254913104   -5.22050e-10   1.71331e-08 DIIS
   @DF-RHF iter  11:  -551.67657254917788   -4.68390e-11   3.38222e-09 DIIS
   @DF-RHF iter  12:  -551.67657254918845   -1.05729e-11   1.68502e-09 DIIS
   @DF-RHF iter  13:  -551.67657254917049    1.79625e-11   8.15168e-10 DIIS
   @DF-RHF iter  14:  -551.67657254917219   -1.70530e-12   3.59448e-10 DIIS
   @DF-RHF iter  15:  -551.67657254917833   -6.13909e-12   1.66168e-10 DIIS
   @DF-RHF iter  16:  -551.67657254918038   -2.04636e-12   5.20095e-11 DIIS

  ==> Post-Iterations <==

    Orbital Energies (a.u.)
    -----------------------

    Doubly Occupied:                                                      

       1A    -20.690904     2A    -15.832287     3A    -11.483161  
       4A    -11.483047     5A    -11.451245     6A    -11.425809  
       7A    -11.413505     8A    -11.413205     9A    -11.377479  
      10A    -11.376332    11A    -11.375318    12A    -11.354209  
      13A    -11.351443    14A     -1.511719    15A     -1.511094  
      16A     -1.319769    17A     -1.266338    18A     -1.240735  
      19A     -1.155689    20A     -1.153246    21A     -1.066839  
      22A     -1.057160    23A     -0.972032    24A     -0.964387  
      25A     -0.952023    26A     -0.869184    27A     -0.861466  
      28A     -0.854542    29A     -0.820304    30A     -0.802528  
      31A     -0.781314    32A     -0.772262    33A     -0.757492  
      34A     -0.746786    35A     -0.724905    36A     -0.708611  
      37A     -0.705852    38A     -0.659133    39A     -0.651919  
      40A     -0.643413    41A     -0.599274    42A     -0.573566  
      43A     -0.540915    44A     -0.470116    45A     -0.446718  

    Virtual:                                                              

      46A     -0.109041    47A     -0.084567    48A     -0.063193  
      49A     -0.061786    50A     -0.059389    51A     -0.049717  
      52A     -0.043458    53A     -0.039688    54A     -0.034594  
      55A     -0.029568    56A     -0.026148    57A     -0.024205  
      58A     -0.016962    59A     -0.008653    60A     -0.007649  
      61A     -0.004726    62A      0.004077    63A      0.005909  
      64A      0.008596    65A      0.013521    66A      0.015911  
      67A      0.018546    68A      0.024114    69A      0.025645  
      70A      0.028483    71A      0.032883    72A      0.037294  
      73A      0.037616    74A      0.042780    75A      0.046482  
      76A      0.049838    77A      0.054905    78A      0.057848  
      79A      0.059428    80A      0.063153    81A      0.068474  
      82A      0.070705    83A      0.073364    84A      0.078179  
      85A      0.083343    86A      0.086749    87A      0.088652  
      88A      0.094845    89A      0.097113    90A      0.108691  
      91A      0.109510    92A      0.113894    93A      0.116732  
      94A      0.123198    95A      0.127087    96A      0.128513  
      97A      0.134024    98A      0.137108    99A      0.139201  
     100A      0.144197   101A      0.152378   102A      0.154801  
     103A      0.159437   104A      0.163216   105A      0.166646  
     106A      0.168169   107A      0.171016   108A      0.174077  
     109A      0.181743   110A      0.184474   111A      0.188715  
     112A      0.191954   113A      0.195720   114A      0.196863  
     115A      0.199658   116A      0.206035   117A      0.210485  
     118A      0.213162   119A      0.214665   120A      0.219903  
     121A      0.226087   122A      0.227095   123A      0.229120  
     124A      0.232655   125A      0.234094   126A      0.238079  
     127A      0.241673   128A      0.247520   129A      0.251944  
     130A      0.257893   131A      0.259303   132A      0.270536  
     133A      0.275388   134A      0.276318   135A      0.281441  
     136A      0.284876   137A      0.287340   138A      0.291719  
     139A      0.299776   140A      0.301427   141A      0.307886  
     142A      0.310760   143A      0.311900   144A      0.320746  
     145A      0.324274   146A      0.325440   147A      0.327456  
     148A      0.333233   149A      0.335649   150A      0.338876  
     151A      0.340305   152A      0.345793   153A      0.351640  
     154A      0.354596   155A      0.358792   156A      0.362098  
     157A      0.364715   158A      0.367780   159A      0.371560  
     160A      0.376373   161A      0.376749   162A      0.380174  
     163A      0.385778   164A      0.387044   165A      0.394355  
     166A      0.395876   167A      0.398101   168A      0.403845  
     169A      0.406400   170A      0.407655   171A      0.408791  
     172A      0.415621   173A      0.416051   174A      0.421630  
     175A      0.423904   176A      0.428834   177A      0.432532  
     178A      0.434381   179A      0.437642   180A      0.444574  
     181A      0.448266   182A      0.449329   183A      0.456853  
     184A      0.462621   185A      0.470655   186A      0.475677  
     187A      0.483292   188A      0.488303   189A      0.495742  
     190A      0.501125   191A      0.508392   192A      0.509962  
     193A      0.514675   194A      0.522901   195A      0.530618  
     196A      0.534586   197A      0.536596   198A      0.543301  
     199A      0.553861   200A      0.559967   201A      0.565307  
     202A      0.572343   203A      0.574861   204A      0.579405  
     205A      0.585083   206A      0.588259   207A      0.590447  
     208A      0.601382   209A      0.606805   210A      0.609158  
     211A      0.615859   212A      0.621520   213A      0.624066  
     214A      0.627824   215A      0.631660   216A      0.639166  
     217A      0.650227   218A      0.652723   219A      0.655832  
     220A      0.659292   221A      0.664684   222A      0.669759  
     223A      0.676565   224A      0.681237   225A      0.696670  
     226A      0.706306   227A      0.709496   228A      0.711548  
     229A      0.715899   230A      0.718071   231A      0.721415  
     232A      0.732660   233A      0.736213   234A      0.741724  
     235A      0.744471   236A      0.752374   237A      0.756310  
     238A      0.758981   239A      0.764161   240A      0.770928  
     241A      0.773539   242A      0.778038   243A      0.786097  
     244A      0.789516   245A      0.794897   246A      0.796353  
     247A      0.802883   248A      0.805699   249A      0.808840  
     250A      0.811438   251A      0.817365   252A      0.822475  
[...]
	 B(5,7,12)        =         2.084539	     119.435273
	 B(5,7,20)        =         2.157723	     123.628439
	 B(5,10,6)        =         2.040340	     116.902886
	 B(5,10,9)        =         2.120244	     121.481019
	 B(6,8,12)        =         2.084570	     119.437045
	 B(6,8,21)        =         2.157805	     123.633140
	 B(6,10,9)        =         2.122600	     121.616043
	 B(7,5,10)        =         2.109502	     120.865562
	 B(7,5,18)        =         2.065320	     118.334111
	 B(7,12,8)        =         2.137904	     122.492853
	 B(7,12,22)       =         2.072619	     118.752323
	 B(8,6,10)        =         2.109514	     120.866223
	 B(8,6,19)        =         2.065202	     118.327359
	 B(8,12,22)       =         2.072663	     118.754818
	 B(9,1,14)        =         2.101748	     120.421265
	 B(9,2,15)        =         2.102367	     120.456749
	 B(10,5,18)       =         2.107900	     120.773761
	 B(10,6,19)       =         2.108049	     120.782325
	 B(11,3,16)       =         2.073383	     118.796105
	 B(11,4,17)       =         2.083813	     119.393684
	 B(11,13,23)      =         1.930132	     110.588397
	 B(12,7,20)       =         2.040860	     116.932667
	 B(12,8,21)       =         2.040752	     116.926493
	 D(1,3,11,4)      =        -0.020087	      -1.150916
	 D(1,3,11,13)     =         3.091113	     177.107721
	 D(1,9,2,4)       =        -0.015076	      -0.863804
	 D(1,9,2,15)      =        -3.095265	    -177.345649
	 D(1,9,10,5)      =         0.482040	      27.618853
	 D(1,9,10,6)      =        -2.661049	    -152.466891
	 D(2,4,11,3)      =        -0.004271	      -0.244720
	 D(2,4,11,13)     =        -3.114461	    -178.445445
	 D(2,9,1,3)       =        -0.009424	      -0.539978
	 D(2,9,1,14)      =        -3.089640	    -177.023328
	 D(2,9,10,5)      =        -2.656054	    -152.180659
	 D(2,9,10,6)      =         0.484043	      27.733597
	 D(3,1,9,10)      =         3.135611	     179.657281
	 D(3,11,4,17)     =         3.116458	     178.559918
	 D(3,11,13,23)    =         2.099795	     120.309382
	 D(4,2,9,10)      =         3.123073	     178.938923
	 D(4,11,3,16)     =         3.121832	     178.867783
	 D(4,11,13,23)    =        -1.072718	     -61.462200
	 D(5,7,12,8)      =         0.001017	       0.058245
	 D(5,7,12,22)     =        -3.140092	    -179.914011
	 D(5,10,6,8)      =         0.001031	       0.059095
	 D(5,10,6,19)     =        -3.108878	    -178.125595
	 D(6,8,12,7)      =         0.001033	       0.059192
	 D(6,8,12,22)     =        -3.141044	    -179.968552
	 D(6,10,5,7)      =         0.001020	       0.058426
	 D(6,10,5,18)     =        -3.107306	    -178.035529
	 D(7,5,10,9)      =         3.141183	     179.976546
	 D(7,12,8,21)     =         3.131475	     179.420316
	 D(8,6,10,9)      =        -3.139130	    -179.858907
	 D(8,12,7,20)     =         3.130967	     179.391214
	 D(9,1,3,11)      =         0.026933	       1.543168
	 D(9,1,3,16)      =        -3.114994	    -178.475986
	 D(9,2,4,11)      =         0.021885	       1.253934
	 D(9,2,4,17)      =        -3.098584	    -177.535761
	 D(9,10,5,18)     =         0.032857	       1.882591
	 D(9,10,6,19)     =         0.034146	       1.956403
	 D(10,5,7,12)     =        -0.002048	      -0.117366
	 D(10,5,7,20)     =        -3.131176	    -179.403154
	 D(10,6,8,12)     =        -0.002063	      -0.118174
	 D(10,6,8,21)     =        -3.131715	    -179.434034
	 D(10,9,1,14)     =         0.055396	       3.173931
	 D(10,9,2,15)     =         0.042884	       2.457078
	 D(11,3,1,14)     =         3.108050	     178.078131
	 D(11,4,2,15)     =         3.103019	     177.789902
	 D(12,7,5,18)     =         3.107071	     178.022081
	 D(12,8,6,19)     =         3.108608	     178.110112
	 D(13,11,3,16)    =        -0.050153	      -2.873581
	 D(13,11,4,17)    =         0.006269	       0.359193
	 D(14,1,3,16)     =        -0.033877	      -1.941023
	 D(15,2,4,17)     =        -0.017450	      -0.999793
	 D(18,5,7,20)     =        -0.022056	      -1.263706
	 D(19,6,8,21)     =        -0.021044	      -1.205747
	 D(20,7,12,22)    =        -0.010141	      -0.581042
	 D(21,8,12,22)    =        -0.010602	      -0.607428

	Current energy   :      -554.0957682175

	Energy change for the previous step:
		Projected    :        -0.0000017716
		Actual       :        -0.0000005543

	Performing BFGS update.
	Previous computed or guess Hessian on step 1.
	Steps to be used in Hessian update: 5 4
	Adding user-defined constraint: Fragment 1; Coordinate 76:
		Value =     2.099795; Fixed value    =     2.094400
		Force =    -0.003372; Force constant =     0.625000
	Removing off-diagonal coupling between coordinate 76 and others.
	Taking RFO optimization step.
	Going to follow RFO solution 1.
	Rejecting RFO root 1 because normalization gives large value.
	Using RFO vector 2.
	Norm of target step-size    0.00911
	Projected energy change by RFO approximation:         0.0000021206

	Back-transformation to cartesian coordinates...
	Successfully converged to displaced geometry.

	--- Internal Coordinate Step in ANG or DEG, aJ/ANG or AJ/DEG ---
	 ---------------------------------------------------------------------------
	   Coordinate                Previous        Force       Change         New 
	   ----------                --------       ------       ------       ------
	    1 R(1,3)          =      1.380469     0.000226     0.000089     1.380558
	    2 R(1,9)          =      1.398452    -0.000177    -0.000154     1.398298
	    3 R(1,14)         =      1.079626    -0.000031    -0.000001     1.079625
	    4 R(2,4)          =      1.380971     0.000156     0.000013     1.380984
	    5 R(2,9)          =      1.398254    -0.000080    -0.000056     1.398197
	    6 R(2,15)         =      1.079650    -0.000041    -0.000018     1.079632
	    7 R(3,11)         =      1.390640    -0.000191    -0.000109     1.390531
	    8 R(3,16)         =      1.078459    -0.000003    -0.000055     1.078405
	    9 R(4,11)         =      1.391899     0.000066    -0.000007     1.391892
	   10 R(4,17)         =      1.079109    -0.000010    -0.000036     1.079073
	   11 R(5,7)          =      1.372053     0.000122    -0.000017     1.372036
	   12 R(5,10)         =      1.400935    -0.000092    -0.000080     1.400855
	   13 R(5,18)         =      1.077468    -0.000125    -0.000043     1.077425
	   14 R(6,8)          =      1.372007     0.000131    -0.000016     1.371991
	   15 R(6,10)         =      1.400874    -0.000109    -0.000070     1.400804
	   16 R(6,19)         =      1.077462    -0.000095    -0.000043     1.077419
	   17 R(7,12)         =      1.343082     0.000043     0.000043     1.343125
	   18 R(7,20)         =      1.077251     0.000002    -0.000027     1.077223
	   19 R(8,12)         =      1.343139    -0.000074     0.000018     1.343157
	   20 R(8,21)         =      1.077241     0.000005    -0.000024     1.077217
	   21 R(9,10)         =      1.446624     0.000691     0.000204     1.446828
	   22 R(11,13)        =      1.359817    -0.000011     0.000143     1.359960
	   23 R(12,22)        =      1.011873    -0.000023    -0.000031     1.011842
	   24 R(13,23)        =      0.962674     0.000099    -0.000008     0.962667
	   25 B(1,3,11)       =    120.016754     0.000001    -0.001398   120.015356
	   26 B(1,3,16)       =    121.187138    -0.000003    -0.027669   121.159469
	   27 B(1,9,2)        =    118.916472    -0.000002     0.011327   118.927799
	   28 B(1,9,10)       =    120.538175     0.000002    -0.005017   120.533158
	   29 B(2,4,11)       =    119.969599     0.000001     0.006447   119.976046
	   30 B(2,4,17)       =    120.625781    -0.000002    -0.010077   120.615704
	   31 B(2,9,10)       =    120.545056     0.000000    -0.006232   120.538823
	   32 B(3,1,9)        =    120.550396     0.000002    -0.003403   120.546993
	   33 B(3,1,14)       =    118.936750    -0.000004    -0.003340   118.933410
	   34 B(3,11,4)       =    119.971431    -0.000003    -0.002192   119.969239
	   35 B(3,11,13)      =    118.380371     0.000001    -0.003125   118.377245
	   36 B(4,2,9)        =    120.551535     0.000001    -0.012034   120.539501
	   37 B(4,2,15)       =    118.900115    -0.000003     0.005205   118.905320
	   38 B(4,11,13)      =    121.624511     0.000002     0.006213   121.630724
	   39 B(5,7,12)       =    119.435273    -0.000000    -0.013600   119.421673
	   40 B(5,7,20)       =    123.628439     0.000000     0.014085   123.642524
	   41 B(5,10,6)       =    116.902886     0.000000     0.022404   116.925290
	   42 B(5,10,9)       =    121.481019     0.000001    -0.004334   121.476686
	   43 B(6,8,12)       =    119.437045    -0.000000    -0.014983   119.422062
	   44 B(6,8,21)       =    123.633140    -0.000000     0.013804   123.646944
	   45 B(6,10,9)       =    121.616043    -0.000001    -0.018047   121.597996
	   46 B(7,5,10)       =    120.865562    -0.000000    -0.008931   120.856631
	   47 B(7,5,18)       =    118.334111    -0.000001     0.023585   118.357696
	   48 B(7,12,8)       =    122.492853     0.000000     0.022470   122.515323
	   49 B(7,12,22)      =    118.752323     0.000000    -0.011002   118.741320
	   50 B(8,6,10)       =    120.866223     0.000000    -0.007303   120.858920
	   51 B(8,6,19)       =    118.327359    -0.000001     0.024833   118.352192
	   52 B(8,12,22)      =    118.754818    -0.000000    -0.011465   118.743353
	   53 B(9,1,14)       =    120.421265     0.000002     0.006328   120.427593
	   54 B(9,2,15)       =    120.456749     0.000002     0.005312   120.462061
	   55 B(10,5,18)      =    120.773761     0.000001    -0.015256   120.758505
	   56 B(10,6,19)      =    120.782325     0.000001    -0.018361   120.763964
	   57 B(11,3,16)      =    118.796105     0.000002     0.029069   118.825174
	   58 B(11,4,17)      =    119.393684     0.000001     0.002751   119.396435
	   59 B(11,13,23)     =    110.588397    -0.000002    -0.021877   110.566520
	   60 B(12,7,20)      =    116.932667     0.000000    -0.000666   116.932002
	   61 B(12,8,21)      =    116.926493     0.000000     0.000912   116.927405
	   62 D(1,3,11,4)     =     -1.150916    -0.000001    -0.046577    -1.197493
	   63 D(1,3,11,13)    =    177.107721     0.000001    -0.013248   177.094472
	   64 D(1,9,2,4)      =     -0.863804    -0.000000    -0.016519    -0.880323
	   65 D(1,9,2,15)     =   -177.345649    -0.000000     0.012286  -177.333363
	   66 D(1,9,10,5)     =     27.618853     0.000000     0.230138    27.848991
	   67 D(1,9,10,6)     =   -152.466891     0.000000     0.252384  -152.214508
	   68 D(2,4,11,3)     =     -0.244720     0.000001     0.014124    -0.230596
	   69 D(2,4,11,13)    =   -178.445445    -0.000001    -0.020144  -178.465589
	   70 D(2,9,1,3)      =     -0.539978     0.000000    -0.015934    -0.555912
	   71 D(2,9,1,14)     =   -177.023328     0.000000    -0.007854  -177.031182
	   72 D(2,9,10,5)     =   -152.180659    -0.000000     0.201960  -151.978699
	   73 D(2,9,10,6)     =     27.733597    -0.000000     0.224206    27.957803
	   74 D(3,1,9,10)     =    179.657281    -0.000000    -0.043629   179.613653
	   75 D(3,11,4,17)    =    178.559918     0.000000    -0.033072   178.526845
	   76 D(3,11,13,23)   =    120.309382    -0.000005    -0.033451   120.275931
	   77 D(4,2,9,10)     =    178.938923     0.000000     0.011180   178.950102
	   78 D(4,11,3,16)    =    178.867783    -0.000001    -0.073861   178.793922
	   79 D(4,11,13,23)   =    -61.462200    -0.000003     0.000302   -61.461898
	   80 D(5,7,12,8)     =      0.058245    -0.000000    -0.013004     0.045241
	   81 D(5,7,12,22)    =   -179.914011    -0.000000    -0.018728  -179.932739
	   82 D(5,10,6,8)     =      0.059095    -0.000000    -0.007134     0.051961
	   83 D(5,10,6,19)    =   -178.125595     0.000000     0.023451  -178.102144
	   84 D(6,8,12,7)     =      0.059192    -0.000000    -0.010483     0.048709
	   85 D(6,8,12,22)    =   -179.968552    -0.000000    -0.004759  -179.973311
	   86 D(6,10,5,7)     =      0.058426    -0.000000    -0.016358     0.042068
	   87 D(6,10,5,18)    =   -178.035529     0.000000     0.004662  -178.030868
	   88 D(7,5,10,9)     =    179.976546    -0.000000     0.004861   179.981407
	   89 D(7,12,8,21)    =    179.420316    -0.000000    -0.035652   179.384664
	   90 D(8,6,10,9)     =   -179.858907    -0.000000    -0.028393  -179.887299
	   91 D(8,12,7,20)    =    179.391214    -0.000000    -0.029341   179.361873
	   92 D(9,1,3,11)     =      1.543168     0.000000     0.047529     1.590698
	   93 D(9,1,3,16)     =   -178.475986     0.000000     0.075473  -178.400513
	   94 D(9,2,4,11)     =      1.253934    -0.000000     0.017398     1.271332
	   95 D(9,2,4,17)     =   -177.535761     0.000000     0.065019  -177.470742
	   96 D(9,10,5,18)    =      1.882591     0.000000     0.025881     1.908472
	   97 D(9,10,6,19)    =      1.956403     0.000000     0.002193     1.958596
	   98 D(10,5,7,12)    =     -0.117366     0.000000     0.026582    -0.090784
	   99 D(10,5,7,20)    =   -179.403154     0.000000     0.044199  -179.358955
	  100 D(10,6,8,12)    =     -0.118174     0.000000     0.020545    -0.097629
	  101 D(10,6,8,21)    =   -179.434034     0.000000     0.047606  -179.386428
	  102 D(10,9,1,14)    =      3.173931     0.000000    -0.035549     3.138383
	  103 D(10,9,2,15)    =      2.457078     0.000000     0.039984     2.497063
	  104 D(11,3,1,14)    =    178.078131     0.000000     0.039906   178.118037
	  105 D(11,4,2,15)    =    177.789902    -0.000000    -0.010948   177.778954
	  106 D(12,7,5,18)    =    178.022081    -0.000000     0.005348   178.027429
	  107 D(12,8,6,19)    =    178.110112    -0.000000    -0.010071   178.100042
	  108 D(13,11,3,16)   =     -2.873581     0.000001    -0.040532    -2.914113
	  109 D(13,11,4,17)   =      0.359193    -0.000001    -0.067340     0.291853
	  110 D(14,1,3,16)    =     -1.941023     0.000000     0.067850    -1.873174
	  111 D(15,2,4,17)    =     -0.999793     0.000000     0.036674    -0.963119
	  112 D(18,5,7,20)    =     -1.263706     0.000000     0.022965    -1.240741
	  113 D(19,6,8,21)    =     -1.205747     0.000000     0.016990    -1.188757
	  114 D(20,7,12,22)   =     -0.581042    -0.000000    -0.035065    -0.616107
	  115 D(21,8,12,22)   =     -0.607428    -0.000000    -0.029927    -0.637356
	 ---------------------------------------------------------------------------
	Successfully symmetrized geometry.
	 Forces used to impose fixed constraints are not included.
	  Forces zeroed: 76 

  ==> Convergence Check <==

  Measures of convergence in internal coordinates in au.
  Criteria marked as inactive (o), active & met (*), and active & unmet ( ).
  ---------------------------------------------------------------------------------------------
   Step     Total Energy     Delta E     MAX Force     RMS Force      MAX Disp      RMS Disp   
  ---------------------------------------------------------------------------------------------
    Convergence Criteria    1.00e-06 *    3.00e-04 *             o    1.20e-03 *             o
  ---------------------------------------------------------------------------------------------
      6    -554.09576822   -5.54e-07 *    1.92e-04 *    2.70e-05 o    4.40e-03      8.50e-04 o  ~
  ---------------------------------------------------------------------------------------------


  **** Optimization is complete! (in 6 steps) ****

  ==> Optimization Summary <==

  Measures of convergence in internal coordinates in au.
  --------------------------------------------------------------------------------------------------------------- ~
   Step         Total Energy             Delta E       MAX Force       RMS Force        MAX Disp        RMS Disp  ~
  --------------------------------------------------------------------------------------------------------------- ~
      1    -554.092690040183   -554.092690040183      0.01412344      0.00395189      0.02924209      0.00932139  ~
      2    -554.095192002965     -0.002501962782      0.00388546      0.00108512      0.02638867      0.00932156  ~
      3    -554.095697187799     -0.000505184834      0.00125641      0.00028350      0.02081982      0.00734815  ~
      4    -554.095771651076     -0.000074463277      0.00054627      0.00009627      0.00912914      0.00190394  ~
      5    -554.095767663188      0.000003987888      0.00020336      0.00004366      0.00597973      0.00112829  ~
      6    -554.095768217499     -0.000000554311      0.00028229      0.00003771      0.00440492      0.00084957  ~
  --------------------------------------------------------------------------------------------------------------- ~

	Writing optimization data to binary file.
	Final energy is   -554.0957682174991
	Final (previous) structure:
	Cartesian Geometry (in Angstrom)
	    C    -1.2765822888   0.7415928377  -0.5562385458
	    C    -0.3105558254   0.0765094818   1.5476229278
	    C    -2.3508748341   1.2945096957   0.1114984380
	    C    -1.3706999628   0.6548115402   2.2175053727
	    C     1.2927313680   0.0137524577  -1.7980132986
	    C     1.6024217313  -1.5379165381  -0.0098590883
	    C     2.3590452008  -0.5511092776  -2.4510327246
	    C     2.6659500301  -2.0799576546  -0.6862483968
	    C    -0.2433977372   0.1194177147   0.1516424210
	    C     0.8786269554  -0.4664068675  -0.5487797048
	    C    -2.3967550201   1.2641438904   1.5010493596
	    N     3.0140043076  -1.5761677415  -1.8816884507
	    O    -3.4405446125   1.8709080006   2.1267037028
	    H    -1.2736841553   0.7468243410  -1.6358484170
	    H     0.4936083421  -0.3595349528   2.1210596924
	    H    -3.1649801641   1.7552190325  -0.4252084399
	    H    -1.4040044060   0.6570979988   3.2960978419
	    H     0.8004570802   0.8558095080  -2.2557717197
	    H     1.3194454352  -1.9757151988   0.9331047461
	    H     2.7207187291  -0.2118804754  -3.4073721041
	    H     3.2473187355  -2.9088033570  -0.3181823083
	    H     3.7996997789  -1.9840909801  -2.3717575512
	    H    -3.9319994035   1.2362144152   2.6580959119
	Saving final (previous) structure.
			--------------------------
			 OPTKING Finished Execution 
			--------------------------

    Final optimized geometry and variables:
    Molecular point group: c1
    Full point group: C1

    Geometry (in Angstrom), charge = 1, multiplicity = 1:

    C           -1.276582288809     0.741592837749    -0.556238545753
    C           -0.310555825381     0.076509481763     1.547622927798
    C           -2.350874834063     1.294509695676     0.111498438008
    C           -1.370699962785     0.654811540155     2.217505372651
    C            1.292731368017     0.013752457698    -1.798013298586
    C            1.602421731290    -1.537916538084    -0.009859088328
    C            2.359045200754    -0.551109277612    -2.451032724626
    C            2.665950030126    -2.079957654648    -0.686248396791
    C           -0.243397737235     0.119417714729     0.151642420970
    C            0.878626955438    -0.466406867522    -0.548779704770
    C           -2.396755020108     1.264143890383     1.501049359552
    N            3.014004307627    -1.576167741503    -1.881688450675
    O           -3.440544612476     1.870908000602     2.126703702786
    H           -1.273684155281     0.746824340966    -1.635848417036
    H            0.493608342147    -0.359534952828     2.121059692441
    H           -3.164980164110     1.755219032513    -0.425208439944
    H           -1.404004406040     0.657097998775     3.296097841858
    H            0.800457080240     0.855809507969    -2.255771719653
    H            1.319445435194    -1.975715198824     0.933104746105
    H            2.720718729102    -0.211880475411    -3.407372104099
    H            3.247318735477    -2.908803357038    -0.318182308300
    H            3.799699778914    -1.984090980101    -2.371757551192
    H           -3.931999403520     1.236214415161     2.658095911854

	Cleaning optimization helper files.

*** Psi4 exiting successfully. Buy a developer a beer!
