
    -----------------------------------------------------------------------
          Psi4: An Open-Source Ab Initio Electronic Structure Package
                               Psi4 1.1 release

                         Git: Rev {HEAD} add49b9 


    R. M. Parrish, L. A. Burns, D. G. A. Smith, A. C. Simmonett,
    A. E. DePrince III, E. G. Hohenstein, U. Bozkaya, A. Yu. Sokolov,
    R. Di Remigio, R. M. Richard, J. F. Gonthier, A. M. James,
    H. R. McAlexander, A. Kumar, M. Saitow, X. Wang, B. P. Pritchard,
    P. Verma, H. F. Schaefer III, K. Patkowski, R. A. King, E. F. Valeev,
    F. A. Evangelista, J. M. Turney, T. D. Crawford, and C. D. Sherrill,
    J. Chem. Theory Comput. in press (2017).
    (doi: 10.1021/acs.jctc.7b00174)

    -----------------------------------------------------------------------


    Psi4 started on: Sunday, 12 November 2017 04:44PM

    Process ID:  26860
    PSIDATADIR: /cbio/jclab/home/chayas/anaconda/envs/py35/share/psi4
    Memory:     500.0 MiB
    Threads:    8
    
  ==> Input File <==

--------------------------------------------------------------------------

memory 5 Gb

molecule phepyrOH_zwitterion {
  symmetry C1
  0 1 
  C      1.885   -1.036   -0.112
  C      2.878   -1.652   2.002
  C      0.807   -0.463   0.561
  C      1.800   -1.079   2.676
  C      3.859   -2.774   -1.356
  C      5.298   -2.251   0.503
  C      4.950   -3.338   -2.002
  C      6.353   -2.829   -0.190
  C      2.921   -1.631   0.608
  C      4.040   -2.226   -0.090
  C      0.764   -0.484   1.955
  N      6.150   -3.349   -1.408
  O      -0.227   0.042   2.574
  H      1.904   -1.011   -1.199
  H      3.678   -2.112   2.577
  H      0.011   -0.006   -0.025
  H      1.791   -1.108   3.764
  H      2.888   -2.767   -1.844
  H      5.468   -1.832   1.491
  H      4.903   -3.785   -2.986
  H      7.362   -2.893   0.193
  H      6.939   -3.770   -1.900
  units Angstrom
}

dih_string = "1 9 10 5 330"
set optking fixed_dihedral = $dih_string

optimize('MP2/aug-cc-PVTZ')
--------------------------------------------------------------------------

  Memory set to   4.657 GiB by Python driver.
gradient() will perform analytic gradient computation.

*** tstart() called on gpu-1-17.local
*** at Sun Nov 12 16:44:42 2017

    SCF Algorithm Type (re)set to DF.

*** tstart() called on gpu-1-17.local
*** at Sun Nov 12 16:44:42 2017

   => Loading Basis Set <=

    Name: AUG-CC-PVTZ
    Role: ORBITAL
    Keyword: BASIS
    atoms 1-11  entry C          line   221 file /cbio/jclab/home/chayas/anaconda/envs/py35/share/psi4/basis/aug-cc-pvtz.gbs 
    atoms 12    entry N          line   267 file /cbio/jclab/home/chayas/anaconda/envs/py35/share/psi4/basis/aug-cc-pvtz.gbs 
    atoms 13    entry O          line   313 file /cbio/jclab/home/chayas/anaconda/envs/py35/share/psi4/basis/aug-cc-pvtz.gbs 
    atoms 14-22 entry H          line    34 file /cbio/jclab/home/chayas/anaconda/envs/py35/share/psi4/basis/aug-cc-pvtz.gbs 


         ---------------------------------------------------------
                                   SCF
            by Justin Turney, Rob Parrish, and Andy Simmonett
                              RHF Reference
                        8 Threads,   4768 MiB Core
         ---------------------------------------------------------

  ==> Geometry <==

    Molecular point group: c1
    Full point group: C1

    Geometry (in Angstrom), charge = 0, multiplicity = 1:

       Center              X                  Y                   Z               Mass       
    ------------   -----------------  -----------------  -----------------  -----------------
           C         -1.297150842343     0.734142128637    -0.557354790324    12.000000000000
           C         -0.304150842343     0.118142128637     1.556645209676    12.000000000000
           C         -2.375150842343     1.307142128637     0.115645209676    12.000000000000
           C         -1.382150842343     0.691142128637     2.230645209676    12.000000000000
           C          0.676849157657    -1.003857871363    -1.801354790324    12.000000000000
           C          2.115849157657    -0.480857871363     0.057645209676    12.000000000000
           C          1.767849157657    -1.567857871363    -2.447354790324    12.000000000000
           C          3.170849157657    -1.058857871363    -0.635354790324    12.000000000000
           C         -0.261150842343     0.139142128637     0.162645209676    12.000000000000
           C          0.857849157657    -0.455857871363    -0.535354790324    12.000000000000
           C         -2.418150842343     1.286142128637     1.509645209676    12.000000000000
           N          2.967849157657    -1.578857871363    -1.853354790324    14.003074004780
           O         -3.409150842343     1.812142128637     2.128645209676    15.994914619560
           H         -1.278150842343     0.759142128637    -1.644354790324     1.007825032070
           H          0.495849157657    -0.341857871363     2.131645209676     1.007825032070
           H         -3.171150842343     1.764142128637    -0.470354790324     1.007825032070
           H         -1.391150842343     0.662142128637     3.318645209676     1.007825032070
           H         -0.294150842343    -0.996857871363    -2.289354790324     1.007825032070
           H          2.285849157657    -0.061857871363     1.045645209676     1.007825032070
           H          1.720849157657    -2.014857871363    -3.431354790324     1.007825032070
           H          4.179849157657    -1.122857871363    -0.252354790324     1.007825032070
           H          3.756849157657    -1.999857871363    -2.345354790324     1.007825032070

  Running in c1 symmetry.

  Rotational constants: A =      0.09651  B =      0.01373  C =      0.01223 [cm^-1]
  Rotational constants: A =   2893.34168  B =    411.73193  C =    366.55928 [MHz]
  Nuclear repulsion =  701.592747274606268

  Charge       = 0
  Multiplicity = 1
  Electrons    = 90
  Nalpha       = 45
  Nbeta        = 45

  ==> Algorithm <==

  SCF Algorithm Type is DF.
  DIIS enabled.
  MOM disabled.
  Fractional occupation disabled.
  Guess Type is SAD.
  Energy threshold   = 1.00e-10
  Density threshold  = 1.00e-10
  Integral threshold = 0.00e+00

  ==> Primary Basis <==

  Basis Set: AUG-CC-PVTZ
    Blend: AUG-CC-PVTZ
    Number of shells: 263
    Number of basis function: 805
    Number of Cartesian functions: 940
    Spherical Harmonics?: true
    Max angular momentum: 3

   => Loading Basis Set <=

    Name: (AUG-CC-PVTZ AUX)
    Role: JKFIT
    Keyword: DF_BASIS_SCF
    atoms 1-11  entry C          line   161 file /cbio/jclab/home/chayas/anaconda/envs/py35/share/psi4/basis/aug-cc-pvtz-jkfit.gbs 
    atoms 12    entry N          line   223 file /cbio/jclab/home/chayas/anaconda/envs/py35/share/psi4/basis/aug-cc-pvtz-jkfit.gbs 
    atoms 13    entry O          line   285 file /cbio/jclab/home/chayas/anaconda/envs/py35/share/psi4/basis/aug-cc-pvtz-jkfit.gbs 
    atoms 14-22 entry H          line    69 file /cbio/jclab/home/chayas/anaconda/envs/py35/share/psi4/basis/aug-cc-pvtz-jkfit.gbs 

  ==> Pre-Iterations <==

   -------------------------------------------------------
    Irrep   Nso     Nmo     Nalpha   Nbeta   Ndocc  Nsocc
   -------------------------------------------------------
     A        805     805       0       0       0       0
   -------------------------------------------------------
    Total     805     805      45      45      45       0
   -------------------------------------------------------

  ==> Integral Setup <==

  ==> DFJK: Density-Fitted J/K Matrices <==

    J tasked:                  Yes
    K tasked:                  Yes
    wK tasked:                  No
    OpenMP threads:              8
    Integrals threads:           8
    Memory (MB):              3576
    Algorithm:                Disk
    Integral Cache:           NONE
    Schwarz Cutoff:          1E-12
    Fitting Condition:       1E-12

   => Auxiliary Basis Set <=

  Basis Set: (AUG-CC-PVTZ AUX)
    Blend: AUG-CC-PVTZ-JKFIT
    Number of shells: 516
    Number of basis function: 1766
    Number of Cartesian functions: 2198
    Spherical Harmonics?: true
    Max angular momentum: 4

  Minimum eigenvalue in the overlap matrix is 6.4083056696E-07.
  Using Symmetric Orthogonalization.

  SCF Guess: Superposition of Atomic Densities via on-the-fly atomic UHF.

  ==> Iterations <==

                           Total Energy        Delta E     RMS |[F,P]|

   @DF-RHF iter   0:  -560.13555667842184   -5.60136e+02   2.14344e-02 
   @DF-RHF iter   1:  -550.84337342284402    9.29218e+00   2.22431e-03 
   @DF-RHF iter   2:  -551.07985585472284   -2.36482e-01   1.69651e-03 DIIS
   @DF-RHF iter   3:  -551.19278174676435   -1.12926e-01   5.31821e-04 DIIS
   @DF-RHF iter   4:  -551.21170473207212   -1.89230e-02   9.54017e-05 DIIS
   @DF-RHF iter   5:  -551.21393868667019   -2.23395e-03   5.18325e-05 DIIS
   @DF-RHF iter   6:  -551.21442288077867   -4.84194e-04   2.19673e-05 DIIS
   @DF-RHF iter   7:  -551.21453287892928   -1.09998e-04   1.14506e-05 DIIS
   @DF-RHF iter   8:  -551.21454917758967   -1.62987e-05   3.91917e-06 DIIS
   @DF-RHF iter   9:  -551.21455423867405   -5.06108e-06   1.46131e-06 DIIS
   @DF-RHF iter  10:  -551.21455515549837   -9.16824e-07   9.71159e-07 DIIS
   @DF-RHF iter  11:  -551.21455537759641   -2.22098e-07   3.71412e-07 DIIS
   @DF-RHF iter  12:  -551.21455541198884   -3.43924e-08   1.64710e-07 DIIS
   @DF-RHF iter  13:  -551.21455541693399   -4.94515e-09   4.73536e-08 DIIS
   @DF-RHF iter  14:  -551.21455541813862   -1.20463e-09   2.84318e-08 DIIS
   @DF-RHF iter  15:  -551.21455541829948   -1.60867e-10   7.38547e-09 DIIS
   @DF-RHF iter  16:  -551.21455541831472   -1.52340e-11   4.23883e-09 DIIS
   @DF-RHF iter  17:  -551.21455541831631   -1.59162e-12   1.90800e-09 DIIS
   @DF-RHF iter  18:  -551.21455541831756   -1.25056e-12   7.37341e-10 DIIS
   @DF-RHF iter  19:  -551.21455541832438   -6.82121e-12   3.29524e-10 DIIS
   @DF-RHF iter  20:  -551.21455541832609   -1.70530e-12   1.75673e-10 DIIS
   @DF-RHF iter  21:  -551.21455541833029   -4.20641e-12   7.11149e-11 DIIS

  ==> Post-Iterations <==

    Orbital Energies (a.u.)
    -----------------------

    Doubly Occupied:                                                      

       1A    -20.431049     2A    -15.697658     3A    -11.355907  
       4A    -11.355771     5A    -11.305061     6A    -11.284690  
       7A    -11.284593     8A    -11.244575     9A    -11.228520  
      10A    -11.228475    11A    -11.214266    12A    -11.188255  
      13A    -11.188225    14A     -1.383056    15A     -1.255817  
      16A     -1.179782    17A     -1.109585    18A     -1.107916  
      19A     -0.995966    20A     -0.990698    21A     -0.937936  
      22A     -0.902025    23A     -0.836076    24A     -0.813669  
      25A     -0.782979    26A     -0.733400    27A     -0.718426  
      28A     -0.695863    29A     -0.671061    30A     -0.653906  
      31A     -0.616487    32A     -0.610443    33A     -0.608355  
      34A     -0.585860    35A     -0.560859    36A     -0.533881  
      37A     -0.515751    38A     -0.483953    39A     -0.477524  
      40A     -0.465021    41A     -0.418385    42A     -0.391116  
      43A     -0.342436    44A     -0.323625    45A     -0.231775  

    Virtual:                                                              

      46A     -0.008188    47A      0.011054    48A      0.019972  
      49A      0.023460    50A      0.037642    51A      0.040582  
      52A      0.042425    53A      0.053590    54A      0.056186  
      55A      0.057216    56A      0.061773    57A      0.068131  
      58A      0.068877    59A      0.070849    60A      0.082413  
      61A      0.093867    62A      0.095115    63A      0.102092  
      64A      0.106692    65A      0.106949    66A      0.118635  
      67A      0.120075    68A      0.120632    69A      0.126784  
      70A      0.127212    71A      0.132103    72A      0.134701  
      73A      0.136885    74A      0.148666    75A      0.149026  
      76A      0.151538    77A      0.156302    78A      0.161841  
      79A      0.165809    80A      0.165912    81A      0.170981  
      82A      0.172571    83A      0.179796    84A      0.183433  
      85A      0.183972    86A      0.188265    87A      0.195735  
      88A      0.198001    89A      0.205499    90A      0.210178  
      91A      0.213297    92A      0.214567    93A      0.223761  
      94A      0.225484    95A      0.228786    96A      0.232290  
      97A      0.236801    98A      0.248130    99A      0.250410  
     100A      0.253564   101A      0.256337   102A      0.259969  
     103A      0.268428   104A      0.270634   105A      0.271156  
     106A      0.283248   107A      0.289601   108A      0.292697  
     109A      0.293668   110A      0.296525   111A      0.299795  
     112A      0.301559   113A      0.306744   114A      0.311080  
     115A      0.318653   116A      0.322764   117A      0.326918  
     118A      0.329569   119A      0.332589   120A      0.337261  
     121A      0.340514   122A      0.344334   123A      0.347148  
     124A      0.350504   125A      0.357070   126A      0.358716  
     127A      0.360993   128A      0.371618   129A      0.374121  
     130A      0.374487   131A      0.384322   132A      0.390054  
     133A      0.394530   134A      0.398702   135A      0.399327  
     136A      0.400474   137A      0.416483   138A      0.416494  
     139A      0.418784   140A      0.427681   141A      0.433104  
     142A      0.433352   143A      0.440146   144A      0.444107  
     145A      0.449160   146A      0.454862   147A      0.455065  
     148A      0.459601   149A      0.462645   150A      0.467883  
     151A      0.467922   152A      0.475453   153A      0.480186  
     154A      0.480302   155A      0.484941   156A      0.485139  
     157A      0.491750   158A      0.493851   159A      0.496542  
     160A      0.499707   161A      0.503005   162A      0.510049  
     163A      0.513957   164A      0.514067   165A      0.519208  
     166A      0.522525   167A      0.524149   168A      0.526211  
     169A      0.532997   170A      0.538106   171A      0.544807  
     172A      0.547870   173A      0.553119   174A      0.554845  
     175A      0.563795   176A      0.566260   177A      0.569542  
     178A      0.573705   179A      0.582830   180A      0.587831  
     181A      0.595424   182A      0.600045   183A      0.609359  
     184A      0.613451   185A      0.620096   186A      0.625259  
     187A      0.631678   188A      0.639740   189A      0.644153  
     190A      0.653892   191A      0.654230   192A      0.663538  
     193A      0.671443   194A      0.674240   195A      0.680350  
     196A      0.680401   197A      0.691329   198A      0.694679  
     199A      0.702280   200A      0.705060   201A      0.705497  
     202A      0.712972   203A      0.725707   204A      0.727249  
     205A      0.728246   206A      0.735765   207A      0.737231  
     208A      0.748189   209A      0.748259   210A      0.758203  
     211A      0.767716   212A      0.770200   213A      0.774991  
     214A      0.777158   215A      0.784216   216A      0.788894  
     217A      0.794684   218A      0.803004   219A      0.814860  
     220A      0.817752   221A      0.824426   222A      0.830586  
     223A      0.837541   224A      0.843684   225A      0.844666  
     226A      0.855199   227A      0.858242   228A      0.868952  
     229A      0.869223   230A      0.873491   231A      0.877764  
     232A      0.883419   233A      0.889937   234A      0.890262  
     235A      0.901099   236A      0.910249   237A      0.910861  
     238A      0.914098   239A      0.918942   240A      0.921866  
     241A      0.928216   242A      0.929009   243A      0.931755  
     244A      0.940165   245A      0.943291   246A      0.953184  
     247A      0.958997   248A      0.965809   249A      0.968658  
     250A      0.968678   251A      0.974550   252A      0.978866  
     253A      0.979695   254A      0.988030   255A      0.991771  
     256A      0.996362   257A      0.997824   258A      1.007931  
     259A      1.012124   260A      1.012227   261A      1.018248  
     262A      1.026842   263A      1.027523   264A      1.034081  
     265A      1.036734   266A      1.039591   267A      1.043311  
     268A      1.044447   269A      1.054098   270A      1.060608  
     271A      1.061851   272A      1.067945   273A      1.074864  
     274A      1.078700   275A      1.080629   276A      1.090193  
     277A      1.091378   278A      1.093909   279A      1.095838  
     280A      1.106053   281A      1.114546   282A      1.115041  
     283A      1.121390   284A      1.126240   285A      1.129041  
     286A      1.130683   287A      1.140237   288A      1.150063  
     289A      1.150209   290A      1.158705   291A      1.161138  
     292A      1.169432   293A      1.174554   294A      1.179139  
     295A      1.181904   296A      1.186520   297A      1.192877  
     298A      1.199280   299A      1.200725   300A      1.201641  
     301A      1.208201   302A      1.209152   303A      1.212678  
     304A      1.216005   305A      1.227366   306A      1.229092  
     307A      1.235614   308A      1.241929   309A      1.243337  
     310A      1.252037   311A      1.255305   312A      1.267713  
     313A      1.272818   314A      1.273301   315A      1.279310  
     316A      1.287460   317A      1.293879   318A      1.306806  
     319A      1.309031   320A      1.316003   321A      1.319214  
     322A      1.337046   323A      1.345969   324A      1.351683  
     325A      1.353215   326A      1.357157   327A      1.365574  
     328A      1.366449   329A      1.376317   330A      1.379592  
     331A      1.383896   332A      1.392505   333A      1.409199  
     334A      1.418489   335A      1.418695   336A      1.430579  
     337A      1.442758   338A      1.446958   339A      1.448536  
     340A      1.452782   341A      1.456592   342A      1.471780  
     343A      1.483770   344A      1.486264   345A      1.501018  
     346A      1.503547   347A      1.506760   348A      1.513116  
     349A      1.522072   350A      1.527432   351A      1.533700  
     352A      1.541378   353A      1.548050   354A      1.548384  
     355A      1.563624   356A      1.569098   357A      1.575761  
     358A      1.578891   359A      1.601740   360A      1.602766  
     361A      1.608414   362A      1.630849   363A      1.638075  
     364A      1.644253   365A      1.644701   366A      1.659973  
     367A      1.667969   368A      1.673007   369A      1.676770  
     370A      1.688870   371A      1.694345   372A      1.708263  
     373A      1.709209   374A      1.718260   375A      1.730086  
     376A      1.733309   377A      1.745993   378A      1.754932  
     379A      1.771985   380A      1.776922   381A      1.778255  
     382A      1.793957   383A      1.794766   384A      1.806140  
     385A      1.814152   386A      1.822338   387A      1.826782  
     388A      1.833013   389A      1.841150   390A      1.848610  
     391A      1.850461   392A      1.864121   393A      1.864928  
     394A      1.877230   395A      1.886389   396A      1.891886  
     397A      1.913516   398A      1.917956   399A      1.923938  
     400A      1.930196   401A      1.939662   402A      1.952313  
     403A      1.962592   404A      1.963594   405A      1.971927  
     406A      1.975921   407A      1.983889   408A      2.000559  
     409A      2.005506   410A      2.011077   411A      2.015863  
     412A      2.023166   413A      2.030989   414A      2.031641  
     415A      2.040349   416A      2.044013   417A      2.050356  
     418A      2.055128   419A      2.068100   420A      2.071953  
     421A      2.075855   422A      2.078027   423A      2.087068  
     424A      2.100459   425A      2.104664   426A      2.109262  
     427A      2.128671   428A      2.131117   429A      2.144444  
     430A      2.146616   431A      2.155118   432A      2.175990  
     433A      2.180044   434A      2.188244   435A      2.197151  
     436A      2.199881   437A      2.201057   438A      2.202896  
     439A      2.226511   440A      2.233448   441A      2.239971  
     442A      2.273666   443A      2.281903   444A      2.297632  
     445A      2.311455   446A      2.321378   447A      2.330312  
     448A      2.338910   449A      2.344600   450A      2.347364  
     451A      2.351191   452A      2.365893   453A      2.375472  
     454A      2.384681   455A      2.398157   456A      2.400176  
     457A      2.408058   458A      2.409902   459A      2.427880  
     460A      2.437490   461A      2.452106   462A      2.464939  
     463A      2.467653   464A      2.474636   465A      2.481889  
     466A      2.505238   467A      2.512078   468A      2.520699  
     469A      2.527587   470A      2.541089   471A      2.550926  
     472A      2.553524   473A      2.556688   474A      2.569570  
     475A      2.571814   476A      2.586109   477A      2.609551  
     478A      2.645813   479A      2.646802   480A      2.654976  
     481A      2.657100   482A      2.676178   483A      2.692690  
     484A      2.693862   485A      2.718172   486A      2.734673  
     487A      2.758102   488A      2.761266   489A      2.776038  
     490A      2.792137   491A      2.804204   492A      2.818418  
     493A      2.845575   494A      2.851974   495A      2.882294  
     496A      2.898691   497A      2.920401   498A      2.927435  
     499A      2.935858   500A      2.979019   501A      2.983676  
     502A      3.008807   503A      3.030492   504A      3.055735  
     505A      3.081555   506A      3.084416   507A      3.120660  
     508A      3.121373   509A      3.124945   510A      3.148286  
     511A      3.180156   512A      3.184943   513A      3.193605  
     514A      3.204341   515A      3.235476   516A      3.241142  
     517A      3.256503   518A      3.278744   519A      3.296286  
     520A      3.315689   521A      3.327866   522A      3.343883  
     523A      3.349309   524A      3.350328   525A      3.373936  
     526A      3.375371   527A      3.377761   528A      3.391057  
     529A      3.396248   530A      3.408788   531A      3.415477  
     532A      3.420459   533A      3.437653   534A      3.453768  
     535A      3.472133   536A      3.490846   537A      3.496346  
     538A      3.514654   539A      3.524651   540A      3.525608  
     541A      3.526949   542A      3.537762   543A      3.541064  
     544A      3.544559   545A      3.553061   546A      3.555387  
     547A      3.567851   548A      3.578290   549A      3.583214  
     550A      3.603671   551A      3.604620   552A      3.620879  
     553A      3.630617   554A      3.632604   555A      3.646073  
     556A      3.660174   557A      3.668530   558A      3.675610  
     559A      3.693768   560A      3.698049   561A      3.705049  
     562A      3.711986   563A      3.713874   564A      3.731976  
     565A      3.740582   566A      3.753491   567A      3.764200  
     568A      3.767025   569A      3.785872   570A      3.792302  
     571A      3.795202   572A      3.808829   573A      3.809412  
     574A      3.824153   575A      3.839002   576A      3.841810  
     577A      3.846503   578A      3.860370   579A      3.871230  
     580A      3.879756   581A      3.897505   582A      3.901100  
     583A      3.902126   584A      3.918360   585A      3.923624  
     586A      3.926334   587A      3.951729   588A      3.957678  
     589A      3.965198   590A      3.968642   591A      3.983831  
     592A      3.989328   593A      3.998896   594A      4.006838  
     595A      4.008399   596A      4.017934   597A      4.022011  
     598A      4.032585   599A      4.033291   600A      4.043825  
     601A      4.063230   602A      4.068087   603A      4.080954  
     604A      4.083786   605A      4.088852   606A      4.109449  
     607A      4.117623   608A      4.136372   609A      4.139454  
     610A      4.159103   611A      4.164947   612A      4.170547  
     613A      4.186046   614A      4.192173   615A      4.199349  
     616A      4.208795   617A      4.221405   618A      4.231883  
     619A      4.236570   620A      4.240376   621A      4.250750  
     622A      4.252952   623A      4.270782   624A      4.272686  
     625A      4.283234   626A      4.303994   627A      4.306194  
     628A      4.322515   629A      4.322964   630A      4.335512  
     631A      4.349084   632A      4.352381   633A      4.356123  
     634A      4.369425   635A      4.375256   636A      4.379799  
     637A      4.381443   638A      4.400682   639A      4.407658  
     640A      4.411235   641A      4.415065   642A      4.436345  
     643A      4.439600   644A      4.439742   645A      4.449281  
     646A      4.463031   647A      4.470899   648A      4.487708  
     649A      4.498974   650A      4.506997   651A      4.514466  
     652A      4.528875   653A      4.536098   654A      4.536965  
     655A      4.552475   656A      4.563358   657A      4.583329  
     658A      4.586846   659A      4.627048   660A      4.632631  
     661A      4.641316   662A      4.668275   663A      4.673175  
     664A      4.696712   665A      4.712429   666A      4.732758  
     667A      4.738390   668A      4.741601   669A      4.772363  
     670A      4.774621   671A      4.777752   672A      4.779394  
     673A      4.790929   674A      4.807485   675A      4.808879  
     676A      4.852831   677A      4.874941   678A      4.888407  
     679A      4.890232   680A      4.899074   681A      4.907479  
     682A      4.915508   683A      4.934331   684A      4.945203  
     685A      4.957587   686A      4.960375   687A      4.964796  
     688A      4.992996   689A      5.027503   690A      5.042953  
     691A      5.046106   692A      5.050388   693A      5.058216  
     694A      5.065834   695A      5.087027   696A      5.088018  
     697A      5.109448   698A      5.115446   699A      5.132395  
     700A      5.136760   701A      5.137668   702A      5.160403  
     703A      5.162483   704A      5.175227   705A      5.178225  
     706A      5.191555   707A      5.205929   708A      5.227918  
     709A      5.234155   710A      5.271644   711A      5.284772  
     712A      5.295441   713A      5.312395   714A      5.327484  
     715A      5.334898   716A      5.340816   717A      5.360036  
     718A      5.381176   719A      5.396367   720A      5.412683  
     721A      5.413057   722A      5.444654   723A      5.447952  
     724A      5.480760   725A      5.499019   726A      5.517692  
     727A      5.524277   728A      5.541241   729A      5.569745  
     730A      5.578841   731A      5.639213   732A      5.647577  
     733A      5.673640   734A      5.692405   735A      5.703940  
     736A      5.728924   737A      5.745609   738A      5.750575  
     739A      5.784671   740A      5.794757   741A      5.818407  
     742A      5.828490   743A      5.843965   744A      5.862344  
     745A      5.904227   746A      5.948455   747A      5.972830  
     748A      5.992231   749A      6.064010   750A      6.116182  
     751A      6.119246   752A      6.142289   753A      6.148140  
     754A      6.187007   755A      6.231102   756A      6.265829  
     757A      6.313395   758A      6.323841   759A      6.402793  
     760A      6.428355   761A      6.472796   762A      6.492961  
     763A      6.526094   764A      6.546526   765A      6.604706  
     766A      6.629912   767A      6.672840   768A      6.708783  
     769A      6.740038   770A      6.772934   771A      6.800030  
     772A      6.862244   773A      6.876317   774A      6.937215  
     775A      6.960686   776A      6.962416   777A      6.978819  
     778A      7.064407   779A      7.111089   780A      7.118275  
     781A      7.186710   782A      7.233746   783A      7.238646  
     784A      7.488510   785A      7.516715   786A      7.594188  
     787A      7.668264   788A      7.807525   789A      7.822107  
     790A      7.902491   791A      8.023781   792A      8.096698  
     793A     15.987445   794A     16.230492   795A     16.402096  
     796A     16.783648   797A     17.186391   798A     18.979339  
     799A     19.206484   800A     19.644037   801A     19.925226  
     802A     20.092390   803A     20.213712   804A     20.650048  
     805A     21.819102  

    Final Occupation by Irrep:
              A 
    DOCC [    45 ]

  Energy converged.

  @DF-RHF Final Energy:  -551.21455541833029

   => Energetics <=

    Nuclear Repulsion Energy =            701.5927472746062676
    One-Electron Energy =               -2139.7332529961536238
    Two-Electron Energy =                 886.9259503032171779
    DFT Exchange-Correlation Energy =       0.0000000000000000
    Empirical Dispersion Energy =           0.0000000000000000
    PCM Polarization Energy =               0.0000000000000000
    EFP Energy =                            0.0000000000000000
    Total Energy =                       -551.2145554183302920



Properties will be evaluated at   0.000000,   0.000000,   0.000000 Bohr

Properties computed using the SCF density matrix

  Nuclear Dipole Moment: (a.u.)
     X:     5.8854      Y:    -3.1298      Z:    -3.6754

  Electronic Dipole Moment: (a.u.)
     X:    -0.1364      Y:     0.0730      Z:     0.0866

  Dipole Moment: (a.u.)
     X:     5.7490      Y:    -3.0568      Z:    -3.5888     Total:     7.4347

  Dipole Moment: (Debye)
     X:    14.6126      Y:    -7.7696      Z:    -9.1219     Total:    18.8971


*** tstop() called on gpu-1-17.local at Sun Nov 12 16:52:15 2017
Module time:
	user time   =    1083.74 seconds =      18.06 minutes
	system time =      51.68 seconds =       0.86 minutes
	total time  =        453 seconds =       7.55 minutes
Total time:
	user time   =    1083.75 seconds =      18.06 minutes
	system time =      51.68 seconds =       0.86 minutes
	total time  =        453 seconds =       7.55 minutes

  //>>>>>>>>>>>>>>>>>>>>>>>>>>>>>>>>>>>//
  //               DFMP2               //
  //<<<<<<<<<<<<<<<<<<<<<<<<<<<<<<<<<<<//

   => Loading Basis Set <=

    Name: (AUG-CC-PVTZ AUX)
    Role: RIFIT
    Keyword: DF_BASIS_MP2
    atoms 1-11  entry C          line   147 file /cbio/jclab/home/chayas/anaconda/envs/py35/share/psi4/basis/aug-cc-pvtz-ri.gbs 
    atoms 12    entry N          line   205 file /cbio/jclab/home/chayas/anaconda/envs/py35/share/psi4/basis/aug-cc-pvtz-ri.gbs 
    atoms 13    entry O          line   263 file /cbio/jclab/home/chayas/anaconda/envs/py35/share/psi4/basis/aug-cc-pvtz-ri.gbs 
    atoms 14-22 entry H          line    29 file /cbio/jclab/home/chayas/anaconda/envs/py35/share/psi4/basis/aug-cc-pvtz-ri.gbs 

	 --------------------------------------------------------
	                          DF-MP2                         
	      2nd-Order Density-Fitted Moller-Plesset Theory     
	              RMP2 Wavefunction,   8 Threads             
	                                                         
	        Rob Parrish, Justin Turney, Andy Simmonett,      
	           Ed Hohenstein, and C. David Sherrill          
	 --------------------------------------------------------

   => Auxiliary Basis Set <=

  Basis Set: (AUG-CC-PVTZ AUX)
    Blend: AUG-CC-PVTZ-RI
    Number of shells: 490
    Number of basis function: 1792
    Number of Cartesian functions: 2263
    Spherical Harmonics?: true
    Max angular momentum: 4

	 --------------------------------------------------------
	                 NBF =   805, NAUX =  1792
	 --------------------------------------------------------
	   CLASS    FOCC     OCC    AOCC    AVIR     VIR    FVIR
	   PAIRS       0      45      45     760     760       0
	 --------------------------------------------------------


         ------------------------------------------------------------
                                     CPHF                           
                                  Rob Parrish                       
         ------------------------------------------------------------

  ==> Geometry <==

    Molecular point group: c1
    Full point group: C1

    Geometry (in Angstrom), charge = 0, multiplicity = 1:

       Center              X                  Y                   Z               Mass       
    ------------   -----------------  -----------------  -----------------  -----------------
           C         -1.297150842343     0.734142128637    -0.557354790324    12.000000000000
           C         -0.304150842343     0.118142128637     1.556645209676    12.000000000000
           C         -2.375150842343     1.307142128637     0.115645209676    12.000000000000
           C         -1.382150842343     0.691142128637     2.230645209676    12.000000000000
           C          0.676849157657    -1.003857871363    -1.801354790324    12.000000000000
           C          2.115849157657    -0.480857871363     0.057645209676    12.000000000000
           C          1.767849157657    -1.567857871363    -2.447354790324    12.000000000000
           C          3.170849157657    -1.058857871363    -0.635354790324    12.000000000000
           C         -0.261150842343     0.139142128637     0.162645209676    12.000000000000
           C          0.857849157657    -0.455857871363    -0.535354790324    12.000000000000
           C         -2.418150842343     1.286142128637     1.509645209676    12.000000000000
           N          2.967849157657    -1.578857871363    -1.853354790324    14.003074004780
           O         -3.409150842343     1.812142128637     2.128645209676    15.994914619560
           H         -1.278150842343     0.759142128637    -1.644354790324     1.007825032070
           H          0.495849157657    -0.341857871363     2.131645209676     1.007825032070
           H         -3.171150842343     1.764142128637    -0.470354790324     1.007825032070
           H         -1.391150842343     0.662142128637     3.318645209676     1.007825032070
           H         -0.294150842343    -0.996857871363    -2.289354790324     1.007825032070
           H          2.285849157657    -0.061857871363     1.045645209676     1.007825032070
           H          1.720849157657    -2.014857871363    -3.431354790324     1.007825032070
           H          4.179849157657    -1.122857871363    -0.252354790324     1.007825032070
           H          3.756849157657    -1.999857871363    -2.345354790324     1.007825032070

  Nuclear repulsion =  701.592747274606268
  Reference energy  = -551.214555418330292

  ==> Basis Set <==

  Basis Set: AUG-CC-PVTZ
    Blend: AUG-CC-PVTZ
    Number of shells: 263
    Number of basis function: 805
    Number of Cartesian functions: 940
    Spherical Harmonics?: true
    Max angular momentum: 3

  ==> CGRSolver (by Rob Parrish) <==

   Number of roots    =         1
   Preconditioning    =    JACOBI
   Convergence cutoff =     1E-06
   Maximum iterations =       100

  ==> CPHFRHamiltonian (by Rob Parrish) <== 

  ==> DFJK: Density-Fitted J/K Matrices <==

    J tasked:                  Yes
    K tasked:                  Yes
    wK tasked:                  No
    OpenMP threads:              8
    Integrals threads:           8
    Memory (MB):              3576
    Algorithm:                Disk
    Integral Cache:           NONE
    Schwarz Cutoff:          1E-12
    Fitting Condition:       1E-12

   => Auxiliary Basis Set <=

  Basis Set: (AUG-CC-PVTZ AUX)
    Blend: AUG-CC-PVTZ-JKFIT
    Number of shells: 516
    Number of basis function: 1766
    Number of Cartesian functions: 2198
    Spherical Harmonics?: true
    Max angular momentum: 4

  ==> CPHF Iterations <==

  => Iterations <=

             Iter  Converged  Remaining    Residual
  CGR           1          0          1   1.617E-01
  CGR           2          0          1   6.472E-02
  CGR           3          0          1   3.177E-02
  CGR           4          0          1   9.426E-03
  CGR           5          0          1   3.304E-03
  CGR           6          0          1   1.172E-03
  CGR           7          0          1   4.316E-04
  CGR           8          0          1   1.818E-04
  CGR           9          0          1   7.152E-05
  CGR          10          0          1   3.298E-05
  CGR          11          0          1   1.666E-05
  CGR          12          0          1   4.860E-06
  CGR          13          0          1   2.076E-06
  CGR          14          1          0   6.788E-07

    CGRSolver converged.

  ==> DFCorrGrad: Density-Fitted Correlated Gradients <==

    OpenMP threads:              8
    Integrals threads:           8
    Memory (MB):              3576
    Schwarz Cutoff:          0E+00
    Fitting Condition:       1E-12

   => Auxiliary Basis Set <=

  Basis Set: (AUG-CC-PVTZ AUX)
    Blend: AUG-CC-PVTZ-JKFIT
    Number of shells: 516
    Number of basis function: 1766
    Number of Cartesian functions: 2198
    Spherical Harmonics?: true
    Max angular momentum: 4

	-----------------------------------------------------------
	 ==================> DF-MP2 Energies <==================== 
	-----------------------------------------------------------
	 Reference Energy          =    -551.2145554183302920 [Eh]
	 Singles Energy            =      -0.0000000000000004 [Eh]
	 Same-Spin Energy          =      -0.6065690226692794 [Eh]
	 Opposite-Spin Energy      =      -1.8399082372314066 [Eh]
	 Correlation Energy        =      -2.4464772599006865 [Eh]
	 Total Energy              =    -553.6610326782309812 [Eh]
	-----------------------------------------------------------
	 ================> DF-SCS-MP2 Energies <================== 
	-----------------------------------------------------------
	 SCS Same-Spin Scale       =       0.3333333333333333 [-]
	 SCS Opposite-Spin Scale   =       1.2000000000000000 [-]
	 SCS Same-Spin Energy      =      -0.2021896742230931 [Eh]
	 SCS Opposite-Spin Energy  =      -2.2078898846776878 [Eh]
	 SCS Correlation Energy    =      -2.4100795589007813 [Eh]
	 SCS Total Energy          =    -553.6246349772310396 [Eh]
	-----------------------------------------------------------


  -Total Gradient:
     Atom            X                  Y                   Z
    ------   -----------------  -----------------  -----------------
       1        0.037853747973    -0.009968148894    -0.002978295261
       2        0.016347736888    -0.018828128725    -0.030900004703
       3       -0.028131612192     0.013841302642     0.053885376767
       4       -0.054586018442     0.029983710139    -0.001333615855
       5       -0.024906695707     0.013665596792     0.033637424773
       6       -0.039245618935     0.020403312287     0.006100923241
       7        0.034852305597    -0.008203989823     0.004994487449
       8        0.009498071037    -0.014915353356    -0.031349632556
       9       -0.040386288046     0.021392638285     0.025090894680
      10        0.053533958353    -0.028317427775    -0.032957160377
      11        0.065970816700    -0.034874845262    -0.041736552669
      12       -0.022979099798     0.011868018202     0.013397322695
      13       -0.020282561563     0.010704920035     0.012747209040
      14       -0.001184666564    -0.001094173858    -0.004660174118
      15        0.003919343272    -0.000323569793     0.002823651953
      16       -0.003324939197     0.000534769405    -0.009049462450
      17        0.005745123028    -0.001806358306     0.007188488467
      18       -0.006585075650     0.002028890571    -0.003432509749
      19       -0.000038715120     0.001400839477     0.007429675366
      20        0.001758839771    -0.000775440994    -0.003076894491
      21        0.002733403381    -0.001686839018    -0.000030127436
      22        0.009437945202    -0.005029722031    -0.005791024764


*** tstop() called on gpu-1-17.local at Sun Nov 12 17:24:19 2017
Module time:
	user time   =    5183.85 seconds =      86.40 minutes
	system time =     110.84 seconds =       1.85 minutes
	total time  =       2377 seconds =      39.62 minutes
Total time:
	user time   =    5183.86 seconds =      86.40 minutes
	system time =     110.84 seconds =       1.85 minutes
	total time  =       2377 seconds =      39.62 minutes

			-----------------------------------------
			 OPTKING 2.0: for geometry optimizations 
			  - R.A. King,  Bethel University        
			-----------------------------------------

	Internal coordinates to be generated automatically.
	Detected frag 1 with atoms:  1 2 3 4 5 6 7 8 9 10 11 12 13 14 15 16 17 18 19 20
	 21 22
	---Fragment 1 Bond Connectivity---
	 1 : 3 9 14
	 2 : 4 9 15
	 3 : 1 11 16
	 4 : 2 11 17
	 5 : 7 10 18
	 6 : 8 10 19
	 7 : 5 12 20
	 8 : 6 12 21
	 9 : 1 2 10
	 10 : 5 6 9
	 11 : 3 4 13
	 12 : 7 8 22
	 13 : 11
	 14 : 1
	 15 : 2
	 16 : 3
	 17 : 4
	 18 : 5
	 19 : 6
	 20 : 7
	 21 : 8
	 22 : 12

	Assuming in current code that numbering for constraints corresponds to unified fragment.
	Fixed dihedral atom list: 
	     1     9    10     5
	---Fragment 1 Geometry and Gradient---
	 C          -2.4512598451        1.3873275657       -1.0532479126
	 C          -0.5747617951        0.2232562679        2.9416331324
	 C          -4.4883846163        2.4701406399        0.2185377749
	 C          -2.6118865664        1.3060693420        4.2153085459
	 C           1.2790595412       -1.8970164532       -3.4040672219
	 C           3.9983754465       -0.9086896857        0.1089336592
	 C           3.3407507522       -2.9628219922       -4.6248303037
	 C           5.9920365167       -2.0009513905       -1.2006465509
	 C          -0.4935035714        0.2629405167        0.3073549031
	 C           1.6210999713       -0.8614465324       -1.0116739376
	 C          -4.5696428400        2.4304563911        2.8528160041
	 N           5.6084221117       -2.9836089796       -3.5023329808
	 O          -6.4423614377        3.4244523370        4.0225564804
	 H          -2.4153550485        1.4345707191       -3.1073802190
	 H           0.9370191112       -0.6460177532        4.0282256588
	 H          -5.9926066181        3.3337454826       -0.8888417390
	 H          -2.6288941016        1.2512672842        6.2713305785
	 H          -0.5558645338       -1.8837883703       -4.3262535747
	 H           4.3196288891       -0.1168944360        1.9759830785
	 H           3.2519336240       -3.8075295736       -6.4843208185
	 H           7.8987701847       -2.1218938630       -0.4768814420
	 H           7.0994160305       -3.7791836816       -4.4320782382
	             0.0378537480       -0.0099681489       -0.0029782953
	             0.0163477369       -0.0188281287       -0.0309000047
	            -0.0281316122        0.0138413026        0.0538853768
	            -0.0545860184        0.0299837101       -0.0013336159
	            -0.0249066957        0.0136655968        0.0336374248
	            -0.0392456189        0.0204033123        0.0061009232
	             0.0348523056       -0.0082039898        0.0049944874
	             0.0094980710       -0.0149153534       -0.0313496326
	            -0.0403862880        0.0213926383        0.0250908947
	             0.0535339584       -0.0283174278       -0.0329571604
	             0.0659708167       -0.0348748453       -0.0417365527
	            -0.0229790998        0.0118680182        0.0133973227
	            -0.0202825616        0.0107049200        0.0127472090
	            -0.0011846666       -0.0010941739       -0.0046601741
	             0.0039193433       -0.0003235698        0.0028236520
	            -0.0033249392        0.0005347694       -0.0090494625
	             0.0057451230       -0.0018063583        0.0071884885
	            -0.0065850757        0.0020288906       -0.0034325097
	            -0.0000387151        0.0014008395        0.0074296754
	             0.0017588398       -0.0007754410       -0.0030768945
	             0.0027334034       -0.0016868390       -0.0000301274
	             0.0094379452       -0.0050297220       -0.0057910248

	Previous optimization step data not found.  Starting new optimization.

	---Fragment 1 Intrafragment Coordinates---
	 - Coordinate -           - BOHR/RAD -       - ANG/DEG -
	 R(1,3)           =         2.634350	       1.394038
	 R(1,9)           =         2.635962	       1.394891
	 R(1,14)          =         2.054989	       1.087453
	 R(2,4)           =         2.635263	       1.394521
	 R(2,9)           =         2.635830	       1.394821
	 R(2,15)          =         2.054702	       1.087302
	 R(3,11)          =         2.635830	       1.394821
	 R(3,16)          =         2.057860	       1.088972
	 R(4,11)          =         2.636938	       1.395407
	 R(4,17)          =         2.056823	       1.088424
	 R(5,7)           =         2.622361	       1.387693
	 R(5,10)          =         2.629247	       1.391338
	 R(5,18)          =         2.053667	       1.086754
	 R(6,8)           =         2.623494	       1.388293
	 R(6,10)          =         2.628580	       1.390985
	 R(6,19)          =         2.053294	       1.086556
	 R(7,12)          =         2.530369	       1.339013
	 R(7,20)          =         2.044291	       1.081792
	 R(8,12)          =         2.531904	       1.339826
	 R(8,21)          =         2.043061	       1.081141
	 R(9,10)          =         2.734160	       1.446855
	 R(11,13)         =         2.421445	       1.281373
	 R(12,22)         =         1.928841	       1.020699
	 B(1,3,11)        =         2.094553	     120.009056
	 B(1,3,16)        =         2.069123	     118.552025
	 B(1,9,2)         =         2.093692	     119.959722
	 B(1,9,10)        =         2.095337	     120.053983
	 B(2,4,11)        =         2.093699	     119.960108
	 B(2,4,17)        =         2.069829	     118.592446
	 B(2,9,10)        =         2.094156	     119.986294
	 B(3,1,9)         =         2.094940	     120.031219
	 B(3,1,14)        =         2.079025	     119.119344
	 B(3,11,4)        =         2.094306	     119.994870
	 B(3,11,13)       =         2.094918	     120.029973
	 B(4,2,9)         =         2.095181	     120.045019
	 B(4,2,15)        =         2.079455	     119.143974
	 B(4,11,13)       =         2.093961	     119.975136
	 B(5,7,12)        =         2.096018	     120.092971
	 B(5,7,20)        =         2.161829	     123.863702
	 B(5,10,6)        =         2.092649	     119.899932
	 B(5,10,9)        =         2.094772	     120.021588
	 B(6,8,12)        =         2.094664	     120.015421
	 B(6,8,21)        =         2.161601	     123.850602
	 B(6,10,9)        =         2.095765	     120.078480
	 B(7,5,10)        =         2.073032	     118.775990
	 B(7,5,18)        =         2.089823	     119.738020
	 B(7,12,8)        =         2.136332	     122.402829
	 B(7,12,22)       =         2.074083	     118.836177
	 B(8,6,10)        =         2.073675	     118.812839
	 B(8,6,19)        =         2.089264	     119.705987
	 B(8,12,22)       =         2.072769	     118.760931
	 B(9,1,14)        =         2.109221	     120.849435
	 B(9,2,15)        =         2.108550	     120.811005
	 B(10,5,18)       =         2.120329	     121.485928
	 B(10,6,19)       =         2.120244	     121.481035
	 B(11,3,16)       =         2.119509	     121.438903
	 B(11,4,17)       =         2.119657	     121.447411
	 B(12,7,20)       =         2.025337	     116.043288
	 B(12,8,21)       =         2.026920	     116.133975
	 D(1,3,11,4)      =        -0.000325	      -0.018609
	 D(1,3,11,13)     =        -3.141004	    -179.966279
	 D(1,9,2,4)       =         0.000325	       0.018608
	 D(1,9,2,15)      =        -3.141527	    -179.996257
	 D(1,9,10,5)      =        -0.524049	     -30.025781
	 D(1,9,10,6)      =         2.617377	     149.964634
	 D(2,4,11,3)      =         0.000301	       0.017261
	 D(2,4,11,13)     =         3.140981	     179.964960
	 D(2,9,1,3)       =        -0.000348	      -0.019945
	 D(2,9,1,14)      =         3.141027	     179.967567
	 D(2,9,10,5)      =         2.617761	     149.986659
	 D(2,9,10,6)      =        -0.523999	     -30.022926
	 D(3,1,9,10)      =         3.141462	     179.992491
	 D(3,11,4,17)     =         3.140700	     179.948827
	 D(4,2,9,10)      =        -3.141485	    -179.993820
	 D(4,11,3,16)     =         3.140472	     179.935781
	 D(5,7,12,8)      =         0.000100	       0.005744
	 D(5,7,12,22)     =         3.140080	     179.913325
	 D(5,10,6,8)      =        -0.000683	      -0.039131
	 D(5,10,6,19)     =        -3.139908	    -179.903473
	 D(6,8,12,7)      =        -0.000618	      -0.035420
	 D(6,8,12,22)     =        -3.140599	    -179.943068
	 D(6,10,5,7)      =         0.000184	       0.010537
	 D(6,10,5,18)     =        -3.139822	    -179.898572
	 D(7,5,10,9)      =        -3.141576	    -179.999031
	 D(7,12,8,21)     =         3.141257	     179.980752
	 D(8,6,10,9)      =         3.141077	     179.970443
	 D(8,12,7,20)     =         3.140485	     179.936519
	 D(9,1,3,11)      =         0.000348	       0.019955
	 D(9,1,3,16)      =        -3.140471	    -179.935743
	 D(9,2,4,11)      =        -0.000301	      -0.017270
	 D(9,2,4,17)      =        -3.140734	    -179.950778
	 D(9,10,5,18)     =         0.001603	       0.091860
	 D(9,10,6,19)     =         0.001852	       0.106100
	 D(10,5,7,12)     =         0.000118	       0.006772
	 D(10,5,7,20)     =        -3.140167	    -179.918325
	 D(10,6,8,12)     =         0.000898	       0.051475
	 D(10,6,8,21)     =        -3.140999	    -179.966008
	 D(10,9,1,14)     =        -0.000349	      -0.019997
	 D(10,9,2,15)     =        -0.000152	      -0.008685
	 D(11,3,1,14)     =        -3.141030	    -179.967773
	 D(11,4,2,15)     =         3.141546	     179.997347
	 D(12,7,5,18)     =         3.140153	     179.917507
	 D(12,8,6,19)     =         3.140166	     179.918280
	 D(13,11,3,16)    =        -0.000207	      -0.011889
	 D(13,11,4,17)    =        -0.001806	      -0.103475
	 D(14,1,3,16)     =         0.001336	       0.076530
	 D(15,2,4,17)     =         0.001114	       0.063839
	 D(18,5,7,20)     =        -0.000132	      -0.007590
	 D(19,6,8,21)     =        -0.001731	      -0.099202
	 D(20,7,12,22)    =        -0.002721	      -0.155900
	 D(21,8,12,22)    =         0.001276	       0.073105

	Current energy   :      -553.6610326782

	Generating empirical Hessian (Schlegel '84) for each fragment.
	Adding user-defined constraint: Fragment 1; Coordinate 64:
		Value =    -0.524049; Fixed value    =    -0.523599
		Force =     0.000225; Force constant =     0.500000
	Removing off-diagonal coupling between coordinate 64 and others.
	Taking RFO optimization step.
	Going to follow RFO solution 1.
	Using RFO vector 1.

	Determining step-restricting scale parameter for RS-RFO.
	Maximum step size allowed    0.10000

	 Iter      |step|        alpha        rfo_root  
	------------------------------------------------
	    0     0.30375       1.00000           1
	    1     0.22313       3.68120           1
	    2     0.16446      12.60202           1
	    3     0.12557      30.26753           1
	    4     0.10637      48.61789           1
	    5     0.10057      56.62762           1
	    6     0.10001      57.49115           1
	------------------------------------------------
	Norm of target step-size    0.10001
	Projected energy change by RFO approximation:        -0.0096984285

	Back-transformation to cartesian coordinates...
	Could not converge backtransformation.
	Using first guess instead.

	--- Internal Coordinate Step in ANG or DEG, aJ/ANG or AJ/DEG ---
	 ---------------------------------------------------------------------------
	   Coordinate                Previous        Force       Change         New 
	   ----------                --------       ------       ------       ------
	    1 R(1,3)          =      1.394038    -0.183023    -0.011444     1.382594
	    2 R(1,9)          =      1.394891     0.149507     0.009241     1.404132
	    3 R(1,14)         =      1.087453    -0.038000    -0.002677     1.084776
	    4 R(2,4)          =      1.394521    -0.186033    -0.011649     1.382872
	    5 R(2,9)          =      1.394821     0.150621     0.009308     1.404129
	    6 R(2,15)         =      1.087302    -0.037188    -0.002619     1.084682
	    7 R(3,11)         =      1.394821     0.273510     0.017345     1.412166
	    8 R(3,16)         =      1.088972    -0.061993    -0.004373     1.084599
	    9 R(4,11)         =      1.395407     0.270077     0.017149     1.412557
	   10 R(4,17)         =      1.088424    -0.059206    -0.004174     1.084249
	   11 R(5,7)          =      1.387693    -0.186820    -0.011557     1.376137
	   12 R(5,10)         =      1.391338     0.190021     0.011870     1.403208
	   13 R(5,18)         =      1.086754    -0.061280    -0.004301     1.082453
	   14 R(6,8)          =      1.388293    -0.190367    -0.011799     1.376495
	   15 R(6,10)         =      1.390985     0.191916     0.011973     1.402958
	   16 R(6,19)         =      1.086556    -0.060059    -0.004215     1.082341
	   17 R(7,12)         =      1.339013     0.148382     0.008433     1.347447
	   18 R(7,20)         =      1.081792    -0.025068    -0.001746     1.080046
	   19 R(8,12)         =      1.339826     0.142778     0.008126     1.347951
	   20 R(8,21)         =      1.081141    -0.021752    -0.001511     1.079630
	   21 R(9,10)         =      1.446855    -0.191497    -0.012988     1.433867
	   22 R(11,13)        =      1.281373    -0.216172    -0.010790     1.270583
	   23 R(12,22)        =      1.020699    -0.100195    -0.006419     1.014280
	   24 B(1,3,11)       =    120.009056     0.000459     0.446333   120.455390
	   25 B(1,3,16)       =    118.552025     0.000232     0.256465   118.808490
	   26 B(1,9,2)        =    119.959722    -0.000424    -0.440208   119.519514
	   27 B(1,9,10)       =    120.053983     0.000202     0.210733   120.264717
	   28 B(2,4,11)       =    119.960108     0.000473     0.458059   120.418168
	   29 B(2,4,17)       =    118.592446     0.000222     0.247912   118.840358
	   30 B(2,9,10)       =    119.986294     0.000222     0.229389   120.215682
	   31 B(3,1,9)        =    120.031219     0.000373     0.328811   120.360030
	   32 B(3,1,14)       =    119.119344    -0.000145    -0.122579   118.996765
	   33 B(3,11,4)       =    119.994870    -0.001256    -1.123018   118.871853
	   34 B(3,11,13)      =    120.029973     0.000620     0.554471   120.584444
	   35 B(4,2,9)        =    120.045019     0.000375     0.329850   120.374869
	   36 B(4,2,15)       =    119.143974    -0.000152    -0.128817   119.015157
	   37 B(4,11,13)      =    119.975136     0.000636     0.568558   120.543694
	   38 B(5,7,12)       =    120.092971    -0.000054    -0.054691   120.038280
	   39 B(5,7,20)       =    123.863702    -0.000107    -0.113294   123.750408
	   40 B(5,10,6)       =    119.899932    -0.001114    -1.041282   118.858650
	   41 B(5,10,9)       =    120.021588     0.000564     0.526826   120.548414
	   42 B(6,8,12)       =    120.015421    -0.000030    -0.033801   119.981620
	   43 B(6,8,21)       =    123.850602    -0.000109    -0.112754   123.737849
	   44 B(6,10,9)       =    120.078480     0.000551     0.514400   120.592880
	   45 B(7,5,10)       =    118.775990     0.000662     0.624909   119.400899
	   46 B(7,5,18)       =    119.738020    -0.000395    -0.383545   119.354475
	   47 B(7,12,8)       =    122.402829    -0.000123    -0.116090   122.286739
	   48 B(7,12,22)      =    118.836177     0.000056     0.052610   118.888787
	   49 B(8,6,10)       =    118.812839     0.000660     0.620953   119.433792
	   50 B(8,6,19)       =    119.705987    -0.000394    -0.381023   119.324965
	   51 B(8,12,22)      =    118.760931     0.000067     0.063465   118.824396
	   52 B(9,1,14)       =    120.849435    -0.000228    -0.206446   120.642989
	   53 B(9,2,15)       =    120.811005    -0.000223    -0.201285   120.609720
	   54 B(10,5,18)      =    121.485928    -0.000266    -0.241302   121.244626
	   55 B(10,6,19)      =    121.481035    -0.000266    -0.239800   121.241235
	   56 B(11,3,16)      =    121.438903    -0.000691    -0.702789   120.736115
	   57 B(11,4,17)      =    121.447411    -0.000695    -0.705963   120.741449
	   58 B(12,7,20)      =    116.043288     0.000162     0.168024   116.211312
	   59 B(12,8,21)      =    116.133975     0.000139     0.146515   116.280490
	   60 D(1,3,11,4)     =     -0.018609     0.000012     0.069245     0.050636
	   61 D(1,3,11,13)    =   -179.966279     0.000009     0.052785  -179.913493
	   62 D(1,9,2,4)      =      0.018608     0.000016     0.101707     0.120314
	   63 D(1,9,2,15)     =   -179.996257    -0.000014    -0.068269  -180.064526
	   64 D(1,9,10,5)     =    -30.025781     0.000050     0.212041   -29.813740
	   65 D(1,9,10,6)     =    149.964634     0.000062     0.308913   150.273547
	   66 D(2,4,11,3)     =      0.017261     0.000009     0.046685     0.063947
	   67 D(2,4,11,13)    =    179.964960     0.000011     0.063131   180.028091
	   68 D(2,9,1,3)      =     -0.019945     0.000005     0.014434    -0.005511
	   69 D(2,9,1,14)     =    179.967567    -0.000024    -0.143899   179.823668
	   70 D(2,9,10,5)     =    149.986659     0.000062     0.307643   150.294302
	   71 D(2,9,10,6)     =    -30.022926     0.000074     0.404515   -29.618411
	   72 D(3,1,9,10)     =    179.992491     0.000016     0.109288   180.101779
	   73 D(3,11,4,17)    =    179.948827     0.000011     0.055479   180.004305
	   74 D(4,2,9,10)     =   -179.993820     0.000004     0.006898  -179.986922
	   75 D(4,11,3,16)    =    179.935781     0.000015     0.088054   180.023835
	   76 D(5,7,12,8)     =      0.005744     0.000001     0.006564     0.012308
	   77 D(5,7,12,22)    =    179.913325    -0.000001    -0.003538   179.909788
	   78 D(5,10,6,8)     =     -0.039131     0.000005     0.043348     0.004218
	   79 D(5,10,6,19)    =   -179.903473    -0.000012    -0.058432  -179.961905
	   80 D(6,8,12,7)     =     -0.035420    -0.000001    -0.008531    -0.043951
	   81 D(6,8,12,22)    =   -179.943068     0.000000     0.001574  -179.941494
	   82 D(6,10,5,7)     =      0.010537    -0.000006    -0.045499    -0.034962
	   83 D(6,10,5,18)    =   -179.898572    -0.000022    -0.134234  -180.032805
	   84 D(7,5,10,9)     =   -179.999031     0.000006     0.049860  -179.949171
	   85 D(7,12,8,21)    =    179.980752     0.000009     0.046941   180.027693
	   86 D(8,6,10,9)     =    179.970443    -0.000007    -0.052055   179.918387
	   87 D(8,12,7,20)    =    179.936519     0.000013     0.077653   180.014172
	   88 D(9,1,3,11)     =      0.019955    -0.000018    -0.099243    -0.079288
	   89 D(9,1,3,16)     =   -179.935743    -0.000021    -0.117256  -180.052999
	   90 D(9,2,4,11)     =     -0.017270    -0.000022    -0.132137    -0.149407
	   91 D(9,2,4,17)     =   -179.950778    -0.000024    -0.140110  -180.090888
	   92 D(9,10,5,18)    =      0.091860    -0.000010    -0.038875     0.052986
	   93 D(9,10,6,19)    =      0.106100    -0.000024    -0.153835    -0.047735
	   94 D(10,5,7,12)    =      0.006772     0.000003     0.020691     0.027463
	   95 D(10,5,7,20)    =   -179.918325    -0.000011    -0.056223  -179.974548
	   96 D(10,6,8,12)    =      0.051475    -0.000002    -0.016792     0.034683
	   97 D(10,6,8,21)    =   -179.966008    -0.000013    -0.076558  -180.042565
	   98 D(10,9,1,14)    =     -0.019997    -0.000012    -0.049045    -0.069042
	   99 D(10,9,2,15)    =     -0.008685    -0.000026    -0.163079    -0.171763
	  100 D(11,3,1,14)    =   -179.967773     0.000010     0.056515  -179.911257
	  101 D(11,4,2,15)    =    179.997347     0.000007     0.035162   180.032509
	  102 D(12,7,5,18)    =    179.917507     0.000019     0.107841   180.025348
	  103 D(12,8,6,19)    =    179.918280     0.000016     0.083181   180.001461
	  104 D(13,11,3,16)   =     -0.011889     0.000013     0.071595     0.059706
	  105 D(13,11,4,17)   =     -0.103475     0.000013     0.071924    -0.031551
	  106 D(14,1,3,16)    =      0.076530     0.000006     0.038503     0.115032
	  107 D(15,2,4,17)    =      0.063839     0.000005     0.027189     0.091028
	  108 D(18,5,7,20)    =     -0.007590     0.000005     0.030927     0.023336
	  109 D(19,6,8,21)    =     -0.099202     0.000004     0.023415    -0.075787
	  110 D(20,7,12,22)   =     -0.155900     0.000012     0.067552    -0.088348
	  111 D(21,8,12,22)   =      0.073105     0.000010     0.057045     0.130150
	 ---------------------------------------------------------------------------
	Successfully symmetrized geometry.
	 Forces used to impose fixed constraints are not included.
	  Forces zeroed: 64 

  ==> Convergence Check <==

  Measures of convergence in internal coordinates in au.
  Criteria marked as inactive (o), active & met (*), and active & unmet ( ).
  --------------------------------------------------------------------------------------------- ~
   Step     Total Energy     Delta E     MAX Force     RMS Force      MAX Disp      RMS Disp    ~
  --------------------------------------------------------------------------------------------- ~
    Convergence Criteria    1.00e-06 *    3.00e-04 *             o    1.20e-03 *             o  ~
  --------------------------------------------------------------------------------------------- ~
      1    -553.66103268   -5.54e+02      3.32e-02      9.33e-03 o    3.28e-02      9.49e-03 o  ~
  ---------------------------------------------------------------------------------------------

	Writing optimization data to binary file.
	Structure for next step:
	Cartesian Geometry (in Angstrom)
	    C    -1.3052201266   0.7344953905  -0.5597007019
	    C    -0.3042347260   0.1218779362   1.5636858678
	    C    -2.3747244718   1.3046090411   0.1056536386
	    C    -1.3725710291   0.6884610838   2.2344876929
	    C     0.6815014447  -1.0055107735  -1.8098438827
	    C     2.1235529276  -0.4859193745   0.0578089088
	    C     1.7620919258  -1.5654155953  -2.4521704669
	    C     3.1712238952  -1.0584615661  -0.6272593709
	    C    -0.2583424037   0.1369104154   0.1603876932
	    C     0.8509029244  -0.4518179510  -0.5316730384
	    C    -2.4289747015   1.2918995833   1.5167203340
	    N     2.9693884091  -1.5794525388  -1.8539637173
	    O    -3.4114534214   1.8136545547   2.1306335708
	    H    -1.2870054599   0.7588959325  -1.6440492436
	    H     0.4943291090  -0.3358694729   2.1375314773
	    H    -3.1691456605   1.7600912333  -0.4755406027
	    H    -1.3832766001   0.6615659733   3.3183506286
	    H    -0.2833595014  -1.0005985976  -2.3004807519
	    H     2.2975829605  -0.0707848619   1.0421055714
	    H     1.7115651685  -2.0100517681  -3.4351478731
	    H     4.1772954206  -1.1216247667  -0.2406963109
	    H     3.7535553850  -1.9978270478  -2.3426448103
			--------------------------
			 OPTKING Finished Execution 
			--------------------------

    Structure for next step:
    Molecular point group: c1
    Full point group: C1

    Geometry (in Angstrom), charge = 0, multiplicity = 1:

    C           -1.304741114596     0.734243260594    -0.559957113896
    C           -0.303755714008     0.121625806230     1.563429455856
    C           -2.374245459759     1.304356911162     0.105397226616
    C           -1.372092017071     0.688208953843     2.234231280904
    C            0.681980456674    -1.005762903458    -1.810100294732
    C            2.124031939550    -0.486171504400     0.057552496835
    C            1.762570937792    -1.565667725251    -2.452426878869
    C            3.171702907149    -1.058713696062    -0.627515782922
    C           -0.257863391662     0.136658285487     0.160131281184
    C            0.851381936371    -0.452070080909    -0.531929450422
    C           -2.428495689467     1.291647453348     1.516463922005
    N            2.969867421115    -1.579704668749    -1.854220129272
    O           -3.410974409377     1.813402424809     2.130377158848
    H           -1.286526447877     0.758643802579    -1.644305655627
    H            0.494808120994    -0.336121602849     2.137275065338
    H           -3.168666648479     1.759839103347    -0.475797014717
    H           -1.382797588133     0.661313843382     3.318094216616
    H           -0.282880489447    -1.000850727487    -2.300737163858
    H            2.298061972545    -0.071036991799     1.041849159381
    H            1.712044180480    -2.010303898045    -3.435404285104
    H            4.177774432613    -1.121876896638    -0.240952722851
    H            3.754034396953    -1.998079177690    -2.342901222262

gradient() will perform analytic gradient computation.

*** tstart() called on gpu-1-17.local
*** at Sun Nov 12 17:24:21 2017

    SCF Algorithm Type (re)set to DF.

*** tstart() called on gpu-1-17.local
*** at Sun Nov 12 17:24:21 2017

   => Loading Basis Set <=

    Name: AUG-CC-PVTZ
    Role: ORBITAL
    Keyword: BASIS
    atoms 1-11  entry C          line   221 file /cbio/jclab/home/chayas/anaconda/envs/py35/share/psi4/basis/aug-cc-pvtz.gbs 
    atoms 12    entry N          line   267 file /cbio/jclab/home/chayas/anaconda/envs/py35/share/psi4/basis/aug-cc-pvtz.gbs 
    atoms 13    entry O          line   313 file /cbio/jclab/home/chayas/anaconda/envs/py35/share/psi4/basis/aug-cc-pvtz.gbs 
    atoms 14-22 entry H          line    34 file /cbio/jclab/home/chayas/anaconda/envs/py35/share/psi4/basis/aug-cc-pvtz.gbs 


         ---------------------------------------------------------
                                   SCF
            by Justin Turney, Rob Parrish, and Andy Simmonett
                              RHF Reference
                        8 Threads,   4768 MiB Core
         ---------------------------------------------------------

  ==> Geometry <==

    Molecular point group: c1
    Full point group: C1

    Geometry (in Angstrom), charge = 0, multiplicity = 1:

       Center              X                  Y                   Z               Mass       
    ------------   -----------------  -----------------  -----------------  -----------------
           C         -1.304741114596     0.734243260594    -0.559957113896    12.000000000000
           C         -0.303755714008     0.121625806230     1.563429455856    12.000000000000
           C         -2.374245459759     1.304356911162     0.105397226616    12.000000000000
           C         -1.372092017071     0.688208953843     2.234231280904    12.000000000000
           C          0.681980456674    -1.005762903458    -1.810100294732    12.000000000000
           C          2.124031939550    -0.486171504400     0.057552496835    12.000000000000
           C          1.762570937792    -1.565667725251    -2.452426878869    12.000000000000
           C          3.171702907149    -1.058713696062    -0.627515782922    12.000000000000
           C         -0.257863391662     0.136658285487     0.160131281184    12.000000000000
           C          0.851381936371    -0.452070080909    -0.531929450422    12.000000000000
           C         -2.428495689467     1.291647453348     1.516463922005    12.000000000000
           N          2.969867421115    -1.579704668749    -1.854220129272    14.003074004780
           O         -3.410974409377     1.813402424809     2.130377158848    15.994914619560
           H         -1.286526447877     0.758643802579    -1.644305655627     1.007825032070
           H          0.494808120994    -0.336121602849     2.137275065338     1.007825032070
           H         -3.168666648479     1.759839103347    -0.475797014717     1.007825032070
           H         -1.382797588133     0.661313843382     3.318094216616     1.007825032070
           H         -0.282880489447    -1.000850727487    -2.300737163858     1.007825032070
           H          2.298061972545    -0.071036991799     1.041849159381     1.007825032070
           H          1.712044180480    -2.010303898045    -3.435404285104     1.007825032070
           H          4.177774432613    -1.121876896638    -0.240952722851     1.007825032070
           H          3.754034396953    -1.998079177690    -2.342901222262     1.007825032070

  Running in c1 symmetry.

  Rotational constants: A =      0.09568  B =      0.01372  C =      0.01220 [cm^-1]
  Rotational constants: A =   2868.56094  B =    411.43115  C =    365.86673 [MHz]
  Nuclear repulsion =  700.744649891059794

  Charge       = 0
  Multiplicity = 1
  Electrons    = 90
  Nalpha       = 45
  Nbeta        = 45

  ==> Algorithm <==

  SCF Algorithm Type is DF.
  DIIS enabled.
  MOM disabled.
  Fractional occupation disabled.
  Guess Type is READ.
  Energy threshold   = 1.00e-10
  Density threshold  = 1.00e-10
  Integral threshold = 0.00e+00

  ==> Primary Basis <==

  Basis Set: AUG-CC-PVTZ
    Blend: AUG-CC-PVTZ
    Number of shells: 263
    Number of basis function: 805
    Number of Cartesian functions: 940
    Spherical Harmonics?: true
    Max angular momentum: 3

   => Loading Basis Set <=

    Name: (AUG-CC-PVTZ AUX)
    Role: JKFIT
    Keyword: DF_BASIS_SCF
    atoms 1-11  entry C          line   161 file /cbio/jclab/home/chayas/anaconda/envs/py35/share/psi4/basis/aug-cc-pvtz-jkfit.gbs 
    atoms 12    entry N          line   223 file /cbio/jclab/home/chayas/anaconda/envs/py35/share/psi4/basis/aug-cc-pvtz-jkfit.gbs 
    atoms 13    entry O          line   285 file /cbio/jclab/home/chayas/anaconda/envs/py35/share/psi4/basis/aug-cc-pvtz-jkfit.gbs 
    atoms 14-22 entry H          line    69 file /cbio/jclab/home/chayas/anaconda/envs/py35/share/psi4/basis/aug-cc-pvtz-jkfit.gbs 

  Reading orbitals from file 180, no projection.

  ==> Pre-Iterations <==

   -------------------------------------------------------
    Irrep   Nso     Nmo     Nalpha   Nbeta   Ndocc  Nsocc
   -------------------------------------------------------
     A        805     805       0       0       0       0
   -------------------------------------------------------
    Total     805     805      45      45      45       0
   -------------------------------------------------------

  ==> Integral Setup <==

  ==> DFJK: Density-Fitted J/K Matrices <==

    J tasked:                  Yes
    K tasked:                  Yes
    wK tasked:                  No
    OpenMP threads:              8
    Integrals threads:           8
    Memory (MB):              3576
    Algorithm:                Disk
    Integral Cache:           NONE
    Schwarz Cutoff:          1E-12
    Fitting Condition:       1E-12

   => Auxiliary Basis Set <=

  Basis Set: (AUG-CC-PVTZ AUX)
    Blend: AUG-CC-PVTZ-JKFIT
    Number of shells: 516
    Number of basis function: 1766
    Number of Cartesian functions: 2198
    Spherical Harmonics?: true
    Max angular momentum: 4

  Minimum eigenvalue in the overlap matrix is 6.5070033464E-07.
  Using Symmetric Orthogonalization.

  SCF Guess: Orbitals guess was supplied from a previous computation.

  ==> Iterations <==

                           Total Energy        Delta E     RMS |[F,P]|

   @DF-RHF iter   0:  -551.28213688549181   -5.51282e+02   6.22178e-04 
   @DF-RHF iter   1:  -551.22524763282638    5.68893e-02   8.41433e-05 
   @DF-RHF iter   2:  -551.22560081819779   -3.53185e-04   5.97350e-05 DIIS
   @DF-RHF iter   3:  -551.22581347336620   -2.12655e-04   1.45427e-05 DIIS
   @DF-RHF iter   4:  -551.22584464005968   -3.11667e-05   7.28844e-06 DIIS
   @DF-RHF iter   5:  -551.22586229708554   -1.76570e-05   4.72146e-06 DIIS
   @DF-RHF iter   6:  -551.22586833851983   -6.04143e-06   2.09138e-06 DIIS
   @DF-RHF iter   7:  -551.22586941504562   -1.07653e-06   6.22664e-07 DIIS
   @DF-RHF iter   8:  -551.22586946417891   -4.91333e-08   1.89698e-07 DIIS
   @DF-RHF iter   9:  -551.22586946748982   -3.31090e-09   7.91538e-08 DIIS
   @DF-RHF iter  10:  -551.22586946814681   -6.56996e-10   2.39375e-08 DIIS
   @DF-RHF iter  11:  -551.22586946827153   -1.24714e-10   1.05056e-08 DIIS
   @DF-RHF iter  12:  -551.22586946828608   -1.45519e-11   4.13165e-09 DIIS
   @DF-RHF iter  13:  -551.22586946829199   -5.91172e-12   1.75983e-09 DIIS
   @DF-RHF iter  14:  -551.22586946827266    1.93268e-11   5.99383e-10 DIIS
   @DF-RHF iter  15:  -551.22586946828369   -1.10276e-11   2.68592e-10 DIIS
   @DF-RHF iter  16:  -551.22586946825299    3.06954e-11   1.33057e-10 DIIS
   @DF-RHF iter  17:  -551.22586946827221   -1.92131e-11   5.59657e-11 DIIS

  ==> Post-Iterations <==

    Orbital Energies (a.u.)
    -----------------------

    Doubly Occupied:                                                      

       1A    -20.444167     2A    -15.687175     3A    -11.349030  
       4A    -11.348939     5A    -11.303146     6A    -11.278393  
       7A    -11.278345     8A    -11.255359     9A    -11.230734  
      10A    -11.230688    11A    -11.216258    12A    -11.191788  
      13A    -11.191754    14A     -1.371186    15A     -1.270452  
      16A     -1.174941    17A     -1.107586    18A     -1.105038  
      19A     -1.000712    20A     -0.991723    21A     -0.929135  
      22A     -0.898965    23A     -0.829221    24A     -0.813005  
      25A     -0.786360    26A     -0.726689    27A     -0.718194  
      28A     -0.691076    29A     -0.668589    30A     -0.645294  
      31A     -0.617242    32A     -0.614265    33A     -0.609755  
      34A     -0.582184    35A     -0.562793    36A     -0.539625  
      37A     -0.516284    38A     -0.489546    39A     -0.485355  
      40A     -0.465167    41A     -0.416989    42A     -0.393355  
      43A     -0.351518    44A     -0.329951    45A     -0.234940  

    Virtual:                                                              

      46A     -0.005382    47A      0.012777    48A      0.022586  
      49A      0.024894    50A      0.038333    51A      0.041928  
      52A      0.043184    53A      0.054441    54A      0.057922  
      55A      0.061604    56A      0.062471    57A      0.068124  
      58A      0.069952    59A      0.073453    60A      0.084352  
      61A      0.095177    62A      0.096178    63A      0.102873  
      64A      0.108305    65A      0.108650    66A      0.118789  
      67A      0.119769    68A      0.120696    69A      0.127291  
      70A      0.127906    71A      0.132714    72A      0.134835  
      73A      0.137481    74A      0.148635    75A      0.149612  
      76A      0.151202    77A      0.157109    78A      0.162339  
      79A      0.164679    80A      0.164767    81A      0.170633  
      82A      0.172514    83A      0.180178    84A      0.182798  
      85A      0.183940    86A      0.188960    87A      0.195512  
      88A      0.198041    89A      0.205475    90A      0.211066  
      91A      0.214029    92A      0.216277    93A      0.224339  
      94A      0.225526    95A      0.229111    96A      0.234032  
      97A      0.236515    98A      0.249212    99A      0.250120  
     100A      0.254713   101A      0.256239   102A      0.258378  
     103A      0.269669   104A      0.270807   105A      0.272472  
     106A      0.284603   107A      0.290033   108A      0.290452  
     109A      0.294369   110A      0.297581   111A      0.300509  
     112A      0.301981   113A      0.307059   114A      0.311201  
     115A      0.319070   116A      0.322766   117A      0.328165  
     118A      0.330470   119A      0.331913   120A      0.339912  
     121A      0.341427   122A      0.345397   123A      0.347225  
     124A      0.350782   125A      0.357149   126A      0.357897  
     127A      0.362581   128A      0.370622   129A      0.373649  
     130A      0.375965   131A      0.384342   132A      0.390733  
     133A      0.395328   134A      0.400044   135A      0.400798  
     136A      0.402616   137A      0.417579   138A      0.418583  
     139A      0.420965   140A      0.429398   141A      0.434553  
     142A      0.435102   143A      0.440468   144A      0.444392  
     145A      0.449699   146A      0.454224   147A      0.456576  
     148A      0.459554   149A      0.463198   150A      0.467046  
     151A      0.468791   152A      0.476055   153A      0.480699  
     154A      0.481892   155A      0.485389   156A      0.486208  
     157A      0.491711   158A      0.493381   159A      0.495464  
     160A      0.500469   161A      0.501787   162A      0.513046  
     163A      0.514119   164A      0.514988   165A      0.518794  
     166A      0.524344   167A      0.524514   168A      0.527377  
     169A      0.532543   170A      0.538065   171A      0.543544  
     172A      0.546679   173A      0.552203   174A      0.554548  
     175A      0.563345   176A      0.566216   177A      0.568458  
     178A      0.574165   179A      0.582515   180A      0.589527  
     181A      0.592827   182A      0.601293   183A      0.607580  
     184A      0.612876   185A      0.620879   186A      0.626185  
     187A      0.630968   188A      0.640811   189A      0.644410  
     190A      0.652804   191A      0.653811   192A      0.663363  
     193A      0.670126   194A      0.675263   195A      0.681444  
     196A      0.682514   197A      0.692539   198A      0.693182  
     199A      0.704204   200A      0.705031   201A      0.706374  
     202A      0.711692   203A      0.721314   204A      0.725818  
     205A      0.726203   206A      0.734843   207A      0.740299  
     208A      0.747107   209A      0.748644   210A      0.759030  
     211A      0.767967   212A      0.769890   213A      0.777674  
     214A      0.779669   215A      0.785306   216A      0.790180  
     217A      0.793658   218A      0.801104   219A      0.815364  
     220A      0.818037   221A      0.826508   222A      0.831575  
     223A      0.839897   224A      0.844017   225A      0.844171  
     226A      0.856792   227A      0.857860   228A      0.871039  
     229A      0.872076   230A      0.875750   231A      0.876725  
     232A      0.882567   233A      0.888407   234A      0.890914  
     235A      0.899296   236A      0.909710   237A      0.912191  
     238A      0.913126   239A      0.918251   240A      0.921922  
     241A      0.926623   242A      0.930511   243A      0.930929  
     244A      0.941645   245A      0.942817   246A      0.954513  
     247A      0.957899   248A      0.965494   249A      0.967838  
     250A      0.968527   251A      0.974429   252A      0.977837  
     253A      0.979128   254A      0.988282   255A      0.993984  
     256A      0.997467   257A      0.999543   258A      1.005208  
     259A      1.011748   260A      1.012256   261A      1.017489  
     262A      1.026460   263A      1.029134   264A      1.032146  
     265A      1.037862   266A      1.039344   267A      1.043256  
     268A      1.044677   269A      1.053971   270A      1.058376  
     271A      1.060821   272A      1.065609   273A      1.076119  
     274A      1.079339   275A      1.080649   276A      1.090673  
     277A      1.092516   278A      1.095973   279A      1.096388  
     280A      1.107909   281A      1.114835   282A      1.115282  
     283A      1.121231   284A      1.124568   285A      1.130028  
     286A      1.133117   287A      1.140642   288A      1.149225  
     289A      1.150934   290A      1.160380   291A      1.160585  
     292A      1.170843   293A      1.173776   294A      1.178689  
     295A      1.183194   296A      1.186892   297A      1.192472  
     298A      1.199881   299A      1.200513   300A      1.200982  
     301A      1.205911   302A      1.206580   303A      1.213688  
     304A      1.215233   305A      1.224856   306A      1.231041  
     307A      1.235990   308A      1.243795   309A      1.244277  
     310A      1.251445   311A      1.254224   312A      1.267431  
     313A      1.273704   314A      1.274623   315A      1.278774  
     316A      1.288465   317A      1.295277   318A      1.306512  
     319A      1.308472   320A      1.313494   321A      1.320971  
[...]
	 B(6,8,12)        =         2.107694	     120.761994
	 B(6,8,21)        =         2.143221	     122.797515
	 B(6,10,9)        =         2.145949	     122.953799
	 B(7,5,10)        =         2.129333	     122.001817
	 B(7,5,18)        =         2.053605	     117.662895
	 B(7,12,8)        =         2.099071	     120.267912
	 B(7,12,22)       =         2.092210	     119.874828
	 B(8,6,10)        =         2.127481	     121.895671
	 B(8,6,19)        =         2.052341	     117.590470
	 B(8,12,22)       =         2.091737	     119.847682
	 B(9,1,14)        =         2.079585	     119.151450
	 B(9,2,15)        =         2.082532	     119.320311
	 B(10,5,18)       =         2.099853	     120.312718
	 B(10,6,19)       =         2.102243	     120.449623
	 B(11,3,16)       =         2.041367	     116.961718
	 B(11,4,17)       =         2.039888	     116.876998
	 B(12,7,20)       =         2.032859	     116.474243
	 B(12,8,21)       =         2.032221	     116.437701
	 D(1,3,11,4)      =         0.032554	       1.865187
	 D(1,3,11,13)     =        -3.115977	    -178.532348
	 D(1,9,2,4)       =         0.065087	       3.729198
	 D(1,9,2,15)      =         3.131703	     179.433377
	 D(1,9,10,5)      =        -0.512388	     -29.357675
	 D(1,9,10,6)      =         2.746029	     157.335879
	 D(2,4,11,3)      =         0.001332	       0.076315
	 D(2,4,11,13)     =        -3.133333	    -179.526769
	 D(2,9,1,3)       =        -0.031083	      -1.780903
	 D(2,9,1,14)      =         3.060056	     175.328321
	 D(2,9,10,5)      =         2.779943	     159.278977
	 D(2,9,10,6)      =        -0.244826	     -14.027469
	 D(3,1,9,10)      =        -3.028752	    -173.534728
	 D(3,11,4,17)     =        -3.134361	    -179.585643
	 D(4,2,9,10)      =         3.061559	     175.414396
	 D(4,11,3,16)     =        -3.087510	    -176.901276
	 D(5,7,12,8)      =         0.017806	       1.020225
	 D(5,7,12,22)     =         3.139722	     179.892832
	 D(5,10,6,8)      =         0.048889	       2.801134
	 D(5,10,6,19)     =         3.138376	     179.815693
	 D(6,8,12,7)      =        -0.010538	      -0.603804
	 D(6,8,12,22)     =        -3.132460	    -179.476718
	 D(6,10,5,7)      =        -0.041683	      -2.388276
	 D(6,10,5,18)     =         3.069037	     175.842839
	 D(7,5,10,9)      =        -3.075705	    -176.224938
	 D(7,12,8,21)     =         3.141370	     179.987257
	 D(8,6,10,9)      =         3.082219	     176.598160
	 D(8,12,7,20)     =        -3.095470	    -177.357344
	 D(9,1,3,11)      =        -0.017304	      -0.991470
	 D(9,1,3,16)      =         3.101910	     177.726333
	 D(9,2,4,11)      =        -0.050791	      -2.910084
	 D(9,2,4,17)      =         3.084664	     176.738249
	 D(9,10,5,18)     =         0.035014	       2.006177
	 D(9,10,6,19)     =        -0.111479	      -6.387282
	 D(10,5,7,12)     =         0.010184	       0.583506
	 D(10,5,7,20)     =         3.121604	     178.854709
	 D(10,6,8,12)     =        -0.024785	      -1.420074
	 D(10,6,8,21)     =         3.105819	     177.950310
	 D(10,9,1,14)     =         0.062387	       3.574496
	 D(10,9,2,15)     =        -0.155010	      -8.881425
	 D(11,3,1,14)     =        -3.108583	    -178.108683
	 D(11,4,2,15)     =        -3.117823	    -178.638121
	 D(12,7,5,18)     =        -3.101317	    -177.692382
	 D(12,8,6,19)     =        -3.115696	    -178.516240
	 D(13,11,3,16)    =         0.047145	       2.701190
	 D(13,11,4,17)    =         0.014159	       0.811272
	 D(14,1,3,16)     =         0.010631	       0.609120
	 D(15,2,4,17)     =         0.017632	       1.010212
	 D(18,5,7,20)     =         0.010102	       0.578821
	 D(19,6,8,21)     =         0.014908	       0.854144
	 D(20,7,12,22)    =         0.026446	       1.515263
	 D(21,8,12,22)    =         0.019449	       1.114344

	Current energy   :      -553.6796138434

	Energy change for the previous step:
		Projected    :         0.0000017500
		Actual       :         0.0000007227

	Performing BFGS update.
	Previous computed or guess Hessian on step 1.
	Steps to be used in Hessian update: 12 11
	Adding user-defined constraint: Fragment 1; Coordinate 64:
		Value =    -0.512388; Fixed value    =    -0.523600
		Force =    -0.008970; Force constant =     0.800000
	Removing off-diagonal coupling between coordinate 64 and others.
	Taking RFO optimization step.
	Going to follow RFO solution 1.
	Using RFO vector 1.
	Norm of target step-size    0.01625
	Projected energy change by RFO approximation:         0.0000033223

	Back-transformation to cartesian coordinates...
	Could not converge backtransformation.
	Using first guess instead.

	--- Internal Coordinate Step in ANG or DEG, aJ/ANG or AJ/DEG ---
	 ---------------------------------------------------------------------------
	   Coordinate                Previous        Force       Change         New 
	   ----------                --------       ------       ------       ------
	    1 R(1,3)          =      1.357605    -0.000137    -0.000003     1.357603
	    2 R(1,9)          =      1.424718     0.000242    -0.000046     1.424672
	    3 R(1,14)         =      1.081268    -0.000100     0.000035     1.081303
	    4 R(2,4)          =      1.357807    -0.000049     0.000011     1.357819
	    5 R(2,9)          =      1.423829     0.000215     0.000149     1.423978
	    6 R(2,15)         =      1.080829    -0.000003     0.000008     1.080837
	    7 R(3,11)         =      1.449708     0.000392     0.000238     1.449946
	    8 R(3,16)         =      1.079911     0.000023     0.000017     1.079928
	    9 R(4,11)         =      1.450520     0.000393     0.000157     1.450677
	   10 R(4,17)         =      1.080025     0.000131     0.000118     1.080144
	   11 R(5,7)          =      1.356799    -0.000118    -0.000008     1.356792
	   12 R(5,10)         =      1.427898     0.000156     0.000026     1.427925
	   13 R(5,18)         =      1.077502    -0.000103    -0.000006     1.077496
	   14 R(6,8)          =      1.357146    -0.000120    -0.000028     1.357118
	   15 R(6,10)         =      1.427868     0.000208     0.000081     1.427949
	   16 R(6,19)         =      1.077021     0.000054     0.000064     1.077085
	   17 R(7,12)         =      1.361148     0.000086     0.000018     1.361166
	   18 R(7,20)         =      1.077442     0.000028     0.000034     1.077476
	   19 R(8,12)         =      1.360179     0.000167     0.000141     1.360320
	   20 R(8,21)         =      1.077524     0.000057     0.000040     1.077564
	   21 R(9,10)         =      1.396149     0.000792     0.000212     1.396361
	   22 R(11,13)        =      1.240118    -0.000364    -0.000069     1.240048
	   23 R(12,22)        =      1.004508    -0.000060    -0.000011     1.004496
	   24 B(1,3,11)       =    122.062475     0.000000     0.006108   122.068582
	   25 B(1,3,16)       =    120.964110     0.000001     0.014535   120.978645
	   26 B(1,9,2)        =    116.956971     0.000000     0.015060   116.972031
	   27 B(1,9,10)       =    120.866089     0.000003     0.044317   120.910406
	   28 B(2,4,11)       =    122.149973     0.000000    -0.003707   122.146265
	   29 B(2,4,17)       =    120.972151     0.000001     0.015408   120.987559
	   30 B(2,9,10)       =    121.643017    -0.000003    -0.014309   121.628707
	   31 B(3,1,9)        =    121.921083     0.000000    -0.008927   121.912155
	   32 B(3,1,14)       =    118.865736     0.000001     0.021087   118.886823
	   33 B(3,11,4)       =    115.005898    -0.000001    -0.002126   115.003773
	   34 B(3,11,13)      =    122.566572     0.000000    -0.000781   122.565791
	   35 B(4,2,9)        =    121.797036     0.000000    -0.001526   121.795510
	   36 B(4,2,15)       =    118.746514     0.000001     0.025820   118.772334
	   37 B(4,11,13)      =    122.426282     0.000000     0.002636   122.428918
	   38 B(5,7,12)       =    120.652883    -0.000000    -0.005150   120.647733
	   39 B(5,7,20)       =    122.851816     0.000000     0.005699   122.857515
	   40 B(5,10,6)       =    114.358826    -0.000000     0.006956   114.365782
	   41 B(5,10,9)       =    122.383221     0.000003     0.019390   122.402612
	   42 B(6,8,12)       =    120.761994    -0.000001    -0.007416   120.754578
	   43 B(6,8,21)       =    122.797515     0.000000     0.004855   122.802370
	   44 B(6,10,9)       =    122.953799    -0.000002    -0.020839   122.932960
	   45 B(7,5,10)       =    122.001817     0.000001    -0.001207   122.000610
	   46 B(7,5,18)       =    117.662895     0.000000     0.015023   117.677918
	   47 B(7,12,8)       =    120.267912     0.000001     0.010075   120.277987
	   48 B(7,12,22)      =    119.874828    -0.000000    -0.006196   119.868632
	   49 B(8,6,10)       =    121.895671     0.000000    -0.002315   121.893356
	   50 B(8,6,19)       =    117.590470     0.000001     0.022403   117.612873
	   51 B(8,12,22)      =    119.847682    -0.000000    -0.003227   119.844456
	   52 B(9,1,14)       =    119.151450    -0.000001    -0.011396   119.140054
	   53 B(9,2,15)       =    119.320311    -0.000001    -0.015945   119.304366
	   54 B(10,5,18)      =    120.312718    -0.000001    -0.013613   120.299105
	   55 B(10,6,19)      =    120.449623    -0.000001    -0.016506   120.433117
	   56 B(11,3,16)      =    116.961718    -0.000002    -0.020331   116.941387
	   57 B(11,4,17)      =    116.876998    -0.000001    -0.011600   116.865398
	   58 B(12,7,20)      =    116.474243     0.000000    -0.000304   116.473939
	   59 B(12,8,21)      =    116.437701     0.000000     0.002687   116.440388
	   60 D(1,3,11,4)     =      1.865187    -0.000000    -0.052161     1.813026
	   61 D(1,3,11,13)    =   -178.532348    -0.000000    -0.093145  -178.625493
	   62 D(1,9,2,4)      =      3.729198    -0.000001    -0.088419     3.640779
	   63 D(1,9,2,15)     =    179.433377    -0.000000     0.046244   179.479620
	   64 D(1,9,10,5)     =    -29.357675     0.000000     0.000521   -29.357154
	   65 D(1,9,10,6)     =    157.335879    -0.000001    -0.060600   157.275280
	   66 D(2,4,11,3)     =      0.076315     0.000000     0.023314     0.099629
	   67 D(2,4,11,13)    =   -179.526769     0.000000     0.064251  -179.462518
	   68 D(2,9,1,3)      =     -1.780903     0.000001     0.059463    -1.721439
	   69 D(2,9,1,14)     =    175.328321     0.000001     0.077985   175.406306
	   70 D(2,9,10,5)     =    159.278977    -0.000001    -0.371117   158.907860
	   71 D(2,9,10,6)     =    -14.027469    -0.000002    -0.432237   -14.459706
	   72 D(3,1,9,10)     =   -173.534728    -0.000001    -0.292863  -173.827591
	   73 D(3,11,4,17)    =   -179.585643     0.000000     0.003256  -179.582387
	   74 D(4,2,9,10)     =    175.414396     0.000001     0.271816   175.686212
	   75 D(4,11,3,16)    =   -176.901276    -0.000000    -0.068862  -176.970138
	   76 D(5,7,12,8)     =      1.020225    -0.000000    -0.048785     0.971440
	   77 D(5,7,12,22)    =    179.892832    -0.000000    -0.009756   179.883076
	   78 D(5,10,6,8)     =      2.801134    -0.000000    -0.012490     2.788644
	   79 D(5,10,6,19)    =    179.815693    -0.000000     0.072527   179.888220
	   80 D(6,8,12,7)     =     -0.603804     0.000000     0.039826    -0.563979
	   81 D(6,8,12,22)    =   -179.476718     0.000000     0.000839  -179.475878
	   82 D(6,10,5,7)     =     -2.388276     0.000000     0.003504    -2.384772
	   83 D(6,10,5,18)    =    175.842839     0.000000     0.011728   175.854567
	   84 D(7,5,10,9)     =   -176.224938    -0.000001    -0.050954  -176.275892
	   85 D(7,12,8,21)    =    179.987257     0.000000     0.026321   180.013578
	   86 D(8,6,10,9)     =    176.598160     0.000001     0.045100   176.643260
	   87 D(8,12,7,20)    =   -177.357344    -0.000000    -0.058354  -177.415697
	   88 D(9,1,3,11)     =     -0.991470    -0.000000     0.010650    -0.980820
	   89 D(9,1,3,16)     =    177.726333    -0.000000     0.027590   177.753923
	   90 D(9,2,4,11)     =     -2.910084     0.000000     0.048019    -2.862065
	   91 D(9,2,4,17)     =    176.738249     0.000000     0.068798   176.807047
	   92 D(9,10,5,18)    =      2.006177    -0.000001    -0.042730     1.963447
	   93 D(9,10,6,19)    =     -6.387282     0.000001     0.130117    -6.257165
	   94 D(10,5,7,12)    =      0.583506    -0.000000     0.026737     0.610243
	   95 D(10,5,7,20)    =    178.854709     0.000000     0.036818   178.891527
	   96 D(10,6,8,12)    =     -1.420074     0.000000    -0.008568    -1.428642
	   97 D(10,6,8,21)    =    177.950310     0.000000     0.005798   177.956109
	   98 D(10,9,1,14)    =      3.574496    -0.000001    -0.274341     3.300154
	   99 D(10,9,2,15)    =     -8.881425     0.000002     0.406479    -8.474946
	  100 D(11,3,1,14)    =   -178.108683    -0.000000    -0.006920  -178.115603
	  101 D(11,4,2,15)    =   -178.638121     0.000000    -0.084220  -178.722341
	  102 D(12,7,5,18)    =   -177.692382    -0.000000     0.019196  -177.673186
	  103 D(12,8,6,19)    =   -178.516240    -0.000000    -0.090202  -178.606442
	  104 D(13,11,3,16)   =      2.701190    -0.000000    -0.109847     2.591343
	  105 D(13,11,4,17)   =      0.811272     0.000000     0.044193     0.855465
	  106 D(14,1,3,16)    =      0.609120    -0.000000     0.010019     0.619140
	  107 D(15,2,4,17)    =      1.010212    -0.000000    -0.063441     0.946770
	  108 D(18,5,7,20)    =      0.578821     0.000000     0.029277     0.608098
	  109 D(19,6,8,21)    =      0.854144    -0.000000    -0.075835     0.778309
	  110 D(20,7,12,22)   =      1.515263    -0.000000    -0.019324     1.495939
	  111 D(21,8,12,22)   =      1.114344    -0.000000    -0.012666     1.101678
	 ---------------------------------------------------------------------------
	Successfully symmetrized geometry.
	 Forces used to impose fixed constraints are not included.
	  Forces zeroed: 64 

  ==> Convergence Check <==

  Measures of convergence in internal coordinates in au.
  Criteria marked as inactive (o), active & met (*), and active & unmet ( ).
  ---------------------------------------------------------------------------------------------
   Step     Total Energy     Delta E     MAX Force     RMS Force      MAX Disp      RMS Disp   
  ---------------------------------------------------------------------------------------------
    Convergence Criteria    1.00e-06 *    3.00e-04 *             o    1.20e-03 *             o
  ---------------------------------------------------------------------------------------------
     13    -553.67961384    7.23e-07 *    1.41e-04 *    2.90e-05 o    7.54e-03      1.54e-03 o  ~
  ---------------------------------------------------------------------------------------------


  **** Optimization is complete! (in 13 steps) ****

  ==> Optimization Summary <==

  Measures of convergence in internal coordinates in au.
  --------------------------------------------------------------------------------------------------------------- ~
   Step         Total Energy             Delta E       MAX Force       RMS Force        MAX Disp        RMS Disp  ~
  --------------------------------------------------------------------------------------------------------------- ~
      1    -553.661032678231   -553.661032678231      0.03319814      0.00933604      0.03277773      0.00948670  ~
      2    -553.669238764287     -0.008206086056      0.02081666      0.00634806      0.02841035      0.00948553  ~
      3    -553.674540990695     -0.005302226408      0.01195075      0.00373633      0.02420854      0.00948892  ~
      4    -553.677395189163     -0.002854198467      0.00515423      0.00175482      0.04473501      0.00950454  ~
      5    -553.678631981158     -0.001236791996      0.00327089      0.00077416      0.05501852      0.00950370  ~
      6    -553.679224191863     -0.000592210705      0.00217000      0.00046023      0.05726216      0.00950583  ~
      7    -553.679590158019     -0.000365966156      0.00163919      0.00033763      0.05687085      0.00950233  ~
      8    -553.679750679414     -0.000160521395      0.00218519      0.00033136      0.00885745      0.00197050  ~
      9    -553.679705650853      0.000045028562      0.00132632      0.00019813      0.00740071      0.00150568  ~
     10    -553.679691870630      0.000013780222      0.00117640      0.00017328      0.03035046      0.00515521  ~
     11    -553.679633185481      0.000058685149      0.00064947      0.00012228      0.04282950      0.00731046  ~
     12    -553.679614566118      0.000018619363      0.00037133      0.00008127      0.01992752      0.00380214  ~
     13    -553.679613843448      0.000000722670      0.00014143      0.00002908      0.00754396      0.00154223  ~
  --------------------------------------------------------------------------------------------------------------- ~

	Writing optimization data to binary file.
	Final energy is   -553.6796138434477
	Final (previous) structure:
	Cartesian Geometry (in Angstrom)
	    C    -1.3779697697   0.6468057417  -0.5467604333
	    C    -0.2866931831   0.1857278742   1.5728636593
	    C    -2.4066893533   1.2495366084   0.1025038054
	    C    -1.3260402085   0.7505514436   2.2394766011
	    C     0.7339417139  -0.9535422796  -1.8584198217
	    C     2.1150711402  -0.5734822729   0.0670884581
	    C     1.8013135547  -1.5008450045  -2.4925189891
	    C     3.1617281777  -1.1197138502  -0.6022283380
	    C    -0.2798978029   0.0695087048   0.1538025072
	    C     0.8290117050  -0.4251657600  -0.5352896615
	    C    -2.4645599979   1.3259444740   1.5490394616
	    N     3.0119698537  -1.5756970595  -1.8749176689
	    O    -3.4124510283   1.8506904643   2.1523933206
	    H    -1.3716517813   0.6465692412  -1.6280100373
	    H     0.5232338259  -0.2466191749   2.1432016473
	    H    -3.2132959116   1.7141094785  -0.4450050060
	    H    -1.3411576070   0.7849694008   3.3188475564
	    H    -0.2102391189  -0.9532667703  -2.3775865534
	    H     2.2967441904  -0.2067269362   1.0633114633
	    H     1.7408956522  -1.9195841862  -3.4834217507
	    H     4.1461142228  -1.2092795386  -0.1732527196
	    H     3.7939874551  -1.9847072494  -2.3547039377
	Saving final (previous) structure.
			--------------------------
			 OPTKING Finished Execution 
			--------------------------

    Final optimized geometry and variables:
    Molecular point group: c1
    Full point group: C1

    Geometry (in Angstrom), charge = 0, multiplicity = 1:

    C           -1.377969769685     0.646805741678    -0.546760433251
    C           -0.286693183130     0.185727874234     1.572863659333
    C           -2.406689353336     1.249536608398     0.102503805354
    C           -1.326040208540     0.750551443554     2.239476601123
    C            0.733941713881    -0.953542279568    -1.858419821672
    C            2.115071140228    -0.573482272874     0.067088458071
    C            1.801313554690    -1.500845004462    -2.492518989097
    C            3.161728177697    -1.119713850200    -0.602228338022
    C           -0.279897802924     0.069508704806     0.153802507185
    C            0.829011704966    -0.425165760013    -0.535289661451
    C           -2.464559997875     1.325944473987     1.549039461604
    N            3.011969853693    -1.575697059486    -1.874917668913
    O           -3.412451028348     1.850690464323     2.152393320607
    H           -1.371651781340     0.646569241230    -1.628010037291
    H            0.523233825892    -0.246619174932     2.143201647312
    H           -3.213295911598     1.714109478530    -0.445005005981
    H           -1.341157606954     0.784969400806     3.318847556405
    H           -0.210239118860    -0.953266770318    -2.377586553381
    H            2.296744190359    -0.206726936193     1.063311463270
    H            1.740895652240    -1.919584186198    -3.483421750745
    H            4.146114222809    -1.209279538646    -0.173252719571
    H            3.793987455097    -1.984707249412    -2.354703937734

	Cleaning optimization helper files.

*** Psi4 exiting successfully. Buy a developer a beer!
