
    -----------------------------------------------------------------------
          Psi4: An Open-Source Ab Initio Electronic Structure Package
                               Psi4 1.1 release

                         Git: Rev {HEAD} add49b9 


    R. M. Parrish, L. A. Burns, D. G. A. Smith, A. C. Simmonett,
    A. E. DePrince III, E. G. Hohenstein, U. Bozkaya, A. Yu. Sokolov,
    R. Di Remigio, R. M. Richard, J. F. Gonthier, A. M. James,
    H. R. McAlexander, A. Kumar, M. Saitow, X. Wang, B. P. Pritchard,
    P. Verma, H. F. Schaefer III, K. Patkowski, R. A. King, E. F. Valeev,
    F. A. Evangelista, J. M. Turney, T. D. Crawford, and C. D. Sherrill,
    J. Chem. Theory Comput. in press (2017).
    (doi: 10.1021/acs.jctc.7b00174)

    -----------------------------------------------------------------------


    Psi4 started on: Sunday, 12 November 2017 07:35AM

    Process ID:   6475
    PSIDATADIR: /cbio/jclab/home/chayas/anaconda/envs/py35/share/psi4
    Memory:     500.0 MiB
    Threads:    8
    
  ==> Input File <==

--------------------------------------------------------------------------

memory 5 Gb

molecule phepyrOH_cation {
  symmetry C1
  1 1 
  C      1.885   -1.036   -0.112
  C      2.878   -1.652   2.002
  C      0.807   -0.463   0.561
  C      1.800   -1.079   2.676
  C      4.517   -3.474   0.295
  C      4.640   -1.549   -1.148
  C      5.592   -4.020   -0.392
  C      5.712   -2.143   -1.799
  C      2.921   -1.631   0.608
  C      4.040   -2.225   -0.090
  C      0.764   -0.484   1.955
  N      6.152   -3.347   -1.407
  O      -0.288   0.076   2.612
  H      1.904   -1.012   -1.199
  H      3.678   -2.112   2.578
  H      0.003   -0.001   -0.006
  H      1.772   -1.098   3.762
  H      4.068   -4.025   1.116
  H      4.289   -0.573   -1.469
  H      6.028   -4.983   -0.163
  H      6.238   -1.693   -2.629
  H      6.941   -3.766   -1.898
  H      -0.175   -0.018   3.571
  units Angstrom
}

dih_string = "1 9 10 5 225"
set optking fixed_dihedral = $dih_string

optimize('MP2/aug-cc-PVTZ')
--------------------------------------------------------------------------

  Memory set to   4.657 GiB by Python driver.
gradient() will perform analytic gradient computation.

*** tstart() called on gpu-1-7.local
*** at Sun Nov 12 07:35:24 2017

    SCF Algorithm Type (re)set to DF.

*** tstart() called on gpu-1-7.local
*** at Sun Nov 12 07:35:24 2017

   => Loading Basis Set <=

    Name: AUG-CC-PVTZ
    Role: ORBITAL
    Keyword: BASIS
    atoms 1-11  entry C          line   221 file /cbio/jclab/home/chayas/anaconda/envs/py35/share/psi4/basis/aug-cc-pvtz.gbs 
    atoms 12    entry N          line   267 file /cbio/jclab/home/chayas/anaconda/envs/py35/share/psi4/basis/aug-cc-pvtz.gbs 
    atoms 13    entry O          line   313 file /cbio/jclab/home/chayas/anaconda/envs/py35/share/psi4/basis/aug-cc-pvtz.gbs 
    atoms 14-23 entry H          line    34 file /cbio/jclab/home/chayas/anaconda/envs/py35/share/psi4/basis/aug-cc-pvtz.gbs 


         ---------------------------------------------------------
                                   SCF
            by Justin Turney, Rob Parrish, and Andy Simmonett
                              RHF Reference
                        8 Threads,   4768 MiB Core
         ---------------------------------------------------------

  ==> Geometry <==

    Molecular point group: c1
    Full point group: C1

    Geometry (in Angstrom), charge = 1, multiplicity = 1:

       Center              X                  Y                   Z               Mass       
    ------------   -----------------  -----------------  -----------------  -----------------
           C         -1.271916188788     0.719945803318    -0.579467533270    12.000000000000
           C         -0.278916188788     0.103945803318     1.534532466730    12.000000000000
           C         -2.349916188788     1.292945803318     0.093532466730    12.000000000000
           C         -1.356916188788     0.676945803318     2.208532466730    12.000000000000
           C          1.360083811212    -1.718054196682    -0.172467533270    12.000000000000
           C          1.483083811212     0.206945803318    -1.615467533270    12.000000000000
           C          2.435083811212    -2.264054196682    -0.859467533270    12.000000000000
           C          2.555083811212    -0.387054196682    -2.266467533270    12.000000000000
           C         -0.235916188788     0.124945803318     0.140532466730    12.000000000000
           C          0.883083811212    -0.469054196682    -0.557467533270    12.000000000000
           C         -2.392916188788     1.271945803318     1.487532466730    12.000000000000
           N          2.995083811212    -1.591054196682    -1.874467533270    14.003074004780
           O         -3.444916188788     1.831945803318     2.144532466730    15.994914619560
           H         -1.252916188788     0.743945803318    -1.666467533270     1.007825032070
           H          0.521083811212    -0.356054196682     2.110532466730     1.007825032070
           H         -3.153916188788     1.754945803318    -0.473467533270     1.007825032070
           H         -1.384916188788     0.657945803318     3.294532466730     1.007825032070
           H          0.911083811212    -2.269054196682     0.648532466730     1.007825032070
           H          1.132083811212     1.182945803318    -1.936467533270     1.007825032070
           H          2.871083811212    -3.227054196682    -0.630467533270     1.007825032070
           H          3.081083811212     0.062945803318    -3.096467533270     1.007825032070
           H          3.784083811212    -2.010054196682    -2.365467533270     1.007825032070
           H         -3.331916188788     1.737945803318     3.103532466730     1.007825032070

  Running in c1 symmetry.

  Rotational constants: A =      0.09609  B =      0.01321  C =      0.01204 [cm^-1]
  Rotational constants: A =   2880.75561  B =    396.04211  C =    360.95116 [MHz]
  Nuclear repulsion =  712.680845766190259

  Charge       = 1
  Multiplicity = 1
  Electrons    = 90
  Nalpha       = 45
  Nbeta        = 45

  ==> Algorithm <==

  SCF Algorithm Type is DF.
  DIIS enabled.
  MOM disabled.
  Fractional occupation disabled.
  Guess Type is SAD.
  Energy threshold   = 1.00e-10
  Density threshold  = 1.00e-10
  Integral threshold = 0.00e+00

  ==> Primary Basis <==

  Basis Set: AUG-CC-PVTZ
    Blend: AUG-CC-PVTZ
    Number of shells: 272
    Number of basis function: 828
    Number of Cartesian functions: 965
    Spherical Harmonics?: true
    Max angular momentum: 3

   => Loading Basis Set <=

    Name: (AUG-CC-PVTZ AUX)
    Role: JKFIT
    Keyword: DF_BASIS_SCF
    atoms 1-11  entry C          line   161 file /cbio/jclab/home/chayas/anaconda/envs/py35/share/psi4/basis/aug-cc-pvtz-jkfit.gbs 
    atoms 12    entry N          line   223 file /cbio/jclab/home/chayas/anaconda/envs/py35/share/psi4/basis/aug-cc-pvtz-jkfit.gbs 
    atoms 13    entry O          line   285 file /cbio/jclab/home/chayas/anaconda/envs/py35/share/psi4/basis/aug-cc-pvtz-jkfit.gbs 
    atoms 14-23 entry H          line    69 file /cbio/jclab/home/chayas/anaconda/envs/py35/share/psi4/basis/aug-cc-pvtz-jkfit.gbs 

  ==> Pre-Iterations <==

   -------------------------------------------------------
    Irrep   Nso     Nmo     Nalpha   Nbeta   Ndocc  Nsocc
   -------------------------------------------------------
     A        828     828       0       0       0       0
   -------------------------------------------------------
    Total     828     828      45      45      45       0
   -------------------------------------------------------

  ==> Integral Setup <==

  ==> DFJK: Density-Fitted J/K Matrices <==

    J tasked:                  Yes
    K tasked:                  Yes
    wK tasked:                  No
    OpenMP threads:              8
    Integrals threads:           8
    Memory (MB):              3576
    Algorithm:                Disk
    Integral Cache:           NONE
    Schwarz Cutoff:          1E-12
    Fitting Condition:       1E-12

   => Auxiliary Basis Set <=

  Basis Set: (AUG-CC-PVTZ AUX)
    Blend: AUG-CC-PVTZ-JKFIT
    Number of shells: 530
    Number of basis function: 1812
    Number of Cartesian functions: 2253
    Spherical Harmonics?: true
    Max angular momentum: 4

  Minimum eigenvalue in the overlap matrix is 5.5478723717E-07.
  Using Symmetric Orthogonalization.

  SCF Guess: Superposition of Atomic Densities via on-the-fly atomic UHF.

  ==> Iterations <==

                           Total Energy        Delta E     RMS |[F,P]|

   @DF-RHF iter   0:  -555.00581649796163   -5.55006e+02   2.42902e-02 
   @DF-RHF iter   1:  -551.27613520524790    3.72968e+00   2.33980e-03 
   @DF-RHF iter   2:  -551.59314855055675   -3.17013e-01   9.67365e-04 DIIS
   @DF-RHF iter   3:  -551.65535894958100   -6.22104e-02   4.92611e-04 DIIS
   @DF-RHF iter   4:  -551.67268059124569   -1.73216e-02   1.29018e-04 DIIS
   @DF-RHF iter   5:  -551.67525270159763   -2.57211e-03   5.67546e-05 DIIS
   @DF-RHF iter   6:  -551.67570210375175   -4.49402e-04   2.05086e-05 DIIS
   @DF-RHF iter   7:  -551.67575083336953   -4.87296e-05   6.71839e-06 DIIS
   @DF-RHF iter   8:  -551.67575629221892   -5.45885e-06   1.97158e-06 DIIS
   @DF-RHF iter   9:  -551.67575705569755   -7.63479e-07   9.19575e-07 DIIS
   @DF-RHF iter  10:  -551.67575724928975   -1.93592e-07   4.14500e-07 DIIS
   @DF-RHF iter  11:  -551.67575729111331   -4.18236e-08   1.49041e-07 DIIS
   @DF-RHF iter  12:  -551.67575729740292   -6.28961e-09   6.16465e-08 DIIS
   @DF-RHF iter  13:  -551.67575729825660   -8.53674e-10   2.48846e-08 DIIS
   @DF-RHF iter  14:  -551.67575729836892   -1.12323e-10   8.40880e-09 DIIS
   @DF-RHF iter  15:  -551.67575729840587   -3.69482e-11   3.98695e-09 DIIS
   @DF-RHF iter  16:  -551.67575729839484    1.10276e-11   2.21843e-09 DIIS
   @DF-RHF iter  17:  -551.67575729839973   -4.88853e-12   1.00285e-09 DIIS
   @DF-RHF iter  18:  -551.67575729839200    7.73070e-12   4.19909e-10 DIIS
   @DF-RHF iter  19:  -551.67575729839950   -7.50333e-12   1.94446e-10 DIIS
   @DF-RHF iter  20:  -551.67575729839996   -4.54747e-13   6.93848e-11 DIIS

  ==> Post-Iterations <==

    Orbital Energies (a.u.)
    -----------------------

    Doubly Occupied:                                                      

       1A    -20.699735     2A    -15.836905     3A    -11.485963  
       4A    -11.485823     5A    -11.446304     6A    -11.429723  
       7A    -11.416350     8A    -11.416240     9A    -11.376999  
      10A    -11.375342    11A    -11.369798    12A    -11.355228  
      13A    -11.351685    14A     -1.514824    15A     -1.513388  
      16A     -1.320266    17A     -1.263071    18A     -1.238790  
      19A     -1.153644    20A     -1.148135    21A     -1.068818  
      22A     -1.054689    23A     -0.973997    24A     -0.963856  
      25A     -0.948200    26A     -0.871047    27A     -0.858600  
      28A     -0.852008    29A     -0.821430    30A     -0.798953  
      31A     -0.784962    32A     -0.773824    33A     -0.753482  
      34A     -0.730530    35A     -0.718869    36A     -0.709310  
      37A     -0.701158    38A     -0.683595    39A     -0.651450  
      40A     -0.628115    41A     -0.616927    42A     -0.571874  
      43A     -0.538453    44A     -0.467597    45A     -0.436865  

    Virtual:                                                              

      46A     -0.103661    47A     -0.085565    48A     -0.064317  
      49A     -0.063037    50A     -0.059252    51A     -0.051054  
      52A     -0.042908    53A     -0.039422    54A     -0.037038  
      55A     -0.029952    56A     -0.024295    57A     -0.023721  
      58A     -0.015550    59A     -0.010453    60A     -0.005780  
      61A     -0.001839    62A      0.000874    63A      0.007233  
      64A      0.009067    65A      0.012966    66A      0.014860  
      67A      0.020652    68A      0.020997    69A      0.025040  
      70A      0.029884    71A      0.032276    72A      0.036695  
      73A      0.038453    74A      0.041772    75A      0.042540  
      76A      0.048918    77A      0.051708    78A      0.054868  
      79A      0.057607    80A      0.064212    81A      0.065967  
      82A      0.071767    83A      0.074492    84A      0.079781  
      85A      0.083045    86A      0.085297    87A      0.091129  
      88A      0.095300    89A      0.097113    90A      0.107534  
      91A      0.110423    92A      0.116769    93A      0.117707  
      94A      0.120453    95A      0.125831    96A      0.130387  
      97A      0.132168    98A      0.136329    99A      0.137256  
     100A      0.143656   101A      0.153171   102A      0.159277  
     103A      0.160672   104A      0.164572   105A      0.165954  
     106A      0.168344   107A      0.171704   108A      0.174783  
     109A      0.175428   110A      0.178892   111A      0.182202  
     112A      0.191453   113A      0.192810   114A      0.196393  
     115A      0.200457   116A      0.202384   117A      0.208339  
     118A      0.213774   119A      0.215934   120A      0.218258  
     121A      0.224008   122A      0.227232   123A      0.228044  
     124A      0.230825   125A      0.237706   126A      0.239319  
     127A      0.242383   128A      0.248924   129A      0.252584  
     130A      0.255498   131A      0.260092   132A      0.268621  
     133A      0.277032   134A      0.279462   135A      0.282063  
     136A      0.284436   137A      0.288255   138A      0.291419  
     139A      0.299470   140A      0.308477   141A      0.310990  
     142A      0.314301   143A      0.317164   144A      0.319393  
     145A      0.321100   146A      0.323507   147A      0.326457  
     148A      0.330802   149A      0.335629   150A      0.340655  
     151A      0.341870   152A      0.346052   153A      0.348802  
     154A      0.353385   155A      0.354064   156A      0.357515  
     157A      0.362668   158A      0.366703   159A      0.367720  
     160A      0.371068   161A      0.375564   162A      0.377436  
     163A      0.381790   164A      0.385554   165A      0.390756  
     166A      0.394069   167A      0.399281   168A      0.400392  
     169A      0.402160   170A      0.404702   171A      0.410835  
     172A      0.412378   173A      0.416845   174A      0.419356  
     175A      0.424123   176A      0.426671   177A      0.429556  
     178A      0.437013   179A      0.441803   180A      0.443148  
     181A      0.446226   182A      0.454167   183A      0.459316  
     184A      0.464904   185A      0.467738   186A      0.475305  
     187A      0.476755   188A      0.480496   189A      0.489623  
     190A      0.493769   191A      0.496542   192A      0.503833  
     193A      0.521637   194A      0.526274   195A      0.528150  
     196A      0.540226   197A      0.543099   198A      0.545111  
     199A      0.553911   200A      0.566298   201A      0.573359  
     202A      0.575067   203A      0.576415   204A      0.580447  
     205A      0.581265   206A      0.586005   207A      0.594212  
     208A      0.597830   209A      0.603575   210A      0.612094  
     211A      0.617991   212A      0.619361   213A      0.624877  
     214A      0.630407   215A      0.632221   216A      0.634975  
     217A      0.637763   218A      0.643956   219A      0.658075  
     220A      0.662287   221A      0.667506   222A      0.680733  
     223A      0.686571   224A      0.695656   225A      0.696682  
     226A      0.701912   227A      0.705079   228A      0.708251  
     229A      0.713705   230A      0.720202   231A      0.723413  
     232A      0.726615   233A      0.735455   234A      0.736417  
     235A      0.741294   236A      0.748877   237A      0.753389  
     238A      0.757986   239A      0.767619   240A      0.769585  
     241A      0.773325   242A      0.778575   243A      0.782776  
     244A      0.788982   245A      0.789832   246A      0.791737  
     247A      0.795462   248A      0.798954   249A      0.806378  
     250A      0.806663   251A      0.812242   252A      0.815663  
     253A      0.821180   254A      0.829252   255A      0.831663  
     256A      0.840552   257A      0.846128   258A      0.848553  
     259A      0.857527   260A      0.862522   261A      0.867194  
     262A      0.872774   263A      0.874487   264A      0.877803  
     265A      0.879969   266A      0.882741   267A      0.888953  
     268A      0.895757   269A      0.905362   270A      0.911061  
     271A      0.912677   272A      0.915260   273A      0.921273  
     274A      0.925294   275A      0.928705   276A      0.932681  
     277A      0.934850   278A      0.943411   279A      0.945319  
     280A      0.949727   281A      0.952724   282A      0.954523  
     283A      0.957827   284A      0.966591   285A      0.972711  
     286A      0.978007   287A      0.981767   288A      0.986964  
     289A      0.988724   290A      0.992388   291A      0.996470  
     292A      0.999501   293A      1.005984   294A      1.006467  
     295A      1.013819   296A      1.015977   297A      1.021970  
     298A      1.024656   299A      1.032371   300A      1.038172  
     301A      1.042090   302A      1.051321   303A      1.053287  
     304A      1.058043   305A      1.061495   306A      1.071128  
     307A      1.073807   308A      1.075380   309A      1.079566  
     310A      1.089661   311A      1.091658   312A      1.094978  
     313A      1.098811   314A      1.104700   315A      1.109575  
     316A      1.113887   317A      1.119540   318A      1.134632  
     319A      1.135536   320A      1.142085   321A      1.144102  
     322A      1.148537   323A      1.155888   324A      1.157182  
     325A      1.162010   326A      1.168344   327A      1.176744  
     328A      1.186671   329A      1.190986   330A      1.204263  
     331A      1.206156   332A      1.218128   333A      1.220621  
     334A      1.224649   335A      1.229538   336A      1.241367  
     337A      1.244130   338A      1.254164   339A      1.260609  
     340A      1.264061   341A      1.268600   342A      1.281536  
     343A      1.293716   344A      1.297360   345A      1.300278  
     346A      1.305212   347A      1.311361   348A      1.318579  
     349A      1.321437   350A      1.328183   351A      1.334668  
     352A      1.348330   353A      1.358602   354A      1.360804  
     355A      1.365180   356A      1.367665   357A      1.378445  
     358A      1.382202   359A      1.392524   360A      1.395443  
     361A      1.398494   362A      1.405576   363A      1.412783  
     364A      1.419837   365A      1.431446   366A      1.441755  
     367A      1.450077   368A      1.453330   369A      1.459386  
     370A      1.469782   371A      1.478482   372A      1.484390  
     373A      1.492946   374A      1.507108   375A      1.511998  
     376A      1.521266   377A      1.523778   378A      1.527268  
     379A      1.536055   380A      1.547437   381A      1.553422  
     382A      1.558683   383A      1.562603   384A      1.571545  
     385A      1.574584   386A      1.584348   387A      1.595740  
     388A      1.607068   389A      1.613313   390A      1.620191  
     391A      1.625226   392A      1.633019   393A      1.646306  
     394A      1.655308   395A      1.660416   396A      1.671003  
     397A      1.682984   398A      1.689347   399A      1.693639  
     400A      1.702914   401A      1.705453   402A      1.707339  
     403A      1.716126   404A      1.726420   405A      1.736495  
     406A      1.742263   407A      1.748585   408A      1.752696  
     409A      1.764487   410A      1.771460   411A      1.786751  
     412A      1.795550   413A      1.797151   414A      1.808682  
     415A      1.815011   416A      1.815749   417A      1.820723  
     418A      1.828063   419A      1.835211   420A      1.851508  
     421A      1.861102   422A      1.865721   423A      1.872101  
     424A      1.877385   425A      1.881977   426A      1.893342  
     427A      1.898246   428A      1.903424   429A      1.909045  
     430A      1.916410   431A      1.918240   432A      1.921592  
     433A      1.935799   434A      1.947804   435A      1.949996  
     436A      1.960241   437A      1.967885   438A      1.986994  
     439A      1.991073   440A      1.998125   441A      2.010288  
     442A      2.015312   443A      2.029552   444A      2.037183  
     445A      2.042291   446A      2.047523   447A      2.054804  
     448A      2.055897   449A      2.071722   450A      2.081863  
     451A      2.087337   452A      2.095675   453A      2.100270  
     454A      2.112394   455A      2.128990   456A      2.135671  
     457A      2.154725   458A      2.170277   459A      2.180556  
     460A      2.193231   461A      2.198227   462A      2.202078  
     463A      2.210686   464A      2.213298   465A      2.218648  
     466A      2.228610   467A      2.246008   468A      2.257357  
     469A      2.261650   470A      2.264506   471A      2.287867  
     472A      2.297027   473A      2.304083   474A      2.305323  
     475A      2.320930   476A      2.329489   477A      2.332686  
     478A      2.342816   479A      2.362037   480A      2.384252  
     481A      2.387455   482A      2.399913   483A      2.408625  
     484A      2.415529   485A      2.418370   486A      2.421174  
     487A      2.436486   488A      2.447362   489A      2.455155  
     490A      2.478287   491A      2.494659   492A      2.498334  
     493A      2.508915   494A      2.527603   495A      2.543883  
     496A      2.551017   497A      2.566534   498A      2.569250  
     499A      2.586341   500A      2.604911   501A      2.620601  
     502A      2.630515   503A      2.636815   504A      2.641934  
     505A      2.690094   506A      2.698970   507A      2.713919  
     508A      2.724255   509A      2.747203   510A      2.751643  
     511A      2.772942   512A      2.782849   513A      2.800492  
     514A      2.828784   515A      2.836932   516A      2.874698  
     517A      2.884781   518A      2.946540   519A      2.951372  
     520A      2.960994   521A      2.976342   522A      2.981530  
     523A      3.003034   524A      3.010854   525A      3.044458  
     526A      3.060215   527A      3.075345   528A      3.085684  
     529A      3.089778   530A      3.124607   531A      3.125848  
     532A      3.154567   533A      3.161973   534A      3.174210  
     535A      3.185396   536A      3.187533   537A      3.199839  
     538A      3.217586   539A      3.224077   540A      3.238465  
     541A      3.244713   542A      3.257243   543A      3.265806  
     544A      3.280289   545A      3.286498   546A      3.297770  
     547A      3.307198   548A      3.312040   549A      3.328018  
     550A      3.339708   551A      3.350249   552A      3.357272  
     553A      3.365161   554A      3.371977   555A      3.373711  
     556A      3.383825   557A      3.394291   558A      3.407147  
     559A      3.412629   560A      3.416655   561A      3.422206  
     562A      3.426636   563A      3.427816   564A      3.445308  
     565A      3.448574   566A      3.465698   567A      3.474714  
     568A      3.489599   569A      3.501070   570A      3.511932  
     571A      3.515645   572A      3.541776   573A      3.548448  
     574A      3.552974   575A      3.561710   576A      3.563696  
     577A      3.579676   578A      3.583101   579A      3.586257  
     580A      3.613621   581A      3.618892   582A      3.624186  
     583A      3.635091   584A      3.646286   585A      3.653267  
     586A      3.661608   587A      3.677977   588A      3.688274  
     589A      3.697117   590A      3.701944   591A      3.704343  
     592A      3.708126   593A      3.720009   594A      3.722094  
     595A      3.756005   596A      3.760788   597A      3.761549  
     598A      3.771626   599A      3.780971   600A      3.783994  
     601A      3.799075   602A      3.802236   603A      3.814323  
     604A      3.820922   605A      3.835279   606A      3.838266  
     607A      3.853746   608A      3.858149   609A      3.865991  
     610A      3.874229   611A      3.881646   612A      3.882143  
     613A      3.889009   614A      3.897837   615A      3.904915  
     616A      3.922959   617A      3.934169   618A      3.946709  
     619A      3.956111   620A      3.956682   621A      3.965041  
     622A      3.975951   623A      3.987372   624A      4.003581  
     625A      4.005679   626A      4.018706   627A      4.030181  
     628A      4.032831   629A      4.036860   630A      4.048488  
     631A      4.050851   632A      4.064029   633A      4.069192  
     634A      4.074019   635A      4.096801   636A      4.104236  
     637A      4.110019   638A      4.114798   639A      4.130604  
     640A      4.140345   641A      4.153726   642A      4.161833  
     643A      4.176675   644A      4.183348   645A      4.191369  
     646A      4.198558   647A      4.203903   648A      4.215402  
     649A      4.224030   650A      4.230365   651A      4.235295  
     652A      4.239372   653A      4.252638   654A      4.255450  
     655A      4.267166   656A      4.273896   657A      4.277666  
     658A      4.288054   659A      4.296757   660A      4.307927  
     661A      4.310889   662A      4.324409   663A      4.333742  
     664A      4.343162   665A      4.345442   666A      4.360391  
     667A      4.368529   668A      4.372714   669A      4.382344  
     670A      4.393238   671A      4.404797   672A      4.411379  
     673A      4.424125   674A      4.430766   675A      4.436979  
     676A      4.456029   677A      4.472116   678A      4.476095  
     679A      4.493880   680A      4.509671   681A      4.520948  
     682A      4.554504   683A      4.576789   684A      4.578298  
     685A      4.588585   686A      4.600747   687A      4.617369  
     688A      4.625634   689A      4.640696   690A      4.644639  
     691A      4.647840   692A      4.674409   693A      4.688356  
     694A      4.700477   695A      4.720883   696A      4.726214  
     697A      4.741643   698A      4.747905   699A      4.766786  
     700A      4.769178   701A      4.806570   702A      4.814269  
     703A      4.824769   704A      4.835114   705A      4.837018  
     706A      4.841886   707A      4.856492   708A      4.864705  
     709A      4.878911   710A      4.901958   711A      4.918464  
     712A      4.925506   713A      4.926301   714A      4.939363  
     715A      4.951321   716A      4.954414   717A      4.970647  
     718A      4.984085   719A      4.997767   720A      5.006038  
     721A      5.009453   722A      5.023267   723A      5.025159  
     724A      5.044220   725A      5.048968   726A      5.062240  
     727A      5.087582   728A      5.093390   729A      5.112376  
     730A      5.121272   731A      5.139263   732A      5.152069  
     733A      5.171015   734A      5.184950   735A      5.196818  
     736A      5.203692   737A      5.209611   738A      5.217873  
     739A      5.236466   740A      5.265690   741A      5.288007  
     742A      5.294971   743A      5.306316   744A      5.323870  
     745A      5.341944   746A      5.352444   747A      5.357838  
     748A      5.380243   749A      5.390452   750A      5.408206  
     751A      5.433536   752A      5.452106   753A      5.473011  
     754A      5.506393   755A      5.526935   756A      5.551414  
     757A      5.574390   758A      5.587576   759A      5.604389  
     760A      5.610055   761A      5.629694   762A      5.661084  
     763A      5.681115   764A      5.697343   765A      5.723959  
     766A      5.731183   767A      5.774596   768A      5.807541  
     769A      5.840192   770A      5.873084   771A      5.933216  
     772A      5.943565   773A      5.985435   774A      5.986482  
     775A      6.020747   776A      6.025258   777A      6.101865  
     778A      6.125910   779A      6.164930   780A      6.207023  
     781A      6.229811   782A      6.262945   783A      6.301684  
     784A      6.340097   785A      6.378871   786A      6.389892  
     787A      6.409335   788A      6.470145   789A      6.481422  
     790A      6.525871   791A      6.570986   792A      6.647650  
     793A      6.658953   794A      6.747384   795A      6.780144  
     796A      6.797917   797A      6.803804   798A      6.832823  
     799A      6.860054   800A      6.904977   801A      6.949131  
     802A      6.974709   803A      6.980764   804A      7.109777  
     805A      7.164840   806A      7.324719   807A      7.335891  
     808A      7.454608   809A      7.541434   810A      7.591397  
     811A      7.609722   812A      7.657630   813A      7.914741  
     814A      8.292703   815A      8.543576   816A     16.004248  
     817A     16.221098   818A     16.470818   819A     16.613560  
     820A     16.890302   821A     18.767745   822A     19.122418  
     823A     19.354578   824A     19.708737   825A     19.871092  
     826A     20.195033   827A     20.238494   828A     21.859728  

    Final Occupation by Irrep:
              A 
    DOCC [    45 ]

  Energy converged.

  @DF-RHF Final Energy:  -551.67575729839996

   => Energetics <=

    Nuclear Repulsion Energy =            712.6808457661902594
    One-Electron Energy =               -2148.3595621845665846
    Two-Electron Energy =                 884.0029591199763672
    DFT Exchange-Correlation Energy =       0.0000000000000000
    Empirical Dispersion Energy =           0.0000000000000000
    PCM Polarization Energy =               0.0000000000000000
    EFP Energy =                            0.0000000000000000
    Total Energy =                       -551.6757572983999580



Properties will be evaluated at   0.000000,   0.000000,   0.000000 Bohr

Properties computed using the SCF density matrix

  Nuclear Dipole Moment: (a.u.)
     X:     2.9529      Y:    -1.6005      Z:    -0.9327

  Electronic Dipole Moment: (a.u.)
     X:     0.4343      Y:    -0.2172      Z:    -0.5801

  Dipole Moment: (a.u.)
     X:     3.3873      Y:    -1.8177      Z:    -1.5128     Total:     4.1311

  Dipole Moment: (Debye)
     X:     8.6095      Y:    -4.6200      Z:    -3.8450     Total:    10.5002


*** tstop() called on gpu-1-7.local at Sun Nov 12 07:43:27 2017
Module time:
	user time   =    1152.40 seconds =      19.21 minutes
	system time =      52.58 seconds =       0.88 minutes
	total time  =        483 seconds =       8.05 minutes
Total time:
	user time   =    1152.40 seconds =      19.21 minutes
	system time =      52.58 seconds =       0.88 minutes
	total time  =        483 seconds =       8.05 minutes

  //>>>>>>>>>>>>>>>>>>>>>>>>>>>>>>>>>>>//
  //               DFMP2               //
  //<<<<<<<<<<<<<<<<<<<<<<<<<<<<<<<<<<<//

   => Loading Basis Set <=

    Name: (AUG-CC-PVTZ AUX)
    Role: RIFIT
    Keyword: DF_BASIS_MP2
    atoms 1-11  entry C          line   147 file /cbio/jclab/home/chayas/anaconda/envs/py35/share/psi4/basis/aug-cc-pvtz-ri.gbs 
    atoms 12    entry N          line   205 file /cbio/jclab/home/chayas/anaconda/envs/py35/share/psi4/basis/aug-cc-pvtz-ri.gbs 
    atoms 13    entry O          line   263 file /cbio/jclab/home/chayas/anaconda/envs/py35/share/psi4/basis/aug-cc-pvtz-ri.gbs 
    atoms 14-23 entry H          line    29 file /cbio/jclab/home/chayas/anaconda/envs/py35/share/psi4/basis/aug-cc-pvtz-ri.gbs 

	 --------------------------------------------------------
	                          DF-MP2                         
	      2nd-Order Density-Fitted Moller-Plesset Theory     
	              RMP2 Wavefunction,   8 Threads             
	                                                         
	        Rob Parrish, Justin Turney, Andy Simmonett,      
	           Ed Hohenstein, and C. David Sherrill          
	 --------------------------------------------------------

   => Auxiliary Basis Set <=

  Basis Set: (AUG-CC-PVTZ AUX)
    Blend: AUG-CC-PVTZ-RI
    Number of shells: 504
    Number of basis function: 1838
    Number of Cartesian functions: 2318
    Spherical Harmonics?: true
    Max angular momentum: 4

	 --------------------------------------------------------
	                 NBF =   828, NAUX =  1838
	 --------------------------------------------------------
	   CLASS    FOCC     OCC    AOCC    AVIR     VIR    FVIR
	   PAIRS       0      45      45     783     783       0
	 --------------------------------------------------------


         ------------------------------------------------------------
                                     CPHF                           
                                  Rob Parrish                       
         ------------------------------------------------------------

  ==> Geometry <==

    Molecular point group: c1
    Full point group: C1

    Geometry (in Angstrom), charge = 1, multiplicity = 1:

       Center              X                  Y                   Z               Mass       
    ------------   -----------------  -----------------  -----------------  -----------------
           C         -1.271916188788     0.719945803318    -0.579467533270    12.000000000000
           C         -0.278916188788     0.103945803318     1.534532466730    12.000000000000
           C         -2.349916188788     1.292945803318     0.093532466730    12.000000000000
           C         -1.356916188788     0.676945803318     2.208532466730    12.000000000000
           C          1.360083811212    -1.718054196682    -0.172467533270    12.000000000000
           C          1.483083811212     0.206945803318    -1.615467533270    12.000000000000
           C          2.435083811212    -2.264054196682    -0.859467533270    12.000000000000
           C          2.555083811212    -0.387054196682    -2.266467533270    12.000000000000
           C         -0.235916188788     0.124945803318     0.140532466730    12.000000000000
           C          0.883083811212    -0.469054196682    -0.557467533270    12.000000000000
           C         -2.392916188788     1.271945803318     1.487532466730    12.000000000000
           N          2.995083811212    -1.591054196682    -1.874467533270    14.003074004780
           O         -3.444916188788     1.831945803318     2.144532466730    15.994914619560
           H         -1.252916188788     0.743945803318    -1.666467533270     1.007825032070
           H          0.521083811212    -0.356054196682     2.110532466730     1.007825032070
           H         -3.153916188788     1.754945803318    -0.473467533270     1.007825032070
           H         -1.384916188788     0.657945803318     3.294532466730     1.007825032070
           H          0.911083811212    -2.269054196682     0.648532466730     1.007825032070
           H          1.132083811212     1.182945803318    -1.936467533270     1.007825032070
           H          2.871083811212    -3.227054196682    -0.630467533270     1.007825032070
           H          3.081083811212     0.062945803318    -3.096467533270     1.007825032070
           H          3.784083811212    -2.010054196682    -2.365467533270     1.007825032070
           H         -3.331916188788     1.737945803318     3.103532466730     1.007825032070

  Nuclear repulsion =  712.680845766190259
  Reference energy  = -551.675757298399958

  ==> Basis Set <==

  Basis Set: AUG-CC-PVTZ
    Blend: AUG-CC-PVTZ
    Number of shells: 272
    Number of basis function: 828
    Number of Cartesian functions: 965
    Spherical Harmonics?: true
    Max angular momentum: 3

  ==> CGRSolver (by Rob Parrish) <==

   Number of roots    =         1
   Preconditioning    =    JACOBI
   Convergence cutoff =     1E-06
   Maximum iterations =       100

  ==> CPHFRHamiltonian (by Rob Parrish) <== 

  ==> DFJK: Density-Fitted J/K Matrices <==

    J tasked:                  Yes
    K tasked:                  Yes
    wK tasked:                  No
    OpenMP threads:              8
    Integrals threads:           8
    Memory (MB):              3576
    Algorithm:                Disk
    Integral Cache:           NONE
    Schwarz Cutoff:          1E-12
    Fitting Condition:       1E-12

   => Auxiliary Basis Set <=

  Basis Set: (AUG-CC-PVTZ AUX)
    Blend: AUG-CC-PVTZ-JKFIT
    Number of shells: 530
    Number of basis function: 1812
    Number of Cartesian functions: 2253
    Spherical Harmonics?: true
    Max angular momentum: 4

  ==> CPHF Iterations <==

  => Iterations <=

             Iter  Converged  Remaining    Residual
  CGR           1          0          1   1.093E-01
  CGR           2          0          1   4.937E-02
  CGR           3          0          1   2.878E-02
  CGR           4          0          1   9.183E-03
  CGR           5          0          1   4.068E-03
  CGR           6          0          1   2.018E-03
  CGR           7          0          1   6.340E-04
  CGR           8          0          1   2.570E-04
  CGR           9          0          1   1.252E-04
  CGR          10          0          1   4.461E-05
  CGR          11          0          1   1.504E-05
  CGR          12          0          1   5.548E-06
  CGR          13          0          1   1.756E-06
  CGR          14          1          0   5.819E-07

    CGRSolver converged.

  ==> DFCorrGrad: Density-Fitted Correlated Gradients <==

    OpenMP threads:              8
    Integrals threads:           8
    Memory (MB):              3576
    Schwarz Cutoff:          0E+00
    Fitting Condition:       1E-12

   => Auxiliary Basis Set <=

  Basis Set: (AUG-CC-PVTZ AUX)
    Blend: AUG-CC-PVTZ-JKFIT
    Number of shells: 530
    Number of basis function: 1812
    Number of Cartesian functions: 2253
    Spherical Harmonics?: true
    Max angular momentum: 4

	-----------------------------------------------------------
	 ==================> DF-MP2 Energies <==================== 
	-----------------------------------------------------------
	 Reference Energy          =    -551.6757572983999580 [Eh]
	 Singles Energy            =      -0.0000000000000003 [Eh]
	 Same-Spin Energy          =      -0.5963916265366230 [Eh]
	 Opposite-Spin Energy      =      -1.8251248004706035 [Eh]
	 Correlation Energy        =      -2.4215164270072269 [Eh]
	 Total Energy              =    -554.0972737254071490 [Eh]
	-----------------------------------------------------------
	 ================> DF-SCS-MP2 Energies <================== 
	-----------------------------------------------------------
	 SCS Same-Spin Scale       =       0.3333333333333333 [-]
	 SCS Opposite-Spin Scale   =       1.2000000000000000 [-]
	 SCS Same-Spin Energy      =      -0.1987972088455410 [Eh]
	 SCS Opposite-Spin Energy  =      -2.1901497605647240 [Eh]
	 SCS Correlation Energy    =      -2.3889469694102656 [Eh]
	 SCS Total Energy          =    -554.0647042678102707 [Eh]
	-----------------------------------------------------------


  -Total Gradient:
     Atom            X                  Y                   Z
    ------   -----------------  -----------------  -----------------
       1        0.007117777293    -0.009930182266    -0.005724054501
       2        0.009944271335     0.001313595907    -0.008384739832
       3        0.000187290448    -0.000105689660     0.006377261692
       4       -0.010833653158     0.005293665325     0.006341815815
       5       -0.017697668791     0.007610933213     0.006259221512
       6       -0.012956192534     0.008680081128     0.012490688080
       7        0.005067495028     0.005281124138    -0.010507700600
       8        0.005891702651    -0.010544801313     0.003562443333
       9       -0.000038014254    -0.000190004278    -0.000418767394
      10        0.011123180023    -0.005834088543    -0.007044885824
      11        0.002374873334    -0.000776350431    -0.014324340888
      12       -0.000084999428     0.000087761556     0.000003987513
      13       -0.004665096594     0.002401232746     0.008529403902
      14        0.000470961681     0.001198097278    -0.005151784327
      15        0.002897977471    -0.003050162611     0.003346923384
      16       -0.002844660698     0.002432722290    -0.004980131772
      17       -0.000053788481    -0.000757142202     0.004395049585
      18       -0.001687394006    -0.002675630368     0.005347678934
      19       -0.002573634382     0.004860284061    -0.002461814911
      20        0.002332998435    -0.002129598690    -0.000150091383
      21        0.001596477478    -0.000456049747    -0.002103265140
      22        0.004913184195    -0.002629595761    -0.002979873024
      23       -0.000483087057    -0.000080201759     0.007576975858


*** tstop() called on gpu-1-7.local at Sun Nov 12 08:18:01 2017
Module time:
	user time   =    5480.35 seconds =      91.34 minutes
	system time =     118.27 seconds =       1.97 minutes
	total time  =       2557 seconds =      42.62 minutes
Total time:
	user time   =    5480.35 seconds =      91.34 minutes
	system time =     118.27 seconds =       1.97 minutes
	total time  =       2557 seconds =      42.62 minutes

			-----------------------------------------
			 OPTKING 2.0: for geometry optimizations 
			  - R.A. King,  Bethel University        
			-----------------------------------------

	Internal coordinates to be generated automatically.
	Detected frag 1 with atoms:  1 2 3 4 5 6 7 8 9 10 11 12 13 14 15 16 17 18 19 20
	 21 22 23
	---Fragment 1 Bond Connectivity---
	 1 : 3 9 14
	 2 : 4 9 15
	 3 : 1 11 16
	 4 : 2 11 17
	 5 : 7 10 18
	 6 : 8 10 19
	 7 : 5 12 20
	 8 : 6 12 21
	 9 : 1 2 10
	 10 : 5 6 9
	 11 : 3 4 13
	 12 : 7 8 22
	 13 : 11 23
	 14 : 1
	 15 : 2
	 16 : 3
	 17 : 4
	 18 : 5
	 19 : 6
	 20 : 7
	 21 : 8
	 22 : 12
	 23 : 13

	Assuming in current code that numbering for constraints corresponds to unified fragment.
	Fixed dihedral atom list: 
	     1     9    10     5
	---Fragment 1 Geometry and Gradient---
	 C          -2.4035732608        1.3605003988       -1.0950349408
	 C          -0.5270752108        0.1964291009        2.8998461041
	 C          -4.4406980320        2.4433134729        0.1767507467
	 C          -2.5641999821        1.2792421751        4.1735215177
	 C           2.5701859210       -3.2466519132       -0.3259164047
	 C           2.8026222353        0.3910708926       -3.0527912144
	 C           4.6016415138       -4.2784423817       -1.6241582580
	 C           4.8284086498       -0.7314264303       -4.2830029270
	 C          -0.4458169871        0.2361133497        0.2655678749
	 C           1.6687865556       -0.8863839732       -1.0534609659
	 C          -4.5219562558        2.4036292241        2.8110289759
	 N           5.6598881482       -3.0066566943       -3.5422302829
	 O          -6.5099481476        3.4618758586        4.0525790452
	 H          -2.3676684643        1.4058538260       -3.1491672472
	 H           0.9847056955       -0.6728449202        3.9883283567
	 H          -5.9600378429        3.3163669463       -0.8947239707
	 H          -2.6171123138        1.2433373786        6.2257640980
	 H           1.7216988873       -4.2878910124        1.2255487504
	 H           2.1393283627        2.2354435983       -3.6593933031
	 H           5.4255621078       -6.0982486477       -1.1914109736
	 H           5.8224045957        0.1189503295       -5.8514756173
	 H           7.1508820671       -3.7984519440       -4.4700858141
	 H          -6.2964090945        3.2842416021        5.8648264066
	             0.0071177773       -0.0099301823       -0.0057240545
	             0.0099442713        0.0013135959       -0.0083847398
	             0.0001872904       -0.0001056897        0.0063772617
	            -0.0108336532        0.0052936653        0.0063418158
	            -0.0176976688        0.0076109332        0.0062592215
	            -0.0129561925        0.0086800811        0.0124906881
	             0.0050674950        0.0052811241       -0.0105077006
	             0.0058917027       -0.0105448013        0.0035624433
	            -0.0000380143       -0.0001900043       -0.0004187674
	             0.0111231800       -0.0058340885       -0.0070448858
	             0.0023748733       -0.0007763504       -0.0143243409
	            -0.0000849994        0.0000877616        0.0000039875
	            -0.0046650966        0.0024012327        0.0085294039
	             0.0004709617        0.0011980973       -0.0051517843
	             0.0028979775       -0.0030501626        0.0033469234
	            -0.0028446607        0.0024327223       -0.0049801318
	            -0.0000537885       -0.0007571422        0.0043950496
	            -0.0016873940       -0.0026756304        0.0053476789
	            -0.0025736344        0.0048602841       -0.0024618149
	             0.0023329984       -0.0021295987       -0.0001500914
	             0.0015964775       -0.0004560497       -0.0021032651
	             0.0049131842       -0.0026295958       -0.0029798730
	            -0.0004830871       -0.0000802018        0.0075769759

	Previous optimization step data not found.  Starting new optimization.

	---Fragment 1 Intrafragment Coordinates---
	 - Coordinate -           - BOHR/RAD -       - ANG/DEG -
	 R(1,3)           =         2.634350	       1.394038
	 R(1,9)           =         2.635962	       1.394891
	 R(1,14)          =         2.054947	       1.087431
	 R(2,4)           =         2.635263	       1.394521
	 R(2,9)           =         2.635830	       1.394821
	 R(2,15)          =         2.055702	       1.087831
	 R(3,11)          =         2.635830	       1.394821
	 R(3,16)          =         2.053941	       1.086899
	 R(4,11)          =         2.636938	       1.395407
	 R(4,17)          =         2.053239	       1.086527
	 R(5,7)           =         2.622372	       1.387700
	 R(5,10)          =         2.629203	       1.391314
	 R(5,18)          =         2.052109	       1.085930
	 R(6,8)           =         2.622448	       1.387740
	 R(6,10)          =         2.629600	       1.391524
	 R(6,19)          =         2.051740	       1.085734
	 R(7,12)          =         2.533047	       1.340431
	 R(7,20)          =         2.043969	       1.081622
	 R(8,12)          =         2.533135	       1.340478
	 R(8,21)          =         2.042370	       1.080776
	 R(9,10)          =         2.733384	       1.446444
	 R(11,13)         =         2.571662	       1.360865
	 R(12,22)         =         1.926374	       1.019393
	 R(13,23)         =         1.833410	       0.970199
	 B(1,3,11)        =         2.094553	     120.009056
	 B(1,3,16)        =         2.088505	     119.662516
	 B(1,9,2)         =         2.093692	     119.959722
	 B(1,9,10)        =         2.095161	     120.043881
	 B(2,4,11)        =         2.093699	     119.960108
	 B(2,4,17)        =         2.089577	     119.723926
	 B(2,9,10)        =         2.094332	     119.996376
	 B(3,1,9)         =         2.094940	     120.031219
	 B(3,1,14)        =         2.079469	     119.144799
	 B(3,11,4)        =         2.094306	     119.994870
	 B(3,11,13)       =         2.094549	     120.008801
	 B(4,2,9)         =         2.095181	     120.045019
	 B(4,2,15)        =         2.078675	     119.099297
	 B(4,11,13)       =         2.094331	     119.996326
	 B(5,7,12)        =         2.095506	     120.063672
	 B(5,7,20)        =         2.162478	     123.900847
	 B(5,10,6)        =         2.092863	     119.912225
	 B(5,10,9)        =         2.094802	     120.023338
	 B(6,8,12)        =         2.095356	     120.055041
	 B(6,8,21)        =         2.162765	     123.917322
	 B(6,10,9)        =         2.095519	     120.064407
	 B(7,5,10)        =         2.073510	     118.803375
	 B(7,5,18)        =         2.088569	     119.666195
	 B(7,12,8)        =         2.135617	     122.361838
	 B(7,12,22)       =         2.073399	     118.796995
	 B(8,6,10)        =         2.073518	     118.803803
	 B(8,6,19)        =         2.089564	     119.723188
	 B(8,12,22)       =         2.074170	     118.841164
	 B(9,1,14)        =         2.108776	     120.823969
	 B(9,2,15)        =         2.109330	     120.855683
	 B(10,5,18)       =         2.121106	     121.530429
	 B(10,6,19)       =         2.120102	     121.472875
	 B(11,3,16)       =         2.100127	     120.328425
	 B(11,4,17)       =         2.099910	     120.315955
	 B(11,13,23)      =         1.925489	     110.322421
	 B(12,7,20)       =         2.025201	     116.035461
	 B(12,8,21)       =         2.025064	     116.027610
	 D(1,3,11,4)      =        -0.000325	      -0.018609
	 D(1,3,11,13)     =         3.140978	     179.964785
	 D(1,9,2,4)       =         0.000325	       0.018608
	 D(1,9,2,15)      =        -3.141497	    -179.994534
	 D(1,9,10,5)      =        -2.356026	    -134.990363
	 D(1,9,10,6)      =         0.784459	      44.946173
	 D(2,4,11,3)      =         0.000301	       0.017261
	 D(2,4,11,13)     =        -3.141002	    -179.966135
	 D(2,9,1,3)       =        -0.000348	      -0.019945
	 D(2,9,1,14)      =        -3.141221	    -179.978731
	 D(2,9,10,5)      =         0.786483	      45.062140
	 D(2,9,10,6)      =        -2.356218	    -135.001324
	 D(3,1,9,10)      =        -3.141025	    -179.967461
	 D(3,11,4,17)     =         3.141223	     179.978848
	 D(3,11,13,23)    =         3.140828	     179.956172
	 D(4,2,9,10)      =         3.141002	     179.966149
	 D(4,11,3,16)     =         3.141593	     180.000000
	 D(4,11,13,23)    =        -0.001055	      -0.060434
	 D(5,7,12,8)      =        -0.000124	      -0.007121
	 D(5,7,12,22)     =         3.141097	     179.971603
	 D(5,10,6,8)      =        -0.001385	      -0.079340
	 D(5,10,6,19)     =        -3.140646	    -179.945777
	 D(6,8,12,7)      =         0.000078	       0.004465
	 D(6,8,12,22)     =        -3.141143	    -179.974250
	 D(6,10,5,7)      =         0.001340	       0.076783
	 D(6,10,5,18)     =        -3.140413	    -179.932417
	 D(7,5,10,9)      =        -3.141359	    -179.986585
	 D(7,12,8,21)     =        -3.140501	    -179.937477
	 D(8,6,10,9)      =         3.141314	     179.984053
	 D(8,12,7,20)     =         3.140598	     179.943027
	 D(9,1,3,11)      =         0.000348	       0.019955
	 D(9,1,3,16)      =        -3.141571	    -179.998735
	 D(9,2,4,11)      =        -0.000301	      -0.017270
	 D(9,2,4,17)      =        -3.141228	    -179.979086
	 D(9,10,5,18)     =         0.000074	       0.004216
	 D(9,10,6,19)     =         0.002053	       0.117617
	 D(10,5,7,12)     =        -0.000588	      -0.033697
	 D(10,5,7,20)     =        -3.141239	    -179.979729
	 D(10,6,8,12)     =         0.000679	       0.038900
	 D(10,6,8,21)     =         3.141174	     179.976033
	 D(10,9,1,14)     =         0.001287	       0.073752
	 D(10,9,2,15)     =        -0.000820	      -0.046992
	 D(11,3,1,14)     =         3.141234	     179.979432
	 D(11,4,2,15)     =         3.141517	     179.995641
	 D(12,7,5,18)     =         3.141162	     179.975328
	 D(12,8,6,19)     =         3.139982	     179.907727
	 D(13,11,3,16)    =        -0.000286	      -0.016400
	 D(13,11,4,17)    =        -0.000079	      -0.004548
	 D(14,1,3,16)     =        -0.000685	      -0.039257
	 D(15,2,4,17)     =         0.000590	       0.033826
	 D(18,5,7,20)     =         0.000511	       0.029296
	 D(19,6,8,21)     =        -0.002708	      -0.155140
	 D(20,7,12,22)    =        -0.001366	      -0.078249
	 D(21,8,12,22)    =         0.001463	       0.083808

	Current energy   :      -554.0972737254

	Generating empirical Hessian (Schlegel '84) for each fragment.
	Adding user-defined constraint: Fragment 1; Coordinate 66:
		Value =    -2.356026; Fixed value    =    -2.356194
		Force =    -0.000084; Force constant =     0.500000
	Removing off-diagonal coupling between coordinate 66 and others.
	Taking RFO optimization step.
	Going to follow RFO solution 1.
	Using RFO vector 1.

	Determining step-restricting scale parameter for RS-RFO.
	Maximum step size allowed    0.10000

	 Iter      |step|        alpha        rfo_root  
	------------------------------------------------
	    0     0.22802       1.00000           1
	    1     0.16410       4.13244           1
	    2     0.12982      10.30718           1
	    3     0.11031      19.80760           1
	    4     0.10171      27.10794           1
	    5     0.10006      28.83562           1
	    6     0.10000      28.89786           1
	------------------------------------------------
	Norm of target step-size    0.10000
	Projected energy change by RFO approximation:        -0.0040865310

	Back-transformation to cartesian coordinates...
	Could not converge backtransformation.
	Using first guess instead.

	--- Internal Coordinate Step in ANG or DEG, aJ/ANG or AJ/DEG ---
	 ---------------------------------------------------------------------------
	   Coordinate                Previous        Force       Change         New 
	   ----------                --------       ------       ------       ------
	    1 R(1,3)          =      1.394038    -0.093822    -0.010353     1.383685
	    2 R(1,9)          =      1.394891     0.004581     0.000611     1.395502
	    3 R(1,14)         =      1.087431    -0.042713    -0.005840     1.081591
	    4 R(2,4)          =      1.394521    -0.093965    -0.010278     1.384243
	    5 R(2,9)          =      1.394821    -0.005562    -0.000452     1.394369
	    6 R(2,15)         =      1.087831    -0.042785    -0.005856     1.081974
	    7 R(3,11)         =      1.394821    -0.055705    -0.006250     1.388571
	    8 R(3,16)         =      1.086899    -0.047260    -0.006411     1.080488
	    9 R(4,11)         =      1.395407    -0.007052    -0.000844     1.394564
	   10 R(4,17)         =      1.086527    -0.036312    -0.004953     1.081574
	   11 R(5,7)          =      1.387700    -0.105167    -0.011311     1.376389
	   12 R(5,10)         =      1.391314     0.048125     0.005403     1.396717
	   13 R(5,18)         =      1.085930    -0.050243    -0.006835     1.079095
	   14 R(6,8)          =      1.387740    -0.105791    -0.011352     1.376388
	   15 R(6,10)         =      1.391524     0.046855     0.005239     1.396763
	   16 R(6,19)         =      1.085734    -0.048847    -0.006651     1.079082
	   17 R(7,12)         =      1.340431     0.018731     0.001776     1.342207
	   18 R(7,20)         =      1.081622    -0.023107    -0.003107     1.078515
	   19 R(8,12)         =      1.340478     0.018576     0.001706     1.342183
	   20 R(8,21)         =      1.080776    -0.018144    -0.002397     1.078378
	   21 R(9,10)         =      1.446444     0.043192     0.005491     1.451936
	   22 R(11,13)        =      1.360865    -0.104720    -0.009586     1.351279
	   23 R(12,22)        =      1.019393    -0.052059    -0.005924     1.013470
	   24 R(13,23)        =      0.970199    -0.061304    -0.005740     0.964459
	   25 B(1,3,11)       =    120.009056    -0.000067    -0.190172   119.818885
	   26 B(1,3,16)       =    119.662516     0.000217     0.595104   120.257620
	   27 B(1,9,2)        =    119.959722    -0.000255    -0.492578   119.467143
	   28 B(1,9,10)       =    120.043881     0.000122     0.236388   120.280269
	   29 B(2,4,11)       =    119.960108     0.000051     0.105173   120.065282
	   30 B(2,4,17)       =    119.723926     0.000004     0.027932   119.751858
	   31 B(2,9,10)       =    119.996376     0.000133     0.255755   120.252131
	   32 B(3,1,9)        =    120.031219     0.000208     0.457831   120.489050
	   33 B(3,1,14)       =    119.144799    -0.000089    -0.190340   118.954459
	   34 B(3,11,4)       =    119.994870     0.000050     0.063085   120.057955
	   35 B(3,11,13)      =    120.008801    -0.001034    -2.108314   117.900487
	   36 B(4,2,9)        =    120.045019     0.000013     0.055530   120.100549
	   37 B(4,2,15)       =    119.099297     0.000052     0.129530   119.228827
	   38 B(4,11,13)      =    119.996326     0.000984     2.045230   122.041556
	   39 B(5,7,12)       =    120.063672    -0.000267    -0.619583   119.444088
	   40 B(5,7,20)       =    123.900847     0.000025     0.018347   123.919194
	   41 B(5,10,6)       =    119.912225    -0.000625    -1.278417   118.633807
	   42 B(5,10,9)       =    120.023338     0.000333     0.680494   120.703833
	   43 B(6,8,12)       =    120.055041    -0.000263    -0.616925   119.438115
	   44 B(6,8,21)       =    123.917322     0.000020     0.009296   123.926618
	   45 B(6,10,9)       =    120.064407     0.000292     0.596959   120.661365
	   46 B(7,5,10)       =    118.803375     0.000438     0.962767   119.766143
	   47 B(7,5,18)       =    119.666195    -0.000209    -0.457068   119.209127
	   48 B(7,12,8)       =    122.361838     0.000278     0.584153   122.945991
	   49 B(7,12,22)      =    118.796995    -0.000134    -0.277565   118.519431
	   50 B(8,6,10)       =    118.803803     0.000440     0.967724   119.771527
	   51 B(8,6,19)       =    119.723188    -0.000217    -0.479838   119.243350
	   52 B(8,12,22)      =    118.841164    -0.000143    -0.306587   118.534576
	   53 B(9,1,14)       =    120.823969    -0.000119    -0.268944   120.555025
	   54 B(9,2,15)       =    120.855683    -0.000065    -0.186616   120.669066
	   55 B(10,5,18)      =    121.530429    -0.000230    -0.506025   121.024404
	   56 B(10,6,19)      =    121.472875    -0.000222    -0.488610   120.984265
	   57 B(11,3,16)      =    120.328425    -0.000150    -0.404930   119.923495
	   58 B(11,4,17)      =    120.315955    -0.000055    -0.133094   120.182860
	   59 B(11,13,23)     =    110.322421    -0.000210    -0.574555   109.747865
	   60 B(12,7,20)      =    116.035461     0.000242     0.600746   116.636207
	   61 B(12,8,21)      =    116.027610     0.000243     0.607566   116.635176
	   62 D(1,3,11,4)     =     -0.018609    -0.000006    -0.166309    -0.184918
	   63 D(1,3,11,13)    =    179.964785    -0.000006    -0.136052   179.828733
	   64 D(1,9,2,4)      =      0.018608    -0.000010    -0.300323    -0.281716
	   65 D(1,9,2,15)     =   -179.994534     0.000010     0.170325  -179.824209
	   66 D(1,9,10,5)     =   -134.990363    -0.000026    -0.262826  -135.253189
	   67 D(1,9,10,6)     =     44.946173    -0.000032    -0.567128    44.379045
	   68 D(2,4,11,3)     =      0.017261    -0.000006    -0.127797    -0.110536
	   69 D(2,4,11,13)    =   -179.966135    -0.000006    -0.158634  -180.124769
	   70 D(2,9,1,3)      =     -0.019945    -0.000002     0.005414    -0.014531
	   71 D(2,9,1,14)     =   -179.978731     0.000015     0.409239  -179.569493
	   72 D(2,9,10,5)     =     45.062140    -0.000032    -0.562408    44.499732
	   73 D(2,9,10,6)     =   -135.001324    -0.000039    -0.866710  -135.868034
	   74 D(3,1,9,10)     =   -179.967461    -0.000009    -0.292213  -180.259674
	   75 D(3,11,4,17)    =    179.978848    -0.000005    -0.098103   179.880745
	   76 D(3,11,13,23)   =    179.956172     0.000001     0.020353   179.976525
	   77 D(4,2,9,10)     =    179.966149    -0.000003    -0.002792   179.963357
	   78 D(4,11,3,16)    =    180.000000    -0.000007    -0.187172   179.812828
	   79 D(4,11,13,23)   =     -0.060434     0.000001     0.050898    -0.009536
	   80 D(5,7,12,8)     =     -0.007121     0.000001     0.007121     0.000000
	   81 D(5,7,12,22)    =    179.971603     0.000002     0.044957   180.016560
	   82 D(5,10,6,8)     =     -0.079340    -0.000001    -0.085159    -0.164499
	   83 D(5,10,6,19)    =   -179.945777     0.000007     0.120766  -179.825011
	   84 D(6,8,12,7)     =      0.004465     0.000002     0.052949     0.057414
	   85 D(6,8,12,22)    =   -179.974250     0.000001     0.014503  -179.959746
	   86 D(6,10,5,7)     =      0.076783     0.000004     0.143667     0.220449
	   87 D(6,10,5,18)    =   -179.932417     0.000013     0.362387  -179.570030
	   88 D(7,5,10,9)     =   -179.986585    -0.000003    -0.153398  -180.139982
	   89 D(7,12,8,21)    =   -179.937477    -0.000006    -0.110588  -180.048065
	   90 D(8,6,10,9)     =    179.984053     0.000005     0.211721   180.195774
	   91 D(8,12,7,20)    =    179.943027    -0.000007    -0.193319   179.749708
	   92 D(9,1,3,11)     =      0.019955     0.000011     0.227067     0.247022
	   93 D(9,1,3,16)     =   -179.998735     0.000011     0.248018  -179.750717
	   94 D(9,2,4,11)     =     -0.017270     0.000014     0.361482     0.344212
	   95 D(9,2,4,17)     =   -179.979086     0.000013     0.331979  -179.647106
	   96 D(9,10,5,18)    =      0.004216     0.000006     0.065323     0.069539
	   97 D(9,10,6,19)    =      0.117617     0.000014     0.417645     0.535262
	   98 D(10,5,7,12)    =     -0.033697    -0.000004    -0.106879    -0.140576
	   99 D(10,5,7,20)    =   -179.979729     0.000005     0.108119  -179.871609
	  100 D(10,6,8,12)    =      0.038900    -0.000002    -0.010724     0.028176
	  101 D(10,6,8,21)    =    179.976033     0.000006     0.165774   180.141807
	  102 D(10,9,1,14)    =      0.073752     0.000008     0.111612     0.185364
	  103 D(10,9,2,15)    =     -0.046992     0.000016     0.467856     0.420864
	  104 D(11,3,1,14)    =    179.979432    -0.000006    -0.170397   179.809035
	  105 D(11,4,2,15)    =    179.995641    -0.000005    -0.102357   179.893284
	  106 D(12,7,5,18)    =    179.975328    -0.000013    -0.321609   179.653719
	  107 D(12,8,6,19)    =    179.907727    -0.000010    -0.213108   179.694619
	  108 D(13,11,3,16)   =     -0.016400    -0.000007    -0.157121    -0.173521
	  109 D(13,11,4,17)   =     -0.004548    -0.000005    -0.128940    -0.133488
	  110 D(14,1,3,16)    =     -0.039257    -0.000006    -0.149447    -0.188704
	  111 D(15,2,4,17)    =      0.033826    -0.000006    -0.131860    -0.098034
	  112 D(18,5,7,20)    =      0.029296    -0.000004    -0.106610    -0.077314
	  113 D(19,6,8,21)    =     -0.155140    -0.000002    -0.036611    -0.191750
	  114 D(20,7,12,22)   =     -0.078249    -0.000006    -0.154885    -0.233135
	  115 D(21,8,12,22)   =      0.083808    -0.000007    -0.149033    -0.065225
	 ---------------------------------------------------------------------------
	Successfully symmetrized geometry.
	 Forces used to impose fixed constraints are not included.
	  Forces zeroed: 66 

  ==> Convergence Check <==

  Measures of convergence in internal coordinates in au.
  Criteria marked as inactive (o), active & met (*), and active & unmet ( ).
  --------------------------------------------------------------------------------------------- ~
   Step     Total Energy     Delta E     MAX Force     RMS Force      MAX Disp      RMS Disp    ~
  --------------------------------------------------------------------------------------------- ~
    Convergence Criteria    1.00e-06 *    3.00e-04 *             o    1.20e-03 *             o  ~
  --------------------------------------------------------------------------------------------- ~
      1    -554.09727373   -5.54e+02      1.36e-02      4.04e-03 o    3.68e-02      9.31e-03 o  ~
  ---------------------------------------------------------------------------------------------

	Writing optimization data to binary file.
	Structure for next step:
	Cartesian Geometry (in Angstrom)
	    C    -1.2727703439   0.7302393500  -0.5590653737
	    C    -0.2839429622   0.1014492243   1.5463922200
	    C    -2.3459310351   1.2951351966   0.1071209770
	    C    -1.3539776293   0.6716282096   2.2142628615
	    C     1.3788163249  -1.7199068922  -0.1771324958
	    C     1.4913332073   0.1972863111  -1.6204755895
	    C     2.4407774035  -2.2684323557  -0.8596307906
	    C     2.5504969670  -0.3868004947  -2.2773298890
	    C    -0.2340526163   0.1292580121   0.1531932371
	    C     0.8871329360  -0.4670958839  -0.5506692217
	    C    -2.3884896148   1.2690885213   1.4947953298
	    N     2.9897918690  -1.5912776025  -1.8802011432
	    O    -3.4527183018   1.8351332342   2.1055034925
	    H    -1.2554383421   0.7556134703  -1.6402200294
	    H     0.5121252740  -0.3569034960   2.1181060655
	    H    -3.1501068863   1.7559327442  -0.4482354066
	    H    -1.3841224697   0.6519005578   3.2952371517
	    H     0.9367120946  -2.2700952843   0.6391283090
	    H     1.1439071709   1.1679225537  -1.9391909389
	    H     2.8718726577  -3.2299548741  -0.6297910641
	    H     3.0670903783   0.0663057962  -3.1084290928
	    H     3.7709162506  -2.0083858438  -2.3731371678
	    H    -3.3624946742   1.7507130222   3.0620152937
			--------------------------
			 OPTKING Finished Execution 
			--------------------------

    Structure for next step:
    Molecular point group: c1
    Full point group: C1

    Geometry (in Angstrom), charge = 1, multiplicity = 1:

    C           -1.274212541360     0.730461198203    -0.558912849788
    C           -0.285385159699     0.101671072511     1.546544743834
    C           -2.347373232589     1.295357044769     0.107273500863
    C           -1.355419826804     0.671850057794     2.214415385355
    C            1.377374127419    -1.719685043964    -0.176979971889
    C            1.489891009808     0.197508159310    -1.620323065620
    C            2.439335206029    -2.268210507478    -0.859478266753
    C            2.549054769488    -0.386578646498    -2.277177365173
    C           -0.235494813812     0.129479860280     0.153345760989
    C            0.885690738575    -0.466874035659    -0.550516697799
    C           -2.389931812300     1.269310369475     1.494947853619
    N            2.988349671525    -1.591055754328    -1.880048619315
    O           -3.454160499279     1.835355082420     2.105656016404
    H           -1.256880539586     0.755835318531    -1.640067505569
    H            0.510683076536    -0.356681647731     2.118258589400
    H           -3.151549083794     1.756154592442    -0.448082882741
    H           -1.385564667174     0.652122406030     3.295389675572
    H            0.935269897156    -2.269873436096     0.639280832879
    H            1.142464973468     1.168144401885    -1.939038415029
    H            2.870430460193    -3.229733025842    -0.629638540214
    H            3.065648180883     0.066527644397    -3.108276568904
    H            3.769474053140    -2.008163995561    -2.372984643930
    H           -3.363936871669     1.750934870449     3.062167817568

gradient() will perform analytic gradient computation.

*** tstart() called on gpu-1-7.local
*** at Sun Nov 12 08:18:02 2017

    SCF Algorithm Type (re)set to DF.

*** tstart() called on gpu-1-7.local
*** at Sun Nov 12 08:18:03 2017

   => Loading Basis Set <=

    Name: AUG-CC-PVTZ
    Role: ORBITAL
    Keyword: BASIS
    atoms 1-11  entry C          line   221 file /cbio/jclab/home/chayas/anaconda/envs/py35/share/psi4/basis/aug-cc-pvtz.gbs 
    atoms 12    entry N          line   267 file /cbio/jclab/home/chayas/anaconda/envs/py35/share/psi4/basis/aug-cc-pvtz.gbs 
    atoms 13    entry O          line   313 file /cbio/jclab/home/chayas/anaconda/envs/py35/share/psi4/basis/aug-cc-pvtz.gbs 
    atoms 14-23 entry H          line    34 file /cbio/jclab/home/chayas/anaconda/envs/py35/share/psi4/basis/aug-cc-pvtz.gbs 


         ---------------------------------------------------------
                                   SCF
            by Justin Turney, Rob Parrish, and Andy Simmonett
                              RHF Reference
                        8 Threads,   4768 MiB Core
         ---------------------------------------------------------

  ==> Geometry <==

    Molecular point group: c1
    Full point group: C1

    Geometry (in Angstrom), charge = 1, multiplicity = 1:

       Center              X                  Y                   Z               Mass       
    ------------   -----------------  -----------------  -----------------  -----------------
           C         -1.274212541360     0.730461198203    -0.558912849788    12.000000000000
           C         -0.285385159699     0.101671072511     1.546544743834    12.000000000000
           C         -2.347373232589     1.295357044769     0.107273500863    12.000000000000
           C         -1.355419826804     0.671850057794     2.214415385355    12.000000000000
           C          1.377374127419    -1.719685043964    -0.176979971889    12.000000000000
           C          1.489891009808     0.197508159310    -1.620323065620    12.000000000000
           C          2.439335206029    -2.268210507478    -0.859478266753    12.000000000000
           C          2.549054769488    -0.386578646498    -2.277177365173    12.000000000000
           C         -0.235494813812     0.129479860280     0.153345760989    12.000000000000
           C          0.885690738575    -0.466874035659    -0.550516697799    12.000000000000
           C         -2.389931812300     1.269310369475     1.494947853619    12.000000000000
           N          2.988349671525    -1.591055754328    -1.880048619315    14.003074004780
           O         -3.454160499279     1.835355082420     2.105656016404    15.994914619560
           H         -1.256880539586     0.755835318531    -1.640067505569     1.007825032070
           H          0.510683076536    -0.356681647731     2.118258589400     1.007825032070
           H         -3.151549083794     1.756154592442    -0.448082882741     1.007825032070
           H         -1.385564667174     0.652122406030     3.295389675572     1.007825032070
           H          0.935269897156    -2.269873436096     0.639280832879     1.007825032070
           H          1.142464973468     1.168144401885    -1.939038415029     1.007825032070
           H          2.870430460193    -3.229733025842    -0.629638540214     1.007825032070
           H          3.065648180883     0.066527644397    -3.108276568904     1.007825032070
           H          3.769474053140    -2.008163995561    -2.372984643930     1.007825032070
           H         -3.363936871669     1.750934870449     3.062167817568     1.007825032070

  Running in c1 symmetry.

  Rotational constants: A =      0.09635  B =      0.01321  C =      0.01203 [cm^-1]
  Rotational constants: A =   2888.54551  B =    395.91081  C =    360.67179 [MHz]
  Nuclear repulsion =  713.500622269215796

  Charge       = 1
  Multiplicity = 1
  Electrons    = 90
  Nalpha       = 45
  Nbeta        = 45

  ==> Algorithm <==

  SCF Algorithm Type is DF.
  DIIS enabled.
  MOM disabled.
  Fractional occupation disabled.
  Guess Type is READ.
  Energy threshold   = 1.00e-10
  Density threshold  = 1.00e-10
  Integral threshold = 0.00e+00

  ==> Primary Basis <==

  Basis Set: AUG-CC-PVTZ
    Blend: AUG-CC-PVTZ
    Number of shells: 272
    Number of basis function: 828
    Number of Cartesian functions: 965
    Spherical Harmonics?: true
    Max angular momentum: 3

   => Loading Basis Set <=

    Name: (AUG-CC-PVTZ AUX)
    Role: JKFIT
    Keyword: DF_BASIS_SCF
    atoms 1-11  entry C          line   161 file /cbio/jclab/home/chayas/anaconda/envs/py35/share/psi4/basis/aug-cc-pvtz-jkfit.gbs 
    atoms 12    entry N          line   223 file /cbio/jclab/home/chayas/anaconda/envs/py35/share/psi4/basis/aug-cc-pvtz-jkfit.gbs 
    atoms 13    entry O          line   285 file /cbio/jclab/home/chayas/anaconda/envs/py35/share/psi4/basis/aug-cc-pvtz-jkfit.gbs 
    atoms 14-23 entry H          line    69 file /cbio/jclab/home/chayas/anaconda/envs/py35/share/psi4/basis/aug-cc-pvtz-jkfit.gbs 

  Reading orbitals from file 180, no projection.

  ==> Pre-Iterations <==

   -------------------------------------------------------
    Irrep   Nso     Nmo     Nalpha   Nbeta   Ndocc  Nsocc
   -------------------------------------------------------
     A        828     828       0       0       0       0
   -------------------------------------------------------
    Total     828     828      45      45      45       0
   -------------------------------------------------------

  ==> Integral Setup <==

  ==> DFJK: Density-Fitted J/K Matrices <==

    J tasked:                  Yes
    K tasked:                  Yes
    wK tasked:                  No
    OpenMP threads:              8
    Integrals threads:           8
    Memory (MB):              3576
    Algorithm:                Disk
    Integral Cache:           NONE
    Schwarz Cutoff:          1E-12
    Fitting Condition:       1E-12

   => Auxiliary Basis Set <=

  Basis Set: (AUG-CC-PVTZ AUX)
    Blend: AUG-CC-PVTZ-JKFIT
    Number of shells: 530
    Number of basis function: 1812
    Number of Cartesian functions: 2253
    Spherical Harmonics?: true
    Max angular momentum: 4

  Minimum eigenvalue in the overlap matrix is 5.3551328469E-07.
  Using Symmetric Orthogonalization.

  SCF Guess: Orbitals guess was supplied from a previous computation.

  ==> Iterations <==

                           Total Energy        Delta E     RMS |[F,P]|

   @DF-RHF iter   0:  -551.76930940139846   -5.51769e+02   4.22055e-04 
   @DF-RHF iter   1:  -551.67998589425031    8.93235e-02   7.93925e-05 
   @DF-RHF iter   2:  -551.68028333251868   -2.97438e-04   5.09333e-05 DIIS
   @DF-RHF iter   3:  -551.68046478817553   -1.81456e-04   1.16706e-05 DIIS
   @DF-RHF iter   4:  -551.68047260747881   -7.81930e-06   3.29861e-06 DIIS
   @DF-RHF iter   5:  -551.68047460282207   -1.99534e-06   1.29092e-06 DIIS
   @DF-RHF iter   6:  -551.68047494859024   -3.45768e-07   6.42172e-07 DIIS
   @DF-RHF iter   7:  -551.68047506886501   -1.20275e-07   3.58329e-07 DIIS
   @DF-RHF iter   8:  -551.68047510685983   -3.79948e-08   1.04499e-07 DIIS
   @DF-RHF iter   9:  -551.68047511170789   -4.84806e-09   5.03534e-08 DIIS
   @DF-RHF iter  10:  -551.68047511209954   -3.91651e-10   2.01331e-08 DIIS
   @DF-RHF iter  11:  -551.68047511215718   -5.76392e-11   5.08389e-09 DIIS
   @DF-RHF iter  12:  -551.68047511214877    8.41283e-12   1.92685e-09 DIIS
   @DF-RHF iter  13:  -551.68047511216582   -1.70530e-11   9.17046e-10 DIIS
   @DF-RHF iter  14:  -551.68047511216400    1.81899e-12   3.53323e-10 DIIS
   @DF-RHF iter  15:  -551.68047511215286    1.11413e-11   2.00057e-10 DIIS
   @DF-RHF iter  16:  -551.68047511216287   -1.00044e-11   4.71725e-11 DIIS

  ==> Post-Iterations <==

    Orbital Energies (a.u.)
    -----------------------

    Doubly Occupied:                                                      

       1A    -20.701823     2A    -15.833943     3A    -11.483652  
       4A    -11.483520     5A    -11.448828     6A    -11.428719  
       7A    -11.413491     8A    -11.413260     9A    -11.375831  
      10A    -11.373315    11A    -11.370073    12A    -11.353533  
      13A    -11.347332    14A     -1.522450    15A     -1.511683  
      16A     -1.318757    17A     -1.265491    18A     -1.240890  
      19A     -1.154947    20A     -1.151497    21A     -1.066415  
      22A     -1.056640    23A     -0.976475    24A     -0.964350  
      25A     -0.949941    26A     -0.871733    27A     -0.860517  
      28A     -0.853884    29A     -0.820797    30A     -0.801677  
      31A     -0.786503    32A     -0.773910    33A     -0.754687  
      34A     -0.731083    35A     -0.719896    36A     -0.708378  
      37A     -0.705211    38A     -0.686525    39A     -0.654581  
      40A     -0.629126    41A     -0.617477    42A     -0.571352  
      43A     -0.540547    44A     -0.470037    45A     -0.436424  

    Virtual:                                                              

      46A     -0.104649    47A     -0.084782    48A     -0.062819  
      49A     -0.061545    50A     -0.058517    51A     -0.050926  
      52A     -0.042935    53A     -0.039259    54A     -0.036733  
      55A     -0.029732    56A     -0.023974    57A     -0.023642  
      58A     -0.015508    59A     -0.009565    60A     -0.005147  
      61A     -0.001736    62A      0.001143    63A      0.007547  
      64A      0.009318    65A      0.013236    66A      0.014954  
      67A      0.021031    68A      0.021304    69A      0.024833  
      70A      0.029816    71A      0.032409    72A      0.036800  
      73A      0.038182    74A      0.041852    75A      0.042780  
      76A      0.049175    77A      0.052016    78A      0.055302  
      79A      0.057850    80A      0.064707    81A      0.066116  
      82A      0.071598    83A      0.074715    84A      0.079579  
      85A      0.083594    86A      0.085285    87A      0.091246  
      88A      0.095328    89A      0.096869    90A      0.107748  
      91A      0.110717    92A      0.117248    93A      0.118216  
      94A      0.120973    95A      0.125866    96A      0.130449  
      97A      0.132964    98A      0.136759    99A      0.137572  
     100A      0.143831   101A      0.153768   102A      0.159171  
     103A      0.160733   104A      0.164429   105A      0.166065  
     106A      0.168651   107A      0.171874   108A      0.174725  
     109A      0.175602   110A      0.180104   111A      0.182430  
     112A      0.191724   113A      0.193695   114A      0.196533  
     115A      0.201432   116A      0.203023   117A      0.208952  
     118A      0.213861   119A      0.216353   120A      0.219132  
     121A      0.224729   122A      0.227991   123A      0.228717  
     124A      0.231395   125A      0.237603   126A      0.241373  
     127A      0.243143   128A      0.249330   129A      0.252791  
     130A      0.255464   131A      0.260164   132A      0.268375  
     133A      0.277813   134A      0.279965   135A      0.282253  
     136A      0.284633   137A      0.289364   138A      0.292099  
     139A      0.300227   140A      0.309940   141A      0.311135  
     142A      0.314368   143A      0.317085   144A      0.320304  
     145A      0.321447   146A      0.324472   147A      0.326964  
     148A      0.331148   149A      0.335699   150A      0.340698  
     151A      0.343185   152A      0.346607   153A      0.349062  
     154A      0.353191   155A      0.355068   156A      0.357982  
     157A      0.363143   158A      0.367732   159A      0.368099  
     160A      0.371589   161A      0.375770   162A      0.377250  
     163A      0.382171   164A      0.386208   165A      0.391102  
     166A      0.395279   167A      0.399708   168A      0.400212  
     169A      0.402893   170A      0.406396   171A      0.411009  
     172A      0.413481   173A      0.417440   174A      0.420002  
     175A      0.424608   176A      0.426163   177A      0.429713  
     178A      0.439214   179A      0.441710   180A      0.443753  
     181A      0.446099   182A      0.454419   183A      0.459598  
     184A      0.465512   185A      0.467688   186A      0.475302  
     187A      0.477797   188A      0.480551   189A      0.489676  
     190A      0.493942   191A      0.496644   192A      0.506246  
     193A      0.522117   194A      0.526070   195A      0.529577  
     196A      0.540764   197A      0.543383   198A      0.545524  
     199A      0.555421   200A      0.568163   201A      0.573592  
     202A      0.575169   203A      0.576623   204A      0.580803  
     205A      0.581966   206A      0.587423   207A      0.595265  
     208A      0.598003   209A      0.605330   210A      0.613673  
     211A      0.619153   212A      0.620254   213A      0.625709  
     214A      0.630329   215A      0.632179   216A      0.637497  
     217A      0.638629   218A      0.644832   219A      0.658938  
     220A      0.662398   221A      0.667941   222A      0.681975  
     223A      0.688045   224A      0.696599   225A      0.697685  
     226A      0.703179   227A      0.705763   228A      0.708674  
     229A      0.714226   230A      0.719789   231A      0.723625  
     232A      0.727029   233A      0.736464   234A      0.736994  
     235A      0.740531   236A      0.747450   237A      0.755060  
     238A      0.758881   239A      0.766937   240A      0.770921  
     241A      0.773818   242A      0.779417   243A      0.783554  
     244A      0.788529   245A      0.791786   246A      0.793000  
     247A      0.795719   248A      0.799349   249A      0.807977  
     250A      0.809099   251A      0.812509   252A      0.816096  
[...]
	 B(6,8,12)        =         2.082582	     119.323134
	 B(6,8,21)        =         2.160279	     123.774846
	 B(6,10,9)        =         2.115934	     121.234092
	 B(7,5,10)        =         2.105497	     120.636075
	 B(7,5,18)        =         2.074906	     118.883384
	 B(7,12,8)        =         2.141881	     122.720765
	 B(7,12,22)       =         2.070657	     118.639884
	 B(8,6,10)        =         2.105855	     120.656619
	 B(8,6,19)        =         2.074961	     118.886480
	 B(8,12,22)       =         2.070635	     118.638636
	 B(9,1,14)        =         2.097314	     120.167221
	 B(9,2,15)        =         2.097441	     120.174542
	 B(10,5,18)       =         2.102609	     120.470609
	 B(10,6,19)       =         2.102021	     120.436933
	 B(11,3,16)       =         2.073419	     118.798170
	 B(11,4,17)       =         2.095462	     120.061133
	 B(11,13,23)      =         1.929084	     110.528361
	 B(12,7,20)       =         2.040264	     116.898526
	 B(12,8,21)       =         2.040284	     116.899650
	 D(1,3,11,4)      =        -0.016456	      -0.942861
	 D(1,3,11,13)     =         3.129525	     179.308591
	 D(1,9,2,4)       =        -0.039075	      -2.238813
	 D(1,9,2,15)      =        -3.130477	    -179.363105
	 D(1,9,10,5)      =        -2.365737	    -135.546721
	 D(1,9,10,6)      =         0.714125	      40.916335
	 D(2,4,11,3)      =        -0.005501	      -0.315190
	 D(2,4,11,13)     =         3.131397	     179.415845
	 D(2,9,1,3)       =         0.016975	       0.972570
	 D(2,9,1,14)      =        -3.087745	    -176.914749
	 D(2,9,10,5)      =         0.698113	      39.998913
	 D(2,9,10,6)      =        -2.505211	    -143.538031
	 D(3,1,9,10)      =         3.081978	     176.584324
	 D(3,11,4,17)     =         3.135336	     179.641543
	 D(3,11,13,23)    =         3.137417	     179.760740
	 D(4,2,9,10)      =        -3.103828	    -177.836242
	 D(4,11,3,16)     =         3.114762	     178.462723
	 D(4,11,13,23)    =         0.000378	       0.021682
	 D(5,7,12,8)      =        -0.001748	      -0.100151
	 D(5,7,12,22)     =        -3.137896	    -179.788178
	 D(5,10,6,8)      =        -0.020914	      -1.198295
	 D(5,10,6,19)     =        -3.133821	    -179.554745
	 D(6,8,12,7)      =         0.005190	       0.297376
	 D(6,8,12,22)     =         3.141338	     179.985407
	 D(6,10,5,7)      =         0.024350	       1.395142
	 D(6,10,5,18)     =        -3.097010	    -177.445617
	 D(7,5,10,9)      =         3.106540	     177.991650
	 D(7,12,8,21)     =         3.137379	     179.758588
	 D(8,6,10,9)      =        -3.103188	    -177.799595
	 D(8,12,7,20)     =         3.120846	     178.811299
	 D(9,1,3,11)      =         0.010541	       0.603932
	 D(9,1,3,16)      =        -3.120421	    -178.786975
	 D(9,2,4,11)      =         0.033462	       1.917233
	 D(9,2,4,17)      =        -3.107376	    -178.039529
	 D(9,10,5,18)     =        -0.014820	      -0.849109
	 D(9,10,6,19)     =         0.067090	       3.843955
	 D(10,5,7,12)     =        -0.013552	      -0.776498
	 D(10,5,7,20)     =        -3.134767	    -179.608918
	 D(10,6,8,12)     =         0.006668	       0.382055
	 D(10,6,8,21)     =        -3.124836	    -179.039895
	 D(10,9,1,14)     =        -0.022742	      -1.302996
	 D(10,9,2,15)     =         0.087955	       5.039467
	 D(11,3,1,14)     =         3.115595	     178.510456
	 D(11,4,2,15)     =         3.125318	     179.067538
	 D(12,7,5,18)     =         3.108125	     178.082421
	 D(12,8,6,19)     =         3.120014	     178.763648
	 D(13,11,3,16)    =        -0.022442	      -1.285826
	 D(13,11,4,17)    =        -0.010951	      -0.627422
	 D(14,1,3,16)     =        -0.015367	      -0.880451
	 D(15,2,4,17)     =        -0.015520	      -0.889224
	 D(18,5,7,20)     =        -0.013090	      -0.749999
	 D(19,6,8,21)     =        -0.011490	      -0.658302
	 D(20,7,12,22)    =        -0.015302	      -0.876728
	 D(21,8,12,22)    =        -0.009658	      -0.553381

	Current energy   :      -554.1008159778

	Energy change for the previous step:
		Projected    :        -0.0000014148
		Actual       :         0.0000009534

	Performing BFGS update.
	Previous computed or guess Hessian on step 1.
	Steps to be used in Hessian update: 6 5
	Adding user-defined constraint: Fragment 1; Coordinate 66:
		Value =    -2.365737; Fixed value    =    -2.356190
		Force =     0.006205; Force constant =     0.650000
	Removing off-diagonal coupling between coordinate 66 and others.
	Taking RFO optimization step.
	Going to follow RFO solution 1.
	Rejecting RFO root 1 because normalization gives large value.
	Rejecting RFO root 2 because normalization gives large value.
	Using RFO vector 3.
	Norm of target step-size    0.00372
	Projected energy change by RFO approximation:        -0.0000003529

	Back-transformation to cartesian coordinates...
	Could not converge backtransformation.
	Using first guess instead.

	--- Internal Coordinate Step in ANG or DEG, aJ/ANG or AJ/DEG ---
	 ---------------------------------------------------------------------------
	   Coordinate                Previous        Force       Change         New 
	   ----------                --------       ------       ------       ------
	    1 R(1,3)          =      1.378247    -0.000027     0.000003     1.378250
	    2 R(1,9)          =      1.398361     0.000053     0.000004     1.398365
	    3 R(1,14)         =      1.080254     0.000077     0.000016     1.080270
	    4 R(2,4)          =      1.380860    -0.000091    -0.000014     1.380846
	    5 R(2,9)          =      1.396221    -0.000155    -0.000025     1.396196
	    6 R(2,15)         =      1.080397     0.000076     0.000017     1.080414
	    7 R(3,11)         =      1.393081    -0.000183    -0.000042     1.393038
	    8 R(3,16)         =      1.078564     0.000047     0.000012     1.078576
	    9 R(4,11)         =      1.393132     0.000025     0.000010     1.393142
	   10 R(4,17)         =      1.080327     0.000013     0.000001     1.080328
	   11 R(5,7)          =      1.372623    -0.000055    -0.000006     1.372618
	   12 R(5,10)         =      1.399866     0.000010    -0.000005     1.399861
	   13 R(5,18)         =      1.077958     0.000064     0.000008     1.077966
	   14 R(6,8)          =      1.372493    -0.000030    -0.000001     1.372491
	   15 R(6,10)         =      1.400044    -0.000187    -0.000033     1.400011
	   16 R(6,19)         =      1.078084     0.000116     0.000023     1.078106
	   17 R(7,12)         =      1.343418    -0.000124    -0.000019     1.343399
	   18 R(7,20)         =      1.077240     0.000020     0.000006     1.077246
	   19 R(8,12)         =      1.343404    -0.000017    -0.000004     1.343399
	   20 R(8,21)         =      1.077282    -0.000019    -0.000004     1.077278
	   21 R(9,10)         =      1.445287    -0.000077     0.000008     1.445295
	   22 R(11,13)        =      1.344550    -0.000044     0.000003     1.344553
	   23 R(12,22)        =      1.011885     0.000010     0.000001     1.011886
	   24 R(13,23)        =      0.963641    -0.000018    -0.000005     0.963636
	   25 B(1,3,11)       =    119.981735     0.000000    -0.000153   119.981581
	   26 B(1,3,16)       =    121.217358    -0.000001    -0.005028   121.212330
	   27 B(1,9,2)        =    119.061700    -0.000001    -0.000363   119.061337
	   28 B(1,9,10)       =    120.236590    -0.000002    -0.008060   120.228531
	   29 B(2,4,11)       =    119.943553     0.000000     0.001875   119.945428
	   30 B(2,4,17)       =    119.995300    -0.000000    -0.001898   119.993401
	   31 B(2,9,10)       =    120.554302     0.000002     0.009376   120.563678
	   32 B(3,1,9)        =    120.548822     0.000000     0.000669   120.549491
	   33 B(3,1,14)       =    119.250716    -0.000001    -0.005302   119.245414
	   34 B(3,11,4)       =    119.925250    -0.000001    -0.001332   119.923917
	   35 B(3,11,13)      =    116.706274     0.000001     0.005627   116.711901
	   36 B(4,2,9)        =    120.500595     0.000000    -0.001775   120.498820
	   37 B(4,2,15)       =    119.263239    -0.000001    -0.006948   119.256291
	   38 B(4,11,13)      =    123.367964    -0.000001    -0.004086   123.363878
	   39 B(5,7,12)       =    119.340039     0.000000     0.001247   119.341286
	   40 B(5,7,20)       =    123.751766    -0.000000    -0.001161   123.750604
	   41 B(5,10,6)       =    117.309505    -0.000000     0.002768   117.312273
	   42 B(5,10,9)       =    121.366693    -0.000001    -0.003606   121.363087
	   43 B(6,8,12)       =    119.323134     0.000000     0.001906   119.325040
	   44 B(6,8,21)       =    123.774846    -0.000000    -0.000731   123.774115
	   45 B(6,10,9)       =    121.234092     0.000000    -0.000408   121.233685
	   46 B(7,5,10)       =    120.636075    -0.000000    -0.002045   120.634030
	   47 B(7,5,18)       =    118.883384    -0.000001    -0.002919   118.880465
	   48 B(7,12,8)       =    122.720765    -0.000001    -0.001504   122.719261
	   49 B(7,12,22)      =    118.639884     0.000000     0.000334   118.640218
	   50 B(8,6,10)       =    120.656619    -0.000000    -0.002291   120.654327
	   51 B(8,6,19)       =    118.886480    -0.000001    -0.003403   118.883077
	   52 B(8,12,22)      =    118.638636     0.000000     0.001203   118.639839
	   53 B(9,1,14)       =    120.167221     0.000001     0.005023   120.172244
	   54 B(9,2,15)       =    120.174542     0.000001     0.005251   120.179793
	   55 B(10,5,18)      =    120.470609     0.000001     0.005108   120.475718
	   56 B(10,6,19)      =    120.436933     0.000001     0.005920   120.442852
	   57 B(11,3,16)      =    118.798170     0.000001     0.005585   118.803756
	   58 B(11,4,17)      =    120.061133    -0.000000     0.000033   120.061166
	   59 B(11,13,23)     =    110.528361    -0.000000    -0.003621   110.524740
	   60 B(12,7,20)      =    116.898526     0.000000    -0.000698   116.897829
	   61 B(12,8,21)      =    116.899650    -0.000000    -0.001342   116.898308
	   62 D(1,3,11,4)     =     -0.942861    -0.000000     0.004842    -0.938019
	   63 D(1,3,11,13)    =    179.308591    -0.000000    -0.052860   179.255731
	   64 D(1,9,2,4)      =     -2.238813    -0.000001    -0.018975    -2.257788
	   65 D(1,9,2,15)     =   -179.363105    -0.000001     0.061065  -179.302040
	   66 D(1,9,10,5)     =   -135.546721     0.000006     0.001319  -135.545401
	   67 D(1,9,10,6)     =     40.916335     0.000004    -0.023031    40.893304
	   68 D(2,4,11,3)     =     -0.315190     0.000000    -0.048936    -0.364125
	   69 D(2,4,11,13)    =    179.415845     0.000000     0.012806   179.428651
	   70 D(2,9,1,3)      =      0.972570     0.000001    -0.025385     0.947186
	   71 D(2,9,1,14)     =   -176.914749     0.000001    -0.037699  -176.952448
	   72 D(2,9,10,5)     =     39.998913     0.000004     0.015714    40.014627
	   73 D(2,9,10,6)     =   -143.538031     0.000001    -0.008637  -143.546667
	   74 D(3,1,9,10)     =    176.584324    -0.000001    -0.010766   176.573558
	   75 D(3,11,4,17)    =    179.641543     0.000000    -0.029818   179.611725
	   76 D(3,11,13,23)   =    179.760740     0.000000     0.061291   179.822031
	   77 D(4,2,9,10)     =   -177.836242     0.000001    -0.032857  -177.869098
	   78 D(4,11,3,16)    =    178.462723    -0.000000     0.050424   178.513146
	   79 D(4,11,13,23)   =      0.021682     0.000000     0.001404     0.023086
	   80 D(5,7,12,8)     =     -0.100151    -0.000000     0.029374    -0.070777
	   81 D(5,7,12,22)    =   -179.788178     0.000000     0.022259  -179.765918
	   82 D(5,10,6,8)     =     -1.198295    -0.000001     0.023002    -1.175293
	   83 D(5,10,6,19)    =   -179.554745    -0.000001     0.013739  -179.541006
	   84 D(6,8,12,7)     =      0.297376     0.000000    -0.000714     0.296663
	   85 D(6,8,12,22)    =    179.985407    -0.000000     0.006398   179.991805
	   86 D(6,10,5,7)     =      1.395142     0.000001     0.005629     1.400770
	   87 D(6,10,5,18)    =   -177.445617     0.000001    -0.002840  -177.448457
	   88 D(7,5,10,9)     =    177.991650    -0.000001    -0.017901   177.973749
	   89 D(7,12,8,21)    =    179.758588     0.000000    -0.019374   179.739214
	   90 D(8,6,10,9)     =   -177.799595     0.000001     0.046615  -177.752980
	   91 D(8,12,7,20)    =    178.811299    -0.000000    -0.004565   178.806734
	   92 D(9,1,3,11)     =      0.603932    -0.000000     0.032357     0.636289
	   93 D(9,1,3,16)     =   -178.786975    -0.000000    -0.014410  -178.801385
	   94 D(9,2,4,11)     =      1.917233     0.000001     0.056002     1.973235
	   95 D(9,2,4,17)     =   -178.039529     0.000000     0.036897  -178.002632
	   96 D(9,10,5,18)    =     -0.849109    -0.000001    -0.026370    -0.875479
	   97 D(9,10,6,19)    =      3.843955     0.000001     0.037352     3.881308
	   98 D(10,5,7,12)    =     -0.776498    -0.000001    -0.031309    -0.807807
	   99 D(10,5,7,20)    =   -179.608918    -0.000000     0.005086  -179.603832
	  100 D(10,6,8,12)    =      0.382055     0.000000    -0.025982     0.356073
	  101 D(10,6,8,21)    =   -179.039895     0.000000    -0.005959  -179.045854
	  102 D(10,9,1,14)    =     -1.302996    -0.000001    -0.023080    -1.326076
	  103 D(10,9,2,15)    =      5.039467     0.000002     0.047184     5.086650
	  104 D(11,3,1,14)    =    178.510456    -0.000000     0.044773   178.555230
	  105 D(11,4,2,15)    =    179.067538     0.000000    -0.022957   179.044581
	  106 D(12,7,5,18)    =    178.082421    -0.000000    -0.022882   178.059539
	  107 D(12,8,6,19)    =    178.763648     0.000000    -0.016710   178.746938
	  108 D(13,11,3,16)   =     -1.285826    -0.000000    -0.007279    -1.293104
	  109 D(13,11,4,17)   =     -0.627422     0.000000     0.031923    -0.595498
	  110 D(14,1,3,16)    =     -0.880451    -0.000000    -0.001994    -0.882444
	  111 D(15,2,4,17)    =     -0.889224     0.000000    -0.042063    -0.931286
	  112 D(18,5,7,20)    =     -0.749999    -0.000000     0.013513    -0.736485
	  113 D(19,6,8,21)    =     -0.658302     0.000000     0.003312    -0.654989
	  114 D(20,7,12,22)   =     -0.876728    -0.000000    -0.011680    -0.888407
	  115 D(21,8,12,22)   =     -0.553381     0.000000    -0.012262    -0.565643
	 ---------------------------------------------------------------------------
	Successfully symmetrized geometry.
	 Forces used to impose fixed constraints are not included.
	  Forces zeroed: 66 

  ==> Convergence Check <==

  Measures of convergence in internal coordinates in au.
  Criteria marked as inactive (o), active & met (*), and active & unmet ( ).
  ---------------------------------------------------------------------------------------------
   Step     Total Energy     Delta E     MAX Force     RMS Force      MAX Disp      RMS Disp   
  ---------------------------------------------------------------------------------------------
    Convergence Criteria    1.00e-06 *    3.00e-04 *             o    1.20e-03 *             o
  ---------------------------------------------------------------------------------------------
      7    -554.10081598    9.53e-07 *    2.15e-04 *    3.95e-05 o    1.07e-03 *    3.47e-04 o  ~
  ---------------------------------------------------------------------------------------------


  **** Optimization is complete! (in 7 steps) ****

  ==> Optimization Summary <==

  Measures of convergence in internal coordinates in au.
  --------------------------------------------------------------------------------------------------------------- ~
   Step         Total Energy             Delta E       MAX Force       RMS Force        MAX Disp        RMS Disp  ~
  --------------------------------------------------------------------------------------------------------------- ~
      1    -554.097273725407   -554.097273725407      0.01359325      0.00404309      0.03679702      0.00930775  ~
      2    -554.099931573247     -0.002657847840      0.00463157      0.00124511      0.04572127      0.00931580  ~
      3    -554.100583413656     -0.000651840409      0.00161319      0.00038453      0.05598943      0.00932232  ~
      4    -554.100787298249     -0.000203884593      0.00047582      0.00013854      0.03259922      0.00566275  ~
      5    -554.100830802526     -0.000043504277      0.00059130      0.00010276      0.00279892      0.00073353  ~
      6    -554.100816931156      0.000013871370      0.00028685      0.00004566      0.00293707      0.00060086  ~
      7    -554.100815977780      0.000000953376      0.00034399      0.00005087      0.00106973      0.00034678  ~
  --------------------------------------------------------------------------------------------------------------- ~

	Writing optimization data to binary file.
	Final energy is   -554.1008159777796
	Final (previous) structure:
	Cartesian Geometry (in Angstrom)
	    C    -1.2289200338   0.7916843568  -0.5433261942
	    C    -0.2956408175   0.0944676417   1.5648733345
	    C    -2.3247066732   1.3120981749   0.1108793510
	    C    -1.3797528742   0.6379796929   2.2252293110
	    C     1.4121779602  -1.6782439213  -0.1465918094
	    C     1.4905130239   0.1846109361  -1.6438392288
	    C     2.4406622923  -2.2607458215  -0.8444501627
	    C     2.5151248836  -0.4255116523  -2.3232927338
	    C    -0.1942126313   0.1847127864   0.1752686984
	    C     0.9161472308  -0.4240227696  -0.5214351892
	    C    -2.4017508926   1.2469257197   1.5003001158
	    N     2.9607902956  -1.6220759587  -1.9057412361
	    O    -3.4925823496   1.7874601302   2.0710222683
	    H    -1.1925467897   0.8268244785  -1.6223958637
	    H     0.4979539983  -0.3616734947   2.1388069595
	    H    -3.1378412851   1.7652351771  -0.4338950361
	    H    -1.4344627703   0.5913447684   3.3031616290
	    H     0.9794643527  -2.2110743009   0.6845780783
	    H     1.1518997886   1.1538367429  -1.9727872100
	    H     2.8564660320  -3.2249792287  -0.6040193936
	    H     3.0029944963   0.0035341312  -3.1826179109
	    H     3.7164617167  -2.0626351246  -2.4144450388
	    H    -3.4560488581   1.6902175220   3.0290475982
	Saving final (previous) structure.
			--------------------------
			 OPTKING Finished Execution 
			--------------------------

    Final optimized geometry and variables:
    Molecular point group: c1
    Full point group: C1

    Geometry (in Angstrom), charge = 1, multiplicity = 1:

    C           -1.228920033828     0.791684356782    -0.543326194230
    C           -0.295640817542     0.094467641731     1.564873334471
    C           -2.324706673182     1.312098174928     0.110879350960
    C           -1.379752874181     0.637979692857     2.225229310951
    C            1.412177960203    -1.678243921269    -0.146591809413
    C            1.490513023915     0.184610936068    -1.643839228830
    C            2.440662292276    -2.260745821470    -0.844450162738
    C            2.515124883643    -0.425511652349    -2.323292733775
    C           -0.194212631309     0.184712786374     0.175268698441
    C            0.916147230794    -0.424022769609    -0.521435189167
    C           -2.401750892608     1.246925719713     1.500300115785
    N            2.960790295588    -1.622075958700    -1.905741236093
    O           -3.492582349558     1.787460130194     2.071022268283
    H           -1.192546789708     0.826824478530    -1.622395863676
    H            0.497953998340    -0.361673494682     2.138806959492
    H           -3.137841285062     1.765235177057    -0.433895036078
    H           -1.434462770278     0.591344768431     3.303161628980
    H            0.979464352739    -2.211074300874     0.684578078339
    H            1.151899788648     1.153836742948    -1.972787209964
    H            2.856466031965    -3.224979228749    -0.604019393572
    H            3.002994496310     0.003534131237    -3.182617910881
    H            3.716461716651    -2.062635124569    -2.414445038825
    H           -3.456048858093     1.690217521964     3.029047598176

	Cleaning optimization helper files.

*** Psi4 exiting successfully. Buy a developer a beer!
