
    -----------------------------------------------------------------------
          Psi4: An Open-Source Ab Initio Electronic Structure Package
                               Psi4 1.1 release

                         Git: Rev {HEAD} add49b9 


    R. M. Parrish, L. A. Burns, D. G. A. Smith, A. C. Simmonett,
    A. E. DePrince III, E. G. Hohenstein, U. Bozkaya, A. Yu. Sokolov,
    R. Di Remigio, R. M. Richard, J. F. Gonthier, A. M. James,
    H. R. McAlexander, A. Kumar, M. Saitow, X. Wang, B. P. Pritchard,
    P. Verma, H. F. Schaefer III, K. Patkowski, R. A. King, E. F. Valeev,
    F. A. Evangelista, J. M. Turney, T. D. Crawford, and C. D. Sherrill,
    J. Chem. Theory Comput. in press (2017).
    (doi: 10.1021/acs.jctc.7b00174)

    -----------------------------------------------------------------------


    Psi4 started on: Saturday, 11 November 2017 06:16PM

    Process ID:  15280
    PSIDATADIR: /cbio/jclab/home/chayas/anaconda/envs/py35/share/psi4
    Memory:     500.0 MiB
    Threads:    8
    
  ==> Input File <==

--------------------------------------------------------------------------

memory 5 Gb

molecule phepyrFOH_cation {
  symmetry C1
  1 1 
  C      1.885   -1.036   -0.112
  C      0.807   -0.463   0.561
  C      4.435   -1.716   -1.328
  C      4.716   -3.305   0.461
  C      1.800   -1.079   2.676
  C      5.508   -2.306   -1.979
  C      5.783   -3.855   -0.236
  C      2.921   -1.631   0.608
  C      4.038   -2.225   -0.095
  C      0.764   -0.484   1.955
  C      2.878   -1.652   2.002
  N      6.144   -3.345   -1.422
  O      -0.289   0.076   2.612
  F      3.866   -2.220   2.709
  H      1.904   -1.012   -1.199
  H      0.002   -0.002   -0.006
  H      3.924   -0.874   -1.785
  H      4.428   -3.723   1.421
  H      1.772   -1.099   3.762
  H      5.886   -1.977   -2.938
  H      6.366   -4.693   0.118
  H      6.930   -3.765   -1.918
  H      -0.175   -0.018   3.571
  units Angstrom
}

dih_string = "1 8 9 3 30"
set optking fixed_dihedral = $dih_string

optimize('MP2/aug-cc-PVTZ')
--------------------------------------------------------------------------

  Memory set to   4.657 GiB by Python driver.
gradient() will perform analytic gradient computation.

*** tstart() called on gpu-2-12.local
*** at Sat Nov 11 18:16:21 2017

    SCF Algorithm Type (re)set to DF.

*** tstart() called on gpu-2-12.local
*** at Sat Nov 11 18:16:21 2017

   => Loading Basis Set <=

    Name: AUG-CC-PVTZ
    Role: ORBITAL
    Keyword: BASIS
    atoms 1-11  entry C          line   221 file /cbio/jclab/home/chayas/anaconda/envs/py35/share/psi4/basis/aug-cc-pvtz.gbs 
    atoms 12    entry N          line   267 file /cbio/jclab/home/chayas/anaconda/envs/py35/share/psi4/basis/aug-cc-pvtz.gbs 
    atoms 13    entry O          line   313 file /cbio/jclab/home/chayas/anaconda/envs/py35/share/psi4/basis/aug-cc-pvtz.gbs 
    atoms 14    entry F          line   359 file /cbio/jclab/home/chayas/anaconda/envs/py35/share/psi4/basis/aug-cc-pvtz.gbs 
    atoms 15-23 entry H          line    34 file /cbio/jclab/home/chayas/anaconda/envs/py35/share/psi4/basis/aug-cc-pvtz.gbs 


         ---------------------------------------------------------
                                   SCF
            by Justin Turney, Rob Parrish, and Andy Simmonett
                              RHF Reference
                        8 Threads,   4768 MiB Core
         ---------------------------------------------------------

  ==> Geometry <==

    Molecular point group: c1
    Full point group: C1

    Geometry (in Angstrom), charge = 1, multiplicity = 1:

       Center              X                  Y                   Z               Mass       
    ------------   -----------------  -----------------  -----------------  -----------------
           C         -1.337866873723     0.764011334809    -0.788199299300    12.000000000000
           C         -2.415866873723     1.337011334809    -0.115199299300    12.000000000000
           C          1.212133126277     0.084011334809    -2.004199299300    12.000000000000
           C          1.493133126277    -1.504988665191    -0.215199299300    12.000000000000
           C         -1.422866873723     0.721011334809     1.999800700700    12.000000000000
           C          2.285133126277    -0.505988665191    -2.655199299300    12.000000000000
           C          2.560133126277    -2.054988665191    -0.912199299300    12.000000000000
           C         -0.301866873723     0.169011334809    -0.068199299300    12.000000000000
           C          0.815133126277    -0.424988665191    -0.771199299300    12.000000000000
           C         -2.458866873723     1.316011334809     1.278800700700    12.000000000000
           C         -0.344866873723     0.148011334809     1.325800700700    12.000000000000
           N          2.921133126277    -1.544988665191    -2.098199299300    14.003074004780
           O         -3.511866873723     1.876011334809     1.935800700700    15.994914619560
           F          0.643133126277    -0.419988665191     2.032800700700    18.998403224000
           H         -1.318866873723     0.788011334809    -1.875199299300     1.007825032070
           H         -3.220866873723     1.798011334809    -0.682199299300     1.007825032070
           H          0.701133126277     0.926011334809    -2.461199299300     1.007825032070
           H          1.205133126277    -1.922988665191     0.744800700700     1.007825032070
           H         -1.450866873723     0.701011334809     3.085800700700     1.007825032070
           H          2.663133126277    -0.176988665191    -3.614199299300     1.007825032070
           H          3.143133126277    -2.892988665191    -0.558199299300     1.007825032070
           H          3.707133126277    -1.964988665191    -2.594199299300     1.007825032070
           H         -3.397866873723     1.782011334809     2.894800700700     1.007825032070

  Running in c1 symmetry.

  Rotational constants: A =      0.06291  B =      0.01329  C =      0.01120 [cm^-1]
  Rotational constants: A =   1885.90991  B =    398.45426  C =    335.72077 [MHz]
  Nuclear repulsion =  831.969491638115642

  Charge       = 1
  Multiplicity = 1
  Electrons    = 98
  Nalpha       = 49
  Nbeta        = 49

  ==> Algorithm <==

  SCF Algorithm Type is DF.
  DIIS enabled.
  MOM disabled.
  Fractional occupation disabled.
  Guess Type is SAD.
  Energy threshold   = 1.00e-10
  Density threshold  = 1.00e-10
  Integral threshold = 0.00e+00

  ==> Primary Basis <==

  Basis Set: AUG-CC-PVTZ
    Blend: AUG-CC-PVTZ
    Number of shells: 277
    Number of basis function: 851
    Number of Cartesian functions: 995
    Spherical Harmonics?: true
    Max angular momentum: 3

   => Loading Basis Set <=

    Name: (AUG-CC-PVTZ AUX)
    Role: JKFIT
    Keyword: DF_BASIS_SCF
    atoms 1-11  entry C          line   161 file /cbio/jclab/home/chayas/anaconda/envs/py35/share/psi4/basis/aug-cc-pvtz-jkfit.gbs 
    atoms 12    entry N          line   223 file /cbio/jclab/home/chayas/anaconda/envs/py35/share/psi4/basis/aug-cc-pvtz-jkfit.gbs 
    atoms 13    entry O          line   285 file /cbio/jclab/home/chayas/anaconda/envs/py35/share/psi4/basis/aug-cc-pvtz-jkfit.gbs 
    atoms 14    entry F          line   347 file /cbio/jclab/home/chayas/anaconda/envs/py35/share/psi4/basis/aug-cc-pvtz-jkfit.gbs 
    atoms 15-23 entry H          line    69 file /cbio/jclab/home/chayas/anaconda/envs/py35/share/psi4/basis/aug-cc-pvtz-jkfit.gbs 

  ==> Pre-Iterations <==

   -------------------------------------------------------
    Irrep   Nso     Nmo     Nalpha   Nbeta   Ndocc  Nsocc
   -------------------------------------------------------
     A        851     851       0       0       0       0
   -------------------------------------------------------
    Total     851     851      49      49      49       0
   -------------------------------------------------------

  ==> Integral Setup <==

  ==> DFJK: Density-Fitted J/K Matrices <==

    J tasked:                  Yes
    K tasked:                  Yes
    wK tasked:                  No
    OpenMP threads:              8
    Integrals threads:           8
    Memory (MB):              3576
    Algorithm:                Disk
    Integral Cache:           NONE
    Schwarz Cutoff:          1E-12
    Fitting Condition:       1E-12

   => Auxiliary Basis Set <=

  Basis Set: (AUG-CC-PVTZ AUX)
    Blend: AUG-CC-PVTZ-JKFIT
    Number of shells: 546
    Number of basis function: 1870
    Number of Cartesian functions: 2329
    Spherical Harmonics?: true
    Max angular momentum: 4

  Minimum eigenvalue in the overlap matrix is 6.2114319277E-07.
  Using Symmetric Orthogonalization.

  SCF Guess: Superposition of Atomic Densities via on-the-fly atomic UHF.

  ==> Iterations <==

                           Total Energy        Delta E     RMS |[F,P]|

   @DF-RHF iter   0:  -651.82434936410198   -6.51824e+02   2.19700e-02 
   @DF-RHF iter   1:  -650.12945096503211    1.69490e+00   2.41065e-03 
   @DF-RHF iter   2:  -650.47646069222708   -3.47010e-01   1.12755e-03 DIIS
   @DF-RHF iter   3:  -650.54095615411586   -6.44955e-02   4.98116e-04 DIIS
   @DF-RHF iter   4:  -650.55757954364947   -1.66234e-02   1.62393e-04 DIIS
   @DF-RHF iter   5:  -650.55955586573464   -1.97632e-03   4.50880e-05 DIIS
   @DF-RHF iter   6:  -650.55989123191341   -3.35366e-04   2.03632e-05 DIIS
   @DF-RHF iter   7:  -650.55996281174157   -7.15798e-05   9.68990e-06 DIIS
   @DF-RHF iter   8:  -650.55997738551628   -1.45738e-05   3.52611e-06 DIIS
   @DF-RHF iter   9:  -650.55998110072233   -3.71521e-06   1.82803e-06 DIIS
   @DF-RHF iter  10:  -650.55998198765565   -8.86933e-07   7.95728e-07 DIIS
   @DF-RHF iter  11:  -650.55998213461874   -1.46963e-07   1.88929e-07 DIIS
   @DF-RHF iter  12:  -650.55998214191050   -7.29176e-09   8.88672e-08 DIIS
   @DF-RHF iter  13:  -650.55998214298427   -1.07377e-09   3.24156e-08 DIIS
   @DF-RHF iter  14:  -650.55998214324120   -2.56932e-10   1.43441e-08 DIIS
   @DF-RHF iter  15:  -650.55998214333124   -9.00400e-11   6.50421e-09 DIIS
   @DF-RHF iter  16:  -650.55998214333601   -4.77485e-12   2.65113e-09 DIIS
   @DF-RHF iter  17:  -650.55998214330054    3.54703e-11   9.87249e-10 DIIS
   @DF-RHF iter  18:  -650.55998214330464   -4.09273e-12   4.13841e-10 DIIS
   @DF-RHF iter  19:  -650.55998214330714   -2.50111e-12   1.55487e-10 DIIS
   @DF-RHF iter  20:  -650.55998214329043    1.67120e-11   6.39076e-11 DIIS

  ==> Post-Iterations <==

    Orbital Energies (a.u.)
    -----------------------

    Doubly Occupied:                                                      

       1A    -26.453817     2A    -20.712980     3A    -15.833584  
       4A    -11.483856     5A    -11.481589     6A    -11.477670  
       7A    -11.448463     8A    -11.447807     9A    -11.416095  
      10A    -11.410890    11A    -11.390866    12A    -11.382220  
      13A    -11.367358    14A    -11.359665    15A     -1.774443  
      16A     -1.527182    17A     -1.510576    18A     -1.325580  
      19A     -1.272936    20A     -1.236291    21A     -1.166471  
      22A     -1.158950    23A     -1.070315    24A     -1.059293  
      25A     -0.996512    26A     -0.971404    27A     -0.959175  
      28A     -0.899594    29A     -0.874345    30A     -0.862775  
      31A     -0.854192    32A     -0.840920    33A     -0.822053  
      34A     -0.807468    35A     -0.786719    36A     -0.774782  
      37A     -0.767473    38A     -0.754762    39A     -0.725823  
      40A     -0.713467    41A     -0.709653    42A     -0.688715  
      43A     -0.656660    44A     -0.650157    45A     -0.638472  
      46A     -0.574834    47A     -0.535628    48A     -0.476424  
      49A     -0.447317  

    Virtual:                                                              

      50A     -0.106456    51A     -0.083834    52A     -0.062258  
      53A     -0.061528    54A     -0.056774    55A     -0.047800  
      56A     -0.043517    57A     -0.039678    58A     -0.032959  
      59A     -0.026809    60A     -0.024105    61A     -0.020109  
      62A     -0.015653    63A     -0.011324    64A     -0.007193  
      65A     -0.000475    66A      0.005197    67A      0.006528  
      68A      0.010032    69A      0.015050    70A      0.018986  
      71A      0.022321    72A      0.024006    73A      0.028184  
      74A      0.028944    75A      0.033473    76A      0.037911  
      77A      0.038783    78A      0.041206    79A      0.045565  
      80A      0.050527    81A      0.056586    82A      0.057942  
      83A      0.064449    84A      0.068048    85A      0.070321  
      86A      0.072566    87A      0.075562    88A      0.082476  
      89A      0.083238    90A      0.085464    91A      0.094802  
      92A      0.096415    93A      0.106544    94A      0.109840  
      95A      0.111816    96A      0.116819    97A      0.122377  
      98A      0.122479    99A      0.127013   100A      0.132967  
     101A      0.135797   102A      0.137142   103A      0.140120  
     104A      0.143175   105A      0.151421   106A      0.155485  
     107A      0.159526   108A      0.161048   109A      0.164984  
     110A      0.168021   111A      0.170089   112A      0.174858  
     113A      0.180767   114A      0.183648   115A      0.186670  
     116A      0.190078   117A      0.194373   118A      0.200183  
     119A      0.203755   120A      0.204810   121A      0.209111  
     122A      0.216747   123A      0.218812   124A      0.220209  
     125A      0.221747   126A      0.223480   127A      0.233031  
     128A      0.234695   129A      0.236949   130A      0.239617  
     131A      0.245371   132A      0.249268   133A      0.250828  
     134A      0.260768   135A      0.267169   136A      0.269757  
     137A      0.272823   138A      0.277015   139A      0.281115  
     140A      0.282295   141A      0.287420   142A      0.295251  
     143A      0.296212   144A      0.302961   145A      0.305836  
     146A      0.310389   147A      0.311767   148A      0.319316  
     149A      0.323079   150A      0.324009   151A      0.329849  
     152A      0.332189   153A      0.337692   154A      0.338519  
     155A      0.340802   156A      0.342983   157A      0.344015  
     158A      0.350044   159A      0.354696   160A      0.357547  
     161A      0.364605   162A      0.366987   163A      0.370911  
     164A      0.373635   165A      0.375957   166A      0.377053  
     167A      0.383952   168A      0.389104   169A      0.391169  
     170A      0.392667   171A      0.395847   172A      0.400592  
     173A      0.405218   174A      0.407379   175A      0.409631  
     176A      0.412893   177A      0.417757   178A      0.419625  
     179A      0.423572   180A      0.429865   181A      0.431469  
     182A      0.435812   183A      0.442343   184A      0.444282  
     185A      0.450270   186A      0.454004   187A      0.456283  
     188A      0.466524   189A      0.471527   190A      0.475938  
     191A      0.486974   192A      0.487317   193A      0.495011  
     194A      0.496686   195A      0.507063   196A      0.511173  
     197A      0.517818   198A      0.526946   199A      0.532187  
     200A      0.538100   201A      0.539746   202A      0.550642  
     203A      0.555081   204A      0.563932   205A      0.568164  
     206A      0.571035   207A      0.575974   208A      0.578886  
     209A      0.584920   210A      0.589574   211A      0.597746  
     212A      0.603554   213A      0.608538   214A      0.612581  
     215A      0.616601   216A      0.620883   217A      0.623935  
     218A      0.630321   219A      0.638454   220A      0.642068  
     221A      0.646970   222A      0.653553   223A      0.654895  
     224A      0.660340   225A      0.667545   226A      0.679456  
     227A      0.686913   228A      0.698360   229A      0.700002  
     230A      0.703378   231A      0.704702   232A      0.715591  
     233A      0.718291   234A      0.722865   235A      0.726225  
     236A      0.727079   237A      0.736060   238A      0.736939  
     239A      0.746314   240A      0.753835   241A      0.755298  
     242A      0.758220   243A      0.763801   244A      0.768601  
     245A      0.776519   246A      0.777397   247A      0.783631  
     248A      0.786710   249A      0.791695   250A      0.798100  
     251A      0.800292   252A      0.803536   253A      0.805709  
     254A      0.810553   255A      0.815456   256A      0.822400  
     257A      0.828459   258A      0.831282   259A      0.837178  
     260A      0.839929   261A      0.845382   262A      0.851563  
     263A      0.858364   264A      0.864875   265A      0.865560  
     266A      0.868143   267A      0.874054   268A      0.876858  
     269A      0.881663   270A      0.887960   271A      0.890940  
     272A      0.893159   273A      0.900834   274A      0.910058  
     275A      0.911709   276A      0.916480   277A      0.922640  
     278A      0.926655   279A      0.928329   280A      0.932002  
     281A      0.937785   282A      0.939866   283A      0.944079  
     284A      0.950188   285A      0.957808   286A      0.962205  
     287A      0.963850   288A      0.964522   289A      0.971214  
     290A      0.973990   291A      0.978049   292A      0.985468  
     293A      0.992361   294A      0.993984   295A      0.996060  
     296A      1.000052   297A      1.005915   298A      1.012476  
     299A      1.018142   300A      1.018843   301A      1.027766  
     302A      1.030977   303A      1.038442   304A      1.041175  
     305A      1.042687   306A      1.053040   307A      1.056021  
     308A      1.062884   309A      1.066795   310A      1.068337  
     311A      1.076206   312A      1.080300   313A      1.086691  
     314A      1.091233   315A      1.094658   316A      1.097660  
     317A      1.100570   318A      1.105685   319A      1.116787  
     320A      1.119996   321A      1.122619   322A      1.131160  
     323A      1.137376   324A      1.143448   325A      1.144619  
     326A      1.150995   327A      1.153660   328A      1.159834  
     329A      1.166748   330A      1.170164   331A      1.176678  
     332A      1.184702   333A      1.189922   334A      1.211638  
     335A      1.215120   336A      1.225234   337A      1.229409  
     338A      1.234866   339A      1.237033   340A      1.244796  
     341A      1.248933   342A      1.256721   343A      1.267681  
     344A      1.270053   345A      1.274032   346A      1.282531  
     347A      1.290723   348A      1.296887   349A      1.302265  
     350A      1.305889   351A      1.313827   352A      1.319482  
     353A      1.326473   354A      1.333946   355A      1.335977  
     356A      1.348591   357A      1.358401   358A      1.359311  
     359A      1.366307   360A      1.382662   361A      1.384418  
     362A      1.392741   363A      1.398901   364A      1.401942  
     365A      1.407001   366A      1.417717   367A      1.427293  
     368A      1.432139   369A      1.433707   370A      1.447100  
     371A      1.449434   372A      1.453757   373A      1.470050  
     374A      1.472935   375A      1.485037   376A      1.488460  
     377A      1.501893   378A      1.507520   379A      1.516916  
     380A      1.526247   381A      1.528936   382A      1.532516  
     383A      1.541875   384A      1.543469   385A      1.553752  
     386A      1.559048   387A      1.562251   388A      1.568061  
     389A      1.582154   390A      1.587224   391A      1.601990  
     392A      1.606541   393A      1.618439   394A      1.627662  
     395A      1.639174   396A      1.651584   397A      1.655543  
     398A      1.663419   399A      1.667228   400A      1.674571  
     401A      1.677227   402A      1.682392   403A      1.690451  
     404A      1.692615   405A      1.709363   406A      1.718811  
     407A      1.720793   408A      1.728940   409A      1.733661  
     410A      1.737209   411A      1.750120   412A      1.757633  
     413A      1.767433   414A      1.778475   415A      1.786765  
     416A      1.797047   417A      1.802546   418A      1.808735  
     419A      1.814312   420A      1.820914   421A      1.833355  
     422A      1.842178   423A      1.854184   424A      1.857557  
     425A      1.858865   426A      1.862457   427A      1.873002  
     428A      1.879684   429A      1.886975   430A      1.898359  
     431A      1.908890   432A      1.909103   433A      1.914036  
     434A      1.919069   435A      1.929639   436A      1.937338  
     437A      1.943488   438A      1.948539   439A      1.954174  
     440A      1.962554   441A      1.966184   442A      1.969222  
     443A      1.987145   444A      1.988421   445A      2.001477  
     446A      2.015111   447A      2.023467   448A      2.026624  
     449A      2.031660   450A      2.046139   451A      2.049464  
     452A      2.054360   453A      2.069020   454A      2.075624  
     455A      2.090347   456A      2.093202   457A      2.097556  
     458A      2.107754   459A      2.113115   460A      2.133481  
     461A      2.156879   462A      2.164339   463A      2.170566  
     464A      2.176154   465A      2.193326   466A      2.198253  
     467A      2.201377   468A      2.211904   469A      2.218372  
     470A      2.229548   471A      2.242274   472A      2.246866  
     473A      2.262540   474A      2.267318   475A      2.269795  
     476A      2.290496   477A      2.304204   478A      2.312463  
     479A      2.321369   480A      2.333217   481A      2.342101  
     482A      2.353144   483A      2.362867   484A      2.373683  
     485A      2.391172   486A      2.396156   487A      2.406505  
     488A      2.415787   489A      2.423303   490A      2.428354  
     491A      2.435256   492A      2.447367   493A      2.459188  
     494A      2.478911   495A      2.489162   496A      2.503854  
     497A      2.510267   498A      2.516674   499A      2.539245  
     500A      2.550574   501A      2.568155   502A      2.575624  
     503A      2.589837   504A      2.601367   505A      2.613032  
     506A      2.628544   507A      2.645683   508A      2.675052  
     509A      2.689083   510A      2.707308   511A      2.726865  
     512A      2.740785   513A      2.756258   514A      2.766033  
     515A      2.779581   516A      2.802230   517A      2.810288  
     518A      2.831651   519A      2.841114   520A      2.868553  
     521A      2.898072   522A      2.900898   523A      2.927699  
     524A      2.937396   525A      2.955680   526A      2.970438  
     527A      2.979303   528A      2.983453   529A      3.016046  
     530A      3.027581   531A      3.038489   532A      3.042070  
     533A      3.052409   534A      3.062583   535A      3.067212  
     536A      3.086693   537A      3.116138   538A      3.123948  
     539A      3.144140   540A      3.157748   541A      3.162273  
     542A      3.168666   543A      3.177801   544A      3.193854  
     545A      3.196724   546A      3.209980   547A      3.214917  
     548A      3.235014   549A      3.247125   550A      3.248814  
     551A      3.255422   552A      3.265078   553A      3.276200  
     554A      3.282500   555A      3.300272   556A      3.308277  
     557A      3.321486   558A      3.335700   559A      3.338264  
     560A      3.346267   561A      3.351980   562A      3.362404  
     563A      3.371883   564A      3.374478   565A      3.385578  
     566A      3.395570   567A      3.400191   568A      3.409127  
     569A      3.419362   570A      3.421105   571A      3.434076  
     572A      3.441222   573A      3.448760   574A      3.462728  
     575A      3.476039   576A      3.482330   577A      3.492530  
     578A      3.500588   579A      3.511708   580A      3.514364  
     581A      3.529406   582A      3.533740   583A      3.540237  
     584A      3.551839   585A      3.558502   586A      3.577376  
     587A      3.581899   588A      3.590152   589A      3.605658  
     590A      3.612091   591A      3.617722   592A      3.637230  
     593A      3.647779   594A      3.651436   595A      3.655592  
     596A      3.663272   597A      3.668266   598A      3.677265  
     599A      3.694844   600A      3.703293   601A      3.710461  
     602A      3.721951   603A      3.722924   604A      3.735187  
     605A      3.736762   606A      3.751024   607A      3.758927  
     608A      3.763962   609A      3.768819   610A      3.780599  
     611A      3.784122   612A      3.795429   613A      3.797595  
     614A      3.805484   615A      3.823531   616A      3.826252  
     617A      3.827761   618A      3.846323   619A      3.854279  
     620A      3.859450   621A      3.866625   622A      3.875275  
     623A      3.887896   624A      3.896592   625A      3.900569  
     626A      3.910234   627A      3.919599   628A      3.928153  
     629A      3.948497   630A      3.958433   631A      3.969702  
     632A      3.971800   633A      3.983256   634A      3.987600  
     635A      3.991974   636A      4.010094   637A      4.021260  
     638A      4.024889   639A      4.038329   640A      4.053948  
     641A      4.060405   642A      4.067034   643A      4.071856  
     644A      4.079437   645A      4.085828   646A      4.098298  
     647A      4.106411   648A      4.107874   649A      4.118048  
     650A      4.128288   651A      4.141675   652A      4.150821  
     653A      4.156001   654A      4.164426   655A      4.186106  
     656A      4.192401   657A      4.197140   658A      4.205184  
     659A      4.208238   660A      4.212144   661A      4.228887  
     662A      4.232169   663A      4.235523   664A      4.246490  
     665A      4.253836   666A      4.259355   667A      4.272780  
     668A      4.278925   669A      4.287160   670A      4.292762  
     671A      4.301509   672A      4.311337   673A      4.328172  
     674A      4.335615   675A      4.344866   676A      4.358258  
     677A      4.365690   678A      4.370771   679A      4.374241  
     680A      4.396755   681A      4.401923   682A      4.404845  
     683A      4.409675   684A      4.420838   685A      4.439464  
     686A      4.450239   687A      4.463970   688A      4.473595  
     689A      4.489290   690A      4.493348   691A      4.503837  
     692A      4.521352   693A      4.545320   694A      4.560451  
     695A      4.567795   696A      4.575894   697A      4.591570  
     698A      4.599024   699A      4.619096   700A      4.631929  
     701A      4.646507   702A      4.657021   703A      4.660628  
     704A      4.664016   705A      4.676657   706A      4.698306  
     707A      4.711640   708A      4.733460   709A      4.747120  
     710A      4.752217   711A      4.760503   712A      4.769181  
     713A      4.782336   714A      4.794826   715A      4.809666  
     716A      4.832299   717A      4.836928   718A      4.844653  
     719A      4.857409   720A      4.865641   721A      4.889846  
     722A      4.907140   723A      4.911047   724A      4.928784  
     725A      4.944879   726A      4.952063   727A      4.961532  
     728A      4.970696   729A      4.972708   730A      4.993176  
     731A      5.008344   732A      5.016851   733A      5.018617  
     734A      5.024477   735A      5.047999   736A      5.062359  
     737A      5.071018   738A      5.082848   739A      5.096779  
     740A      5.121880   741A      5.143054   742A      5.147262  
     743A      5.161459   744A      5.174608   745A      5.204190  
     746A      5.210882   747A      5.216538   748A      5.221117  
     749A      5.242188   750A      5.274239   751A      5.282058  
     752A      5.292470   753A      5.308502   754A      5.329105  
     755A      5.355563   756A      5.385680   757A      5.391421  
     758A      5.394360   759A      5.418293   760A      5.439362  
     761A      5.464793   762A      5.487410   763A      5.496034  
     764A      5.522565   765A      5.549671   766A      5.567254  
     767A      5.586310   768A      5.613241   769A      5.627436  
     770A      5.629475   771A      5.668178   772A      5.689555  
     773A      5.692639   774A      5.706144   775A      5.721813  
     776A      5.760216   777A      5.781617   778A      5.835862  
     779A      5.843376   780A      5.877286   781A      5.937799  
     782A      5.947736   783A      5.987152   784A      6.003763  
     785A      6.032056   786A      6.051043   787A      6.108109  
     788A      6.141344   789A      6.193523   790A      6.197129  
     791A      6.252818   792A      6.287769   793A      6.307481  
     794A      6.369385   795A      6.375305   796A      6.417309  
     797A      6.426726   798A      6.485231   799A      6.542841  
     800A      6.578600   801A      6.598273   802A      6.617529  
     803A      6.671805   804A      6.751051   805A      6.769896  
     806A      6.785290   807A      6.812527   808A      6.840337  
     809A      6.892309   810A      6.909218   811A      6.943746  
     812A      6.980627   813A      7.083502   814A      7.152679  
     815A      7.289623   816A      7.315068   817A      7.359472  
     818A      7.469008   819A      7.545702   820A      7.576356  
     821A      7.584236   822A      7.642506   823A      7.896038  
     824A      8.275528   825A      8.530000   826A      8.982910  
     827A      9.006237   828A      9.154147   829A      9.170824  
     830A      9.304334   831A      9.407393   832A      9.442948  
     833A      9.501960   834A      9.547803   835A      9.608523  
     836A      9.926127   837A      9.990155   838A     15.866770  
     839A     16.173853   840A     16.450405   841A     16.661596  
     842A     16.785004   843A     16.995553   844A     18.799628  
     845A     19.395741   846A     19.514089   847A     19.720896  
     848A     20.090648   849A     20.141485   850A     20.598084  
     851A     21.677991  

    Final Occupation by Irrep:
              A 
    DOCC [    49 ]

  Energy converged.

  @DF-RHF Final Energy:  -650.55998214329043

   => Energetics <=

    Nuclear Repulsion Energy =            831.9694916381156418
    One-Electron Energy =               -2523.9425028044147439
    Two-Electron Energy =                1041.4130290230086757
    DFT Exchange-Correlation Energy =       0.0000000000000000
    Empirical Dispersion Energy =           0.0000000000000000
    PCM Polarization Energy =               0.0000000000000000
    EFP Energy =                            0.0000000000000000
    Total Energy =                       -650.5599821432904264



Properties will be evaluated at   0.000000,   0.000000,   0.000000 Bohr

Properties computed using the SCF density matrix

  Nuclear Dipole Moment: (a.u.)
     X:     1.2721      Y:    -0.4930      Z:    -6.6457

  Electronic Dipole Moment: (a.u.)
     X:     1.4342      Y:    -0.9424      Z:     4.5210

  Dipole Moment: (a.u.)
     X:     2.7064      Y:    -1.4354      Z:    -2.1246     Total:     3.7281

  Dipole Moment: (Debye)
     X:     6.8789      Y:    -3.6484      Z:    -5.4002     Total:     9.4759


*** tstop() called on gpu-2-12.local at Sat Nov 11 18:25:40 2017
Module time:
	user time   =    1310.58 seconds =      21.84 minutes
	system time =      59.79 seconds =       1.00 minutes
	total time  =        559 seconds =       9.32 minutes
Total time:
	user time   =    1310.58 seconds =      21.84 minutes
	system time =      59.79 seconds =       1.00 minutes
	total time  =        559 seconds =       9.32 minutes

  //>>>>>>>>>>>>>>>>>>>>>>>>>>>>>>>>>>>//
  //               DFMP2               //
  //<<<<<<<<<<<<<<<<<<<<<<<<<<<<<<<<<<<//

   => Loading Basis Set <=

    Name: (AUG-CC-PVTZ AUX)
    Role: RIFIT
    Keyword: DF_BASIS_MP2
    atoms 1-11  entry C          line   147 file /cbio/jclab/home/chayas/anaconda/envs/py35/share/psi4/basis/aug-cc-pvtz-ri.gbs 
    atoms 12    entry N          line   205 file /cbio/jclab/home/chayas/anaconda/envs/py35/share/psi4/basis/aug-cc-pvtz-ri.gbs 
    atoms 13    entry O          line   263 file /cbio/jclab/home/chayas/anaconda/envs/py35/share/psi4/basis/aug-cc-pvtz-ri.gbs 
    atoms 14    entry F          line   321 file /cbio/jclab/home/chayas/anaconda/envs/py35/share/psi4/basis/aug-cc-pvtz-ri.gbs 
    atoms 15-23 entry H          line    29 file /cbio/jclab/home/chayas/anaconda/envs/py35/share/psi4/basis/aug-cc-pvtz-ri.gbs 

	 --------------------------------------------------------
	                          DF-MP2                         
	      2nd-Order Density-Fitted Moller-Plesset Theory     
	              RMP2 Wavefunction,   8 Threads             
	                                                         
	        Rob Parrish, Justin Turney, Andy Simmonett,      
	           Ed Hohenstein, and C. David Sherrill          
	 --------------------------------------------------------

   => Auxiliary Basis Set <=

  Basis Set: (AUG-CC-PVTZ AUX)
    Blend: AUG-CC-PVTZ-RI
    Number of shells: 518
    Number of basis function: 1898
    Number of Cartesian functions: 2399
    Spherical Harmonics?: true
    Max angular momentum: 4

	 --------------------------------------------------------
	                 NBF =   851, NAUX =  1898
	 --------------------------------------------------------
	   CLASS    FOCC     OCC    AOCC    AVIR     VIR    FVIR
	   PAIRS       0      49      49     802     802       0
	 --------------------------------------------------------


         ------------------------------------------------------------
                                     CPHF                           
                                  Rob Parrish                       
         ------------------------------------------------------------

  ==> Geometry <==

    Molecular point group: c1
    Full point group: C1

    Geometry (in Angstrom), charge = 1, multiplicity = 1:

       Center              X                  Y                   Z               Mass       
    ------------   -----------------  -----------------  -----------------  -----------------
           C         -1.337866873723     0.764011334809    -0.788199299300    12.000000000000
           C         -2.415866873723     1.337011334809    -0.115199299300    12.000000000000
           C          1.212133126277     0.084011334809    -2.004199299300    12.000000000000
           C          1.493133126277    -1.504988665191    -0.215199299300    12.000000000000
           C         -1.422866873723     0.721011334809     1.999800700700    12.000000000000
           C          2.285133126277    -0.505988665191    -2.655199299300    12.000000000000
           C          2.560133126277    -2.054988665191    -0.912199299300    12.000000000000
           C         -0.301866873723     0.169011334809    -0.068199299300    12.000000000000
           C          0.815133126277    -0.424988665191    -0.771199299300    12.000000000000
           C         -2.458866873723     1.316011334809     1.278800700700    12.000000000000
           C         -0.344866873723     0.148011334809     1.325800700700    12.000000000000
           N          2.921133126277    -1.544988665191    -2.098199299300    14.003074004780
           O         -3.511866873723     1.876011334809     1.935800700700    15.994914619560
           F          0.643133126277    -0.419988665191     2.032800700700    18.998403224000
           H         -1.318866873723     0.788011334809    -1.875199299300     1.007825032070
           H         -3.220866873723     1.798011334809    -0.682199299300     1.007825032070
           H          0.701133126277     0.926011334809    -2.461199299300     1.007825032070
           H          1.205133126277    -1.922988665191     0.744800700700     1.007825032070
           H         -1.450866873723     0.701011334809     3.085800700700     1.007825032070
           H          2.663133126277    -0.176988665191    -3.614199299300     1.007825032070
           H          3.143133126277    -2.892988665191    -0.558199299300     1.007825032070
           H          3.707133126277    -1.964988665191    -2.594199299300     1.007825032070
           H         -3.397866873723     1.782011334809     2.894800700700     1.007825032070

  Nuclear repulsion =  831.969491638115642
  Reference energy  = -650.559982143290426

  ==> Basis Set <==

  Basis Set: AUG-CC-PVTZ
    Blend: AUG-CC-PVTZ
    Number of shells: 277
    Number of basis function: 851
    Number of Cartesian functions: 995
    Spherical Harmonics?: true
    Max angular momentum: 3

  ==> CGRSolver (by Rob Parrish) <==

   Number of roots    =         1
   Preconditioning    =    JACOBI
   Convergence cutoff =     1E-06
   Maximum iterations =       100

  ==> CPHFRHamiltonian (by Rob Parrish) <== 

  ==> DFJK: Density-Fitted J/K Matrices <==

    J tasked:                  Yes
    K tasked:                  Yes
    wK tasked:                  No
    OpenMP threads:              8
    Integrals threads:           8
    Memory (MB):              3576
    Algorithm:                Disk
    Integral Cache:           NONE
    Schwarz Cutoff:          1E-12
    Fitting Condition:       1E-12

   => Auxiliary Basis Set <=

  Basis Set: (AUG-CC-PVTZ AUX)
    Blend: AUG-CC-PVTZ-JKFIT
    Number of shells: 546
    Number of basis function: 1870
    Number of Cartesian functions: 2329
    Spherical Harmonics?: true
    Max angular momentum: 4

  ==> CPHF Iterations <==

  => Iterations <=

             Iter  Converged  Remaining    Residual
  CGR           1          0          1   1.256E-01
  CGR           2          0          1   5.023E-02
  CGR           3          0          1   2.942E-02
  CGR           4          0          1   9.781E-03
  CGR           5          0          1   4.485E-03
  CGR           6          0          1   1.994E-03
  CGR           7          0          1   6.355E-04
  CGR           8          0          1   2.758E-04
  CGR           9          0          1   1.222E-04
  CGR          10          0          1   4.566E-05
  CGR          11          0          1   1.824E-05
  CGR          12          0          1   5.951E-06
  CGR          13          0          1   2.063E-06
  CGR          14          1          0   6.717E-07

    CGRSolver converged.

  ==> DFCorrGrad: Density-Fitted Correlated Gradients <==

    OpenMP threads:              8
    Integrals threads:           8
    Memory (MB):              3576
    Schwarz Cutoff:          0E+00
    Fitting Condition:       1E-12

   => Auxiliary Basis Set <=

  Basis Set: (AUG-CC-PVTZ AUX)
    Blend: AUG-CC-PVTZ-JKFIT
    Number of shells: 546
    Number of basis function: 1870
    Number of Cartesian functions: 2329
    Spherical Harmonics?: true
    Max angular momentum: 4

	-----------------------------------------------------------
	 ==================> DF-MP2 Energies <==================== 
	-----------------------------------------------------------
	 Reference Energy          =    -650.5599821432904264 [Eh]
	 Singles Energy            =      -0.0000000000000001 [Eh]
	 Same-Spin Energy          =      -0.6701448342743519 [Eh]
	 Opposite-Spin Energy      =      -2.0153122136277042 [Eh]
	 Correlation Energy        =      -2.6854570479020561 [Eh]
	 Total Energy              =    -653.2454391911925313 [Eh]
	-----------------------------------------------------------
	 ================> DF-SCS-MP2 Energies <================== 
	-----------------------------------------------------------
	 SCS Same-Spin Scale       =       0.3333333333333333 [-]
	 SCS Opposite-Spin Scale   =       1.2000000000000000 [-]
	 SCS Same-Spin Energy      =      -0.2233816114247840 [Eh]
	 SCS Opposite-Spin Energy  =      -2.4183746563532451 [Eh]
	 SCS Correlation Energy    =      -2.6417562677780291 [Eh]
	 SCS Total Energy          =    -653.2017384110685043 [Eh]
	-----------------------------------------------------------


  -Total Gradient:
     Atom            X                  Y                   Z
    ------   -----------------  -----------------  -----------------
       1        0.013863565987    -0.011484138588    -0.013256650735
       2        0.000343507046    -0.000316107045     0.010759758828
       3       -0.013823585688     0.009110898070     0.011558388806
       4       -0.019037741493     0.012907246067     0.008171967972
       5       -0.012947304613     0.006716076556     0.001347184838
       6        0.007689537095    -0.010373956015     0.005944628856
       7        0.005450731458     0.002191752342    -0.010896164757
       8       -0.012921634088     0.006884362942     0.004247730792
       9        0.012449000244    -0.007490623981    -0.009263273122
      10        0.000994186564    -0.000491788094    -0.013525034954
      11        0.028327582257    -0.010965474389    -0.002577319982
      12       -0.001796423872     0.001381710120     0.000020580269
      13       -0.008175866687     0.004414347440     0.009309694032
      14        0.002570172381    -0.005504750007    -0.002321549886
      15        0.000892219858     0.001861444828    -0.006789603535
      16       -0.003288050089     0.002485585348    -0.005220229407
      17       -0.005255069097     0.004096171520    -0.002621085871
      18       -0.003075308752    -0.000679973955     0.009779213686
      19       -0.001714638444     0.000348368300     0.004690146310
      20        0.002040815839    -0.000318533103    -0.002837792702
      21        0.002311279652    -0.001300476630    -0.000353920520
      22        0.005090393310    -0.003157502303    -0.003265925699
      23        0.000012631124    -0.000314639413     0.007099256786


*** tstop() called on gpu-2-12.local at Sat Nov 11 19:07:07 2017
Module time:
	user time   =    6585.39 seconds =     109.76 minutes
	system time =     139.84 seconds =       2.33 minutes
	total time  =       3046 seconds =      50.77 minutes
Total time:
	user time   =    6585.39 seconds =     109.76 minutes
	system time =     139.84 seconds =       2.33 minutes
	total time  =       3046 seconds =      50.77 minutes

			-----------------------------------------
			 OPTKING 2.0: for geometry optimizations 
			  - R.A. King,  Bethel University        
			-----------------------------------------

	Internal coordinates to be generated automatically.
	Detected frag 1 with atoms:  1 2 3 4 5 6 7 8 9 10 11 12 13 14 15 16 17 18 19 20
	 21 22 23
	---Fragment 1 Bond Connectivity---
	 1 : 2 8 15
	 2 : 1 10 16
	 3 : 6 9 17
	 4 : 7 9 18
	 5 : 10 11 19
	 6 : 3 12 20
	 7 : 4 12 21
	 8 : 1 9 11
	 9 : 3 4 8
	 10 : 2 5 13
	 11 : 5 8 14
	 12 : 6 7 22
	 13 : 10 23
	 14 : 11
	 15 : 1
	 16 : 2
	 17 : 3
	 18 : 4
	 19 : 5
	 20 : 6
	 21 : 7
	 22 : 12
	 23 : 13

	Assuming in current code that numbering for constraints corresponds to unified fragment.
	Fixed dihedral atom list: 
	     1     8     9     3
	---Fragment 1 Geometry and Gradient---
	 C          -2.5282019936        1.4437721852       -1.4894808138
	 C          -4.5653267648        2.5265852594       -0.2176951264
	 C           2.2905996453        0.1587584148       -3.7873877914
	 C           2.8216126886       -2.8440164103       -0.4066677397
	 C          -2.6888287149        1.3625139615        3.7790756447
	 C           4.3182757858       -0.9561800036       -5.0175995039
	 C           4.8379504724       -3.8833657834       -1.7238068543
	 C          -0.5704457199        0.3193851361       -0.1288779981
	 C           1.5403783705       -0.8031121868       -1.4573554696
	 C          -4.6465849886        2.4869010106        2.4165831029
	 C          -0.6517039436        0.2797008874        2.5054002311
	 N           5.5201416064       -2.9196054556       -3.9650220479
	 O          -6.6364666065        3.5451476450        3.6581331722
	 F           1.2153454757       -0.7936635561        3.8414366071
	 H          -2.4922971971        1.4891256124       -3.5436131203
	 H          -6.0865563018        3.3977490066       -1.2891698437
	 H           1.3249495914        1.7499078187       -4.6509926341
	 H           2.2773715623       -3.6339219339        1.4074693479
	 H          -2.7417410466        1.3247194388        5.8313182250
	 H           5.0325922641       -0.3344601058       -6.8298468653
	 H           5.9396608079       -5.4669562828       -1.0548438032
	 H           7.0054663468       -3.7132904314       -4.9023262098
	 H          -6.4210378273        3.3675133885        5.4703805336
	             0.0138635660       -0.0114841386       -0.0132566507
	             0.0003435070       -0.0003161070        0.0107597588
	            -0.0138235857        0.0091108981        0.0115583888
	            -0.0190377415        0.0129072461        0.0081719680
	            -0.0129473046        0.0067160766        0.0013471848
	             0.0076895371       -0.0103739560        0.0059446289
	             0.0054507315        0.0021917523       -0.0108961648
	            -0.0129216341        0.0068843629        0.0042477308
	             0.0124490002       -0.0074906240       -0.0092632731
	             0.0009941866       -0.0004917881       -0.0135250350
	             0.0283275823       -0.0109654744       -0.0025773200
	            -0.0017964239        0.0013817101        0.0000205803
	            -0.0081758667        0.0044143474        0.0093096940
	             0.0025701724       -0.0055047500       -0.0023215499
	             0.0008922199        0.0018614448       -0.0067896035
	            -0.0032880501        0.0024855853       -0.0052202294
	            -0.0052550691        0.0040961715       -0.0026210859
	            -0.0030753088       -0.0006799740        0.0097792137
	            -0.0017146384        0.0003483683        0.0046901463
	             0.0020408158       -0.0003185331       -0.0028377927
	             0.0023112797       -0.0013004766       -0.0003539205
	             0.0050903933       -0.0031575023       -0.0032659257
	             0.0000126311       -0.0003146394        0.0070992568

	Previous optimization step data not found.  Starting new optimization.

	---Fragment 1 Intrafragment Coordinates---
	 - Coordinate -           - BOHR/RAD -       - ANG/DEG -
	 R(1,2)           =         2.634350	       1.394038
	 R(1,8)           =         2.635962	       1.394891
	 R(1,15)          =         2.054947	       1.087431
	 R(2,10)          =         2.635830	       1.394821
	 R(2,16)          =         2.054537	       1.087214
	 R(3,6)           =         2.620683	       1.386806
	 R(3,9)           =         2.630034	       1.391754
	 R(3,17)          =         2.051841	       1.085787
	 R(4,7)           =         2.623113	       1.388091
	 R(4,9)           =         2.628839	       1.391122
	 R(4,18)          =         2.052131	       1.085941
	 R(5,10)          =         2.636938	       1.395407
	 R(5,11)          =         2.635263	       1.394521
	 R(5,19)          =         2.053272	       1.086545
	 R(6,12)          =         2.531292	       1.339502
	 R(6,20)          =         2.044755	       1.082038
	 R(7,12)          =         2.533232	       1.340529
	 R(7,21)          =         2.041822	       1.080486
	 R(8,9)           =         2.735038	       1.447320
	 R(8,11)          =         2.635830	       1.394821
	 R(10,13)         =         2.573123	       1.361638
	 R(11,14)         =         2.534359	       1.341125
	 R(12,22)         =         1.927346	       1.019908
	 R(13,23)         =         1.833631	       0.970316
	 B(1,2,10)        =         2.094553	     120.009056
	 B(1,2,16)        =         2.088723	     119.675016
	 B(1,8,9)         =         2.091569	     119.838095
	 B(1,8,11)        =         2.093692	     119.959722
	 B(2,1,8)         =         2.094940	     120.031219
	 B(2,1,15)        =         2.079469	     119.144799
	 B(2,10,5)        =         2.094306	     119.994870
	 B(2,10,13)       =         2.094247	     119.991510
	 B(3,6,12)        =         2.096894	     120.143148
	 B(3,6,20)        =         2.161543	     123.847293
	 B(3,9,4)         =         2.093234	     119.933468
	 B(3,9,8)         =         2.094823	     120.024493
	 B(4,7,12)        =         2.094979	     120.033456
	 B(4,7,21)        =         2.162230	     123.886642
	 B(4,9,8)         =         2.095129	     120.042038
	 B(5,10,13)       =         2.094633	     120.013619
	 B(5,11,8)        =         2.095181	     120.045019
	 B(5,11,14)       =         2.081414	     119.256220
	 B(6,3,9)         =         2.072579	     118.750044
	 B(6,3,17)        =         2.090326	     119.766880
	 B(6,12,7)        =         2.135454	     122.352526
	 B(6,12,22)       =         2.074995	     118.888442
	 B(7,4,9)         =         2.073230	     118.787321
	 B(7,4,18)        =         2.088906	     119.685506
	 B(7,12,22)       =         2.072734	     118.758921
	 B(8,1,15)        =         2.108776	     120.823969
	 B(8,11,14)       =         2.106591	     120.698759
	 B(9,3,17)        =         2.120279	     121.483058
	 B(9,4,18)        =         2.121049	     121.527128
	 B(9,8,11)        =         2.097924	     120.202184
	 B(10,2,16)       =         2.099909	     120.315896
	 B(10,5,11)       =         2.093699	     119.960108
	 B(10,5,19)       =         2.100355	     120.341451
	 B(10,13,23)      =         1.924294	     110.253909
	 B(11,5,19)       =         2.089132	     119.698439
	 B(12,6,20)       =         2.024746	     116.009427
	 B(12,7,21)       =         2.025976	     116.079894
	 D(1,2,10,5)      =        -0.000325	      -0.018609
	 D(1,2,10,13)     =         3.141388	     179.988267
	 D(1,8,9,3)       =         0.523656	      30.003259
	 D(1,8,9,4)       =        -2.618119	    -150.007160
	 D(1,8,11,5)      =         0.000325	       0.018608
	 D(1,8,11,14)     =        -3.141528	    -179.996269
	 D(2,1,8,9)       =         3.141277	     179.981897
	 D(2,1,8,11)      =        -0.000348	      -0.019945
	 D(2,10,5,11)     =         0.000301	       0.017261
	 D(2,10,5,19)     =        -3.141029	    -179.967685
	 D(2,10,13,23)    =         3.141285	     179.982383
	 D(3,6,12,7)      =         0.000881	       0.050500
	 D(3,6,12,22)     =         3.140329	     179.927593
	 D(3,9,4,7)       =        -0.000821	      -0.047032
	 D(3,9,4,18)      =        -3.141076	    -179.970385
	 D(3,9,8,11)      =        -2.617905	    -149.994895
	 D(4,7,12,6)      =        -0.000687	      -0.039346
	 D(4,7,12,22)     =        -3.140137	    -179.916591
	 D(4,9,3,6)       =         0.001007	       0.057697
	 D(4,9,3,17)      =        -3.141439	    -179.991203
	 D(4,9,8,11)      =         0.523506	      29.994685
	 D(5,10,2,16)     =         3.140149	     179.917291
	 D(5,10,13,23)    =        -0.000187	      -0.010740
	 D(5,11,8,9)      =        -3.141300	    -179.983240
	 D(6,3,9,8)       =        -3.140767	    -179.952711
	 D(6,12,7,21)     =         3.141450	     179.991831
	 D(7,4,9,8)       =         3.140953	     179.963378
	 D(7,12,6,20)     =         3.140258	     179.923511
	 D(8,1,2,10)      =         0.000348	       0.019955
	 D(8,1,2,16)      =        -3.140133	    -179.916358
	 D(8,9,3,17)      =        -0.000028	      -0.001612
	 D(8,9,4,18)      =         0.000699	       0.040025
	 D(8,11,5,10)     =        -0.000301	      -0.017270
	 D(8,11,5,19)     =         3.141030	     179.967774
	 D(9,3,6,12)      =        -0.001026	      -0.058779
	 D(9,3,6,20)      =        -3.140220	    -179.921362
	 D(9,4,7,12)      =         0.000645	       0.036984
	 D(9,4,7,21)      =        -3.141536	    -179.996748
	 D(9,8,1,15)      =         0.000403	       0.023110
	 D(9,8,11,14)     =         0.000033	       0.001883
	 D(10,2,1,15)     =         3.141234	     179.979432
	 D(10,5,11,14)    =         3.141547	     179.997392
	 D(11,5,10,13)    =        -3.141411	    -179.989616
	 D(11,8,1,15)     =        -3.141221	    -179.978731
	 D(12,6,3,17)     =         3.141405	     179.989262
	 D(12,7,4,18)     =         3.140926	     179.961781
	 D(13,10,2,16)    =        -0.001324	      -0.075833
	 D(13,10,5,19)    =         0.000444	       0.025437
	 D(14,11,5,19)    =        -0.000307	      -0.017564
	 D(15,1,2,16)     =         0.000753	       0.043120
	 D(17,3,6,20)     =         0.002211	       0.126679
	 D(18,4,7,21)     =        -0.001256	      -0.071951
	 D(20,6,12,22)    =        -0.003480	      -0.199397
	 D(21,7,12,22)    =         0.002000	       0.114586
	 R(4,14)          =         4.983014	       2.636898

	Current energy   :      -653.2454391912

	Generating empirical Hessian (Schlegel '84) for each fragment.
	Adding user-defined constraint: Fragment 1; Coordinate 64:
		Value =     0.523656; Fixed value    =     0.523599
		Force =    -0.000028; Force constant =     0.500000
	Removing off-diagonal coupling between coordinate 64 and others.
	Taking RFO optimization step.
	Going to follow RFO solution 1.
	Using RFO vector 1.

	Determining step-restricting scale parameter for RS-RFO.
	Maximum step size allowed    0.10000

	 Iter      |step|        alpha        rfo_root  
	------------------------------------------------
	    0     0.28365       1.00000           1
	    1     0.19888       4.19166           1
	    2     0.14917      11.80966           1
	    3     0.11891      25.55551           1
	    4     0.10420      38.77584           1
	    5     0.10028      43.55839           1
	    6     0.10000      43.92477           1
	------------------------------------------------
	Norm of target step-size    0.10000
	Projected energy change by RFO approximation:        -0.0053113221

	Back-transformation to cartesian coordinates...
	Could not converge backtransformation.
	Using first guess instead.

	--- Internal Coordinate Step in ANG or DEG, aJ/ANG or AJ/DEG ---
	 ---------------------------------------------------------------------------
	   Coordinate                Previous        Force       Change         New 
	   ----------                --------       ------       ------       ------
	    1 R(1,2)          =      1.394038    -0.111251    -0.010227     1.383811
	    2 R(1,8)          =      1.394891     0.021670     0.002265     1.397156
	    3 R(1,15)         =      1.087431    -0.056382    -0.006173     1.081258
	    4 R(2,10)         =      1.394821    -0.048049    -0.004489     1.390332
	    5 R(2,16)         =      1.087214    -0.051170    -0.005585     1.081629
	    6 R(3,6)          =      1.386806    -0.110021    -0.009954     1.376852
	    7 R(3,9)          =      1.391754     0.060124     0.005689     1.397443
	    8 R(3,17)         =      1.085787    -0.055635    -0.006086     1.079702
	    9 R(4,7)          =      1.388091    -0.108784    -0.009854     1.378238
	   10 R(4,9)          =      1.391122     0.078688     0.007426     1.398548
	   11 R(4,18)         =      1.085941    -0.080100    -0.008719     1.077222
	   12 R(5,10)         =      1.395407    -0.029181    -0.002787     1.392621
	   13 R(5,11)         =      1.394521    -0.147565    -0.013526     1.380995
	   14 R(5,19)         =      1.086545    -0.038933    -0.004204     1.082341
	   15 R(6,12)         =      1.339502     0.019604     0.001461     1.340963
	   16 R(6,20)         =      1.082038    -0.025797    -0.002792     1.079246
	   17 R(7,12)         =      1.340529     0.016715     0.001257     1.341785
	   18 R(7,21)         =      1.080486    -0.017629    -0.001909     1.078577
	   19 R(8,9)          =      1.447320     0.047784     0.005198     1.452518
	   20 R(8,11)         =      1.394821    -0.034204    -0.002799     1.392023
	   21 R(10,13)        =      1.361638    -0.131131    -0.010837     1.350801
	   22 R(11,14)        =      1.341125    -0.026958    -0.002110     1.339016
	   23 R(12,22)        =      1.019908    -0.056118    -0.005340     1.014568
	   24 R(13,23)        =      0.970316    -0.058071    -0.004751     0.965565
	   25 B(1,2,10)       =    120.009056    -0.000148    -0.247234   119.761822
	   26 B(1,2,16)       =    119.675016     0.000257     0.477200   120.152216
	   27 B(1,8,9)        =    119.838095     0.000729     1.074003   120.912097
	   28 B(1,8,11)       =    119.959722    -0.000940    -1.474057   118.485665
	   29 B(2,1,8)        =    120.031219     0.000459     0.795315   120.826534
	   30 B(2,1,15)       =    119.144799    -0.000218    -0.378526   118.766273
	   31 B(2,10,5)       =    119.994870     0.000097     0.135240   120.130110
	   32 B(2,10,13)      =    119.991510    -0.000961    -1.506036   118.485475
	   33 B(3,6,12)       =    120.143148    -0.000257    -0.463947   119.679201
	   34 B(3,6,20)       =    123.847293     0.000007    -0.002464   123.844829
	   35 B(3,9,4)        =    119.933468    -0.000761    -1.184646   118.748822
	   36 B(3,9,8)        =    120.024493     0.000302     0.428856   120.453350
	   37 B(4,7,12)       =    120.033456    -0.000138    -0.254348   119.779108
	   38 B(4,7,21)       =    123.886642    -0.000050    -0.103056   123.783586
	   39 B(4,9,8)        =    120.042038     0.000459     0.755767   120.797805
	   40 B(5,10,13)      =    120.013619     0.000864     1.370796   121.384415
	   41 B(5,11,8)       =    120.045019     0.000804     1.257384   121.302403
	   42 B(5,11,14)      =    119.256220    -0.000159    -0.296153   118.960068
	   43 B(6,3,9)        =    118.750044     0.000538     0.903671   119.653715
	   44 B(6,3,17)       =    119.766880    -0.000379    -0.668967   119.097913
	   45 B(6,12,7)       =    122.352526     0.000233     0.342179   122.694704
	   46 B(6,12,22)      =    118.888442    -0.000135    -0.206668   118.681774
	   47 B(7,4,9)        =    118.787321     0.000386     0.657054   119.444375
	   48 B(7,4,18)       =    119.685506    -0.000390    -0.714508   118.970998
	   49 B(7,12,22)      =    118.758921    -0.000098    -0.135543   118.623378
	   50 B(8,1,15)       =    120.823969    -0.000241    -0.417622   120.406347
	   51 B(8,11,14)      =    120.698759    -0.000645    -0.962230   119.736530
	   52 B(9,3,17)       =    121.483058    -0.000159    -0.234935   121.248123
	   53 B(9,4,18)       =    121.527128     0.000004     0.056621   121.583749
	   54 B(9,8,11)       =    120.202184     0.000210     0.399993   120.602177
	   55 B(10,2,16)      =    120.315896    -0.000109    -0.229976   120.085921
	   56 B(10,5,11)      =    119.960108    -0.000272    -0.466896   119.493213
	   57 B(10,5,19)      =    120.341451     0.000261     0.473873   120.815324
	   58 B(10,13,23)     =    110.253909    -0.000126    -0.246970   110.006939
	   59 B(11,5,19)      =    119.698439     0.000010    -0.006978   119.691461
	   60 B(12,6,20)      =    116.009427     0.000250     0.466171   116.475598
	   61 B(12,7,21)      =    116.079894     0.000189     0.357403   116.437297
	   62 D(1,2,10,5)     =     -0.018609    -0.000005    -0.067814    -0.086422
	   63 D(1,2,10,13)    =    179.988267    -0.000005    -0.068984   179.919283
	   64 D(1,8,9,3)      =     30.003259     0.000009     0.069927    30.073186
	   65 D(1,8,9,4)      =   -150.007160     0.000011     0.136572  -149.870589
	   66 D(1,8,11,5)     =      0.018608    -0.000005    -0.051759    -0.033151
	   67 D(1,8,11,14)    =   -179.996269     0.000024     0.330747  -179.665522
	   68 D(2,1,8,9)      =    179.981897    -0.000001    -0.007190   179.974707
	   69 D(2,1,8,11)     =     -0.019945    -0.000006    -0.094074    -0.114019
	   70 D(2,10,5,11)    =      0.017261    -0.000005    -0.075206    -0.057945
	   71 D(2,10,5,19)    =   -179.967685    -0.000007    -0.105097  -180.072783
	   72 D(2,10,13,23)   =    179.982383     0.000001     0.013448   179.995832
	   73 D(3,6,12,7)     =      0.050500     0.000003     0.037742     0.088242
	   74 D(3,6,12,22)    =    179.927593     0.000002     0.020599   179.948192
	   75 D(3,9,4,7)      =     -0.047032    -0.000000     0.016650    -0.030382
	   76 D(3,9,4,18)     =   -179.970385     0.000020     0.284354  -179.686031
	   77 D(3,9,8,11)     =   -149.994895     0.000013     0.158685  -149.836210
	   78 D(4,7,12,6)     =     -0.039346    -0.000005    -0.065291    -0.104637
	   79 D(4,7,12,22)    =   -179.916591    -0.000004    -0.048074  -179.964665
	   80 D(4,9,3,6)      =      0.057697    -0.000002    -0.043190     0.014506
	   81 D(4,9,3,17)     =   -179.991203     0.000015     0.188870  -179.802334
	   82 D(4,9,8,11)     =     29.994685     0.000016     0.225330    30.220015
	   83 D(5,10,2,16)    =    179.917291    -0.000006    -0.077422   179.839869
	   84 D(5,10,13,23)   =     -0.010740     0.000001     0.012351     0.001611
	   85 D(5,11,8,9)     =   -179.983240    -0.000009    -0.138352  -180.121592
	   86 D(6,3,9,8)      =   -179.952711     0.000000     0.022304  -179.930407
	   87 D(6,12,7,21)    =    179.991831    -0.000009    -0.130342   179.861489
	   88 D(7,4,9,8)      =    179.963378    -0.000002    -0.049043   179.914336
	   89 D(7,12,6,20)    =    179.923511    -0.000004    -0.048409   179.875102
	   90 D(8,1,2,10)     =      0.019955     0.000011     0.153694     0.173649
	   91 D(8,1,2,16)     =   -179.916358     0.000012     0.163765  -179.752593
	   92 D(8,9,3,17)     =     -0.001612     0.000018     0.254364     0.252752
	   93 D(8,9,4,18)     =      0.040025     0.000018     0.218661     0.258686
	   94 D(8,11,5,10)    =     -0.017270     0.000011     0.135584     0.118314
	   95 D(8,11,5,19)    =    179.967774     0.000012     0.165209   180.132983
	   96 D(9,3,6,12)     =     -0.058779     0.000001     0.017164    -0.041615
	   97 D(9,3,6,20)     =   -179.921362     0.000008     0.109459  -179.811903
	   98 D(9,4,7,12)     =      0.036984     0.000003     0.036761     0.073745
	   99 D(9,4,7,21)     =   -179.996748     0.000009     0.106987  -179.889761
	  100 D(9,8,1,15)     =      0.023110     0.000021     0.290362     0.313472
	  101 D(9,8,11,14)    =      0.001883     0.000019     0.244154     0.246037
	  102 D(10,2,1,15)    =    179.979432    -0.000011    -0.139087   179.840345
	  103 D(10,5,11,14)   =    179.997392    -0.000018    -0.243917   179.753475
	  104 D(11,5,10,13)   =   -179.989616    -0.000006    -0.074203  -180.063819
	  105 D(11,8,1,15)    =   -179.978731     0.000016     0.203477  -179.775254
	  106 D(12,6,3,17)    =    179.989262    -0.000016    -0.210083   179.779179
	  107 D(12,7,4,18)    =    179.961781    -0.000017    -0.223338   179.738443
	  108 D(13,10,2,16)   =     -0.075833    -0.000006    -0.078593    -0.154426
	  109 D(13,10,5,19)   =      0.025437    -0.000008    -0.104094    -0.078656
	  110 D(14,11,5,19)   =     -0.017564    -0.000016    -0.214292    -0.231856
	  111 D(15,1,2,16)    =      0.043120    -0.000010    -0.129017    -0.085897
	  112 D(17,3,6,20)    =      0.126679    -0.000009    -0.117788     0.008891
	  113 D(18,4,7,21)    =     -0.071951    -0.000011    -0.153112    -0.225063
	  114 D(20,6,12,22)   =     -0.199397    -0.000005    -0.065551    -0.264948
	  115 D(21,7,12,22)   =      0.114586    -0.000008    -0.113124     0.001461
	  116 R(4,14)         =      2.636898     0.059263     0.014165     2.651062
	 ---------------------------------------------------------------------------
	Successfully symmetrized geometry.
	 Forces used to impose fixed constraints are not included.
	  Forces zeroed: 64 

  ==> Convergence Check <==

  Measures of convergence in internal coordinates in au.
  Criteria marked as inactive (o), active & met (*), and active & unmet ( ).
  --------------------------------------------------------------------------------------------- ~
   Step     Total Energy     Delta E     MAX Force     RMS Force      MAX Disp      RMS Disp    ~
  --------------------------------------------------------------------------------------------- ~
    Convergence Criteria    1.00e-06 *    3.00e-04 *             o    1.20e-03 *             o  ~
  --------------------------------------------------------------------------------------------- ~
      1    -653.24543919   -6.53e+02      1.79e-02      5.06e-03 o    2.68e-02      9.28e-03 o  ~
  ---------------------------------------------------------------------------------------------

	Writing optimization data to binary file.
	Structure for next step:
	Cartesian Geometry (in Angstrom)
	    C    -1.3547594095   0.7702578626  -0.7712656115
	    C    -2.4240556273   1.3383869989  -0.1013634531
	    C     1.2265890890   0.0748628042  -2.0073427325
	    C     1.5051209564  -1.5150387829  -0.2231270614
	    C    -1.4212827042   0.7228984094   2.0038327555
	    C     2.2922728816  -0.5049160731  -2.6584158726
	    C     2.5656098299  -2.0613542214  -0.9133746492
	    C    -0.3072180936   0.1694507691  -0.0686035240
	    C     0.8157957652  -0.4279217628  -0.7698842953
	    C    -2.4583254094   1.3162340803   1.2883694732
	    C    -0.3618052169   0.1570716160   1.3222932858
	    N     2.9260037826  -1.5456177197  -2.0984991695
	    O    -3.5134888414   1.8797536748   1.9158559071
	    F     0.6319746034  -0.4061243561   2.0209886057
	    H    -1.3458400559   0.7942250162  -1.8522215550
	    H    -3.2311561972   1.7971220522  -0.6564057857
	    H     0.7254355714   0.9145793179  -2.4650291833
	    H     1.2242584829  -1.9420203521   0.7251399711
	    H    -1.4360587330   0.7004308965   3.0858397442
	    H     2.6675691972  -0.1701820196  -3.6133389052
	    H     3.1440241331  -2.8997698351  -0.5586579764
	    H     3.7088411673  -1.9617461384  -2.5918052631
	    H    -3.4124432671   1.7956784637   2.8724314111
			--------------------------
			 OPTKING Finished Execution 
			--------------------------

    Structure for next step:
    Molecular point group: c1
    Full point group: C1

    Geometry (in Angstrom), charge = 1, multiplicity = 1:

    C           -1.353588958721     0.769167297124    -0.770075993405
    C           -2.422885176470     1.337296433474    -0.100173835043
    C            1.227759539770     0.073772238732    -2.006153114465
    C            1.506291407231    -1.516129348339    -0.221937443323
    C           -1.420112253355     0.721807843977     2.005022373528
    C            2.293443332371    -0.506006638597    -2.657226254556
    C            2.566780280685    -2.062444786819    -0.912185031101
    C           -0.306047642851     0.168360203680    -0.067413905965
    C            0.816966215971    -0.429012328226    -0.768694677196
    C           -2.457154958616     1.315143514871     1.289559091233
    C           -0.360634766123     0.155981050502     1.323482903824
    N            2.927174233392    -1.546708285189    -2.097309551432
    O           -3.512318390648     1.878663109375     1.917045525133
    F            0.633145054172    -0.407214921523     2.022178223741
    H           -1.344669605081     0.793134450735    -1.851031936929
    H           -3.229985746365     1.796031486739    -0.655216167598
    H            0.726606022197     0.913488752462    -2.463839565195
    H            1.225428933656    -1.943110917583     0.726329589189
    H           -1.434888282169     0.699340331015     3.087029362286
    H            2.668739647958    -0.171272585031    -3.612149287140
    H            3.145194583882    -2.900860400515    -0.557468358306
    H            3.710011618115    -1.962836703892    -2.590615645050
    H           -3.411272816281     1.794587898262     2.873621029178

gradient() will perform analytic gradient computation.

*** tstart() called on gpu-2-12.local
*** at Sat Nov 11 19:07:09 2017

    SCF Algorithm Type (re)set to DF.

*** tstart() called on gpu-2-12.local
*** at Sat Nov 11 19:07:09 2017

   => Loading Basis Set <=

    Name: AUG-CC-PVTZ
    Role: ORBITAL
    Keyword: BASIS
    atoms 1-11  entry C          line   221 file /cbio/jclab/home/chayas/anaconda/envs/py35/share/psi4/basis/aug-cc-pvtz.gbs 
    atoms 12    entry N          line   267 file /cbio/jclab/home/chayas/anaconda/envs/py35/share/psi4/basis/aug-cc-pvtz.gbs 
    atoms 13    entry O          line   313 file /cbio/jclab/home/chayas/anaconda/envs/py35/share/psi4/basis/aug-cc-pvtz.gbs 
    atoms 14    entry F          line   359 file /cbio/jclab/home/chayas/anaconda/envs/py35/share/psi4/basis/aug-cc-pvtz.gbs 
    atoms 15-23 entry H          line    34 file /cbio/jclab/home/chayas/anaconda/envs/py35/share/psi4/basis/aug-cc-pvtz.gbs 


         ---------------------------------------------------------
                                   SCF
            by Justin Turney, Rob Parrish, and Andy Simmonett
                              RHF Reference
                        8 Threads,   4768 MiB Core
         ---------------------------------------------------------

  ==> Geometry <==

    Molecular point group: c1
    Full point group: C1

    Geometry (in Angstrom), charge = 1, multiplicity = 1:

       Center              X                  Y                   Z               Mass       
    ------------   -----------------  -----------------  -----------------  -----------------
           C         -1.353588958721     0.769167297124    -0.770075993405    12.000000000000
           C         -2.422885176470     1.337296433474    -0.100173835043    12.000000000000
           C          1.227759539770     0.073772238732    -2.006153114465    12.000000000000
           C          1.506291407231    -1.516129348339    -0.221937443323    12.000000000000
           C         -1.420112253355     0.721807843977     2.005022373528    12.000000000000
           C          2.293443332371    -0.506006638597    -2.657226254556    12.000000000000
           C          2.566780280685    -2.062444786819    -0.912185031101    12.000000000000
           C         -0.306047642851     0.168360203680    -0.067413905965    12.000000000000
           C          0.816966215971    -0.429012328226    -0.768694677196    12.000000000000
           C         -2.457154958616     1.315143514871     1.289559091233    12.000000000000
           C         -0.360634766123     0.155981050502     1.323482903824    12.000000000000
           N          2.927174233392    -1.546708285189    -2.097309551432    14.003074004780
           O         -3.512318390648     1.878663109375     1.917045525133    15.994914619560
           F          0.633145054172    -0.407214921523     2.022178223741    18.998403224000
           H         -1.344669605081     0.793134450735    -1.851031936929     1.007825032070
           H         -3.229985746365     1.796031486739    -0.655216167598     1.007825032070
           H          0.726606022197     0.913488752462    -2.463839565195     1.007825032070
           H          1.225428933656    -1.943110917583     0.726329589189     1.007825032070
           H         -1.434888282169     0.699340331015     3.087029362286     1.007825032070
           H          2.668739647958    -0.171272585031    -3.612149287140     1.007825032070
           H          3.145194583882    -2.900860400515    -0.557468358306     1.007825032070
           H          3.710011618115    -1.962836703892    -2.590615645050     1.007825032070
           H         -3.411272816281     1.794587898262     2.873621029178     1.007825032070

  Running in c1 symmetry.

  Rotational constants: A =      0.06342  B =      0.01324  C =      0.01118 [cm^-1]
  Rotational constants: A =   1901.32042  B =    396.94326  C =    335.22193 [MHz]
  Nuclear repulsion =  832.676594509041365

  Charge       = 1
  Multiplicity = 1
  Electrons    = 98
  Nalpha       = 49
  Nbeta        = 49

  ==> Algorithm <==

  SCF Algorithm Type is DF.
  DIIS enabled.
  MOM disabled.
  Fractional occupation disabled.
  Guess Type is READ.
  Energy threshold   = 1.00e-10
  Density threshold  = 1.00e-10
  Integral threshold = 0.00e+00

  ==> Primary Basis <==

  Basis Set: AUG-CC-PVTZ
    Blend: AUG-CC-PVTZ
    Number of shells: 277
    Number of basis function: 851
    Number of Cartesian functions: 995
    Spherical Harmonics?: true
    Max angular momentum: 3

   => Loading Basis Set <=

    Name: (AUG-CC-PVTZ AUX)
    Role: JKFIT
    Keyword: DF_BASIS_SCF
    atoms 1-11  entry C          line   161 file /cbio/jclab/home/chayas/anaconda/envs/py35/share/psi4/basis/aug-cc-pvtz-jkfit.gbs 
    atoms 12    entry N          line   223 file /cbio/jclab/home/chayas/anaconda/envs/py35/share/psi4/basis/aug-cc-pvtz-jkfit.gbs 
    atoms 13    entry O          line   285 file /cbio/jclab/home/chayas/anaconda/envs/py35/share/psi4/basis/aug-cc-pvtz-jkfit.gbs 
    atoms 14    entry F          line   347 file /cbio/jclab/home/chayas/anaconda/envs/py35/share/psi4/basis/aug-cc-pvtz-jkfit.gbs 
    atoms 15-23 entry H          line    69 file /cbio/jclab/home/chayas/anaconda/envs/py35/share/psi4/basis/aug-cc-pvtz-jkfit.gbs 

  Reading orbitals from file 180, no projection.

  ==> Pre-Iterations <==

   -------------------------------------------------------
    Irrep   Nso     Nmo     Nalpha   Nbeta   Ndocc  Nsocc
   -------------------------------------------------------
     A        851     851       0       0       0       0
   -------------------------------------------------------
    Total     851     851      49      49      49       0
   -------------------------------------------------------

  ==> Integral Setup <==

  ==> DFJK: Density-Fitted J/K Matrices <==

    J tasked:                  Yes
    K tasked:                  Yes
    wK tasked:                  No
    OpenMP threads:              8
    Integrals threads:           8
    Memory (MB):              3576
    Algorithm:                Disk
    Integral Cache:           NONE
    Schwarz Cutoff:          1E-12
    Fitting Condition:       1E-12

   => Auxiliary Basis Set <=

  Basis Set: (AUG-CC-PVTZ AUX)
    Blend: AUG-CC-PVTZ-JKFIT
    Number of shells: 546
    Number of basis function: 1870
    Number of Cartesian functions: 2329
    Spherical Harmonics?: true
    Max angular momentum: 4

  Minimum eigenvalue in the overlap matrix is 6.0737558955E-07.
  Using Symmetric Orthogonalization.

  SCF Guess: Orbitals guess was supplied from a previous computation.

  ==> Iterations <==

                           Total Energy        Delta E     RMS |[F,P]|

   @DF-RHF iter   0:  -650.65053489278307   -6.50651e+02   4.76861e-04 
   @DF-RHF iter   1:  -650.56613591213920    8.43990e-02   9.63266e-05 
   @DF-RHF iter   2:  -650.56644932533129   -3.13413e-04   4.72646e-05 DIIS
   @DF-RHF iter   3:  -650.56665524863422   -2.05923e-04   9.61459e-06 DIIS
   @DF-RHF iter   4:  -650.56666272489213   -7.47626e-06   3.67572e-06 DIIS
   @DF-RHF iter   5:  -650.56666489393785   -2.16905e-06   1.48654e-06 DIIS
   @DF-RHF iter   6:  -650.56666547655300   -5.82615e-07   9.57485e-07 DIIS
   @DF-RHF iter   7:  -650.56666571295727   -2.36404e-07   4.32920e-07 DIIS
   @DF-RHF iter   8:  -650.56666576921157   -5.62543e-08   1.08225e-07 DIIS
   @DF-RHF iter   9:  -650.56666577292140   -3.70983e-09   4.42929e-08 DIIS
   @DF-RHF iter  10:  -650.56666577315298   -2.31580e-10   1.89297e-08 DIIS
   @DF-RHF iter  11:  -650.56666577324449   -9.15179e-11   5.64467e-09 DIIS
   @DF-RHF iter  12:  -650.56666577324563   -1.13687e-12   2.28998e-09 DIIS
   @DF-RHF iter  13:  -650.56666577325836   -1.27329e-11   1.06344e-09 DIIS
   @DF-RHF iter  14:  -650.56666577324484    1.35287e-11   4.25194e-10 DIIS
   @DF-RHF iter  15:  -650.56666577326030   -1.54614e-11   1.99288e-10 DIIS
   @DF-RHF iter  16:  -650.56666577323790    2.23963e-11   7.06265e-11 DIIS

  ==> Post-Iterations <==

    Orbital Energies (a.u.)
    -----------------------

    Doubly Occupied:                                                      

       1A    -26.451571     2A    -20.714860     3A    -15.830972  
       4A    -11.481788     5A    -11.479422     6A    -11.475387  
       7A    -11.451960     8A    -11.447124     9A    -11.413722  
      10A    -11.408950    11A    -11.388823    12A    -11.381651  
      13A    -11.364425    14A    -11.355550    15A     -1.773695  
      16A     -1.534910    17A     -1.509134    18A     -1.323973  
      19A     -1.275031    20A     -1.238005    21A     -1.168208  
      22A     -1.161477    23A     -1.067893    24A     -1.061176  
      25A     -0.998309    26A     -0.973154    27A     -0.959608  
      28A     -0.901094    29A     -0.874950    30A     -0.863073  
      31A     -0.855477    32A     -0.839801    33A     -0.822008  
      34A     -0.807852    35A     -0.788857    36A     -0.773821  
      37A     -0.768621    38A     -0.754335    39A     -0.727963  
      40A     -0.717157    41A     -0.710174    42A     -0.690434  
      43A     -0.660829    44A     -0.650223    45A     -0.637974  
      46A     -0.574530    47A     -0.537442    48A     -0.478642  
      49A     -0.446819  

    Virtual:                                                              

      50A     -0.107416    51A     -0.083151    52A     -0.061690  
      53A     -0.059559    54A     -0.055848    55A     -0.047637  
      56A     -0.043637    57A     -0.039501    58A     -0.032570  
      59A     -0.026647    60A     -0.023793    61A     -0.020009  
      62A     -0.015003    63A     -0.009914    64A     -0.006983  
      65A     -0.000411    66A      0.005539    67A      0.006852  
      68A      0.010328    69A      0.015206    70A      0.019130  
      71A      0.022215    72A      0.024285    73A      0.028480  
      74A      0.028988    75A      0.033535    76A      0.037929  
      77A      0.038845    78A      0.041275    79A      0.045684  
      80A      0.050597    81A      0.056800    82A      0.058147  
      83A      0.064495    84A      0.068230    85A      0.070393  
      86A      0.072528    87A      0.075159    88A      0.082333  
      89A      0.083386    90A      0.085688    91A      0.094907  
      92A      0.096659    93A      0.106888    94A      0.110080  
      95A      0.111737    96A      0.117159    97A      0.122682  
      98A      0.122843    99A      0.127384   100A      0.133409  
     101A      0.136060   102A      0.137464   103A      0.140256  
     104A      0.143505   105A      0.151460   106A      0.155789  
     107A      0.159587   108A      0.160812   109A      0.165314  
     110A      0.168063   111A      0.170109   112A      0.174204  
     113A      0.181378   114A      0.184350   115A      0.187047  
     116A      0.189864   117A      0.194734   118A      0.200411  
     119A      0.204258   120A      0.205440   121A      0.209567  
     122A      0.217275   123A      0.218817   124A      0.220690  
     125A      0.222397   126A      0.223695   127A      0.233346  
     128A      0.236068   129A      0.237743   130A      0.240691  
     131A      0.245743   132A      0.249349   133A      0.251416  
     134A      0.260987   135A      0.268522   136A      0.270382  
     137A      0.272644   138A      0.277266   139A      0.281787  
     140A      0.282317   141A      0.288464   142A      0.295699  
     143A      0.297036   144A      0.304034   145A      0.305533  
     146A      0.310185   147A      0.312282   148A      0.319981  
     149A      0.323288   150A      0.325332   151A      0.329785  
     152A      0.332273   153A      0.338417   154A      0.338862  
     155A      0.341124   156A      0.342626   157A      0.344572  
     158A      0.350842   159A      0.354417   160A      0.358014  
     161A      0.365163   162A      0.367586   163A      0.371349  
     164A      0.374390   165A      0.376600   166A      0.377586  
     167A      0.384415   168A      0.389362   169A      0.390852  
     170A      0.393069   171A      0.395715   172A      0.401276  
     173A      0.406312   174A      0.407890   175A      0.410116  
     176A      0.414204   177A      0.418245   178A      0.420425  
     179A      0.424642   180A      0.429942   181A      0.432258  
     182A      0.436707   183A      0.442313   184A      0.444106  
     185A      0.450403   186A      0.454059   187A      0.456582  
     188A      0.466813   189A      0.472300   190A      0.475700  
     191A      0.486348   192A      0.488256   193A      0.495543  
[...]
	 B(6,3,9)         =         2.111381	     120.973222
	 B(6,3,17)        =         2.064396	     118.281206
	 B(6,12,7)        =         2.137159	     122.450180
	 B(6,12,22)       =         2.073091	     118.779386
	 B(7,4,9)         =         2.105333	     120.626690
	 B(7,4,18)        =         2.065958	     118.370700
	 B(7,12,22)       =         2.072928	     118.770054
	 B(8,1,15)        =         2.083275	     119.362851
	 B(8,11,14)       =         2.081550	     119.264054
	 B(9,3,17)        =         2.106923	     120.717806
	 B(9,4,18)        =         2.111666	     120.989551
	 B(9,8,11)        =         2.142365	     122.748463
	 B(10,2,16)       =         2.076332	     118.965069
	 B(10,5,11)       =         2.076230	     118.959203
	 B(10,5,19)       =         2.129345	     122.002466
	 B(10,13,23)      =         1.934958	     110.864925
	 B(11,5,19)       =         2.077579	     119.036535
	 B(12,6,20)       =         2.042184	     117.008507
	 B(12,7,21)       =         2.040806	     116.929545
	 D(1,2,10,5)      =        -0.008060	      -0.461798
	 D(1,2,10,13)     =         3.135177	     179.632411
	 D(1,8,9,3)       =         0.523177	      29.975851
	 D(1,8,9,4)       =        -2.605285	    -149.271850
	 D(1,8,11,5)      =        -0.008119	      -0.465187
	 D(1,8,11,14)     =        -3.107366	    -178.038947
	 D(2,1,8,9)       =         3.137084	     179.741691
	 D(2,1,8,11)      =        -0.007417	      -0.424975
	 D(2,10,5,11)     =        -0.006775	      -0.388158
	 D(2,10,5,19)     =         3.126222	     179.119313
	 D(2,10,13,23)    =         3.137524	     179.766898
	 D(3,6,12,7)      =         0.000528	       0.030237
	 D(3,6,12,22)     =        -3.137096	    -179.742349
	 D(3,9,4,7)       =        -0.005208	      -0.298386
	 D(3,9,4,18)      =        -3.123483	    -178.962396
	 D(3,9,8,11)      =        -2.615317	    -149.846604
	 D(4,7,12,6)      =        -0.001884	      -0.107945
	 D(4,7,12,22)     =         3.135740	     179.664661
	 D(4,9,3,6)       =         0.003875	       0.221994
	 D(4,9,3,17)      =        -3.103690	    -177.828355
	 D(4,9,8,11)      =         0.539406	      30.905695
	 D(5,10,2,16)     =         3.123881	     178.985188
	 D(5,10,13,23)    =        -0.002363	      -0.135367
	 D(5,11,8,9)      =         3.130505	     179.364744
	 D(6,3,9,8)       =        -3.125330	    -179.068196
	 D(6,12,7,21)     =         3.131361	     179.413767
	 D(7,4,9,8)       =         3.123679	     178.973650
	 D(7,12,6,20)     =         3.128794	     179.266673
	 D(8,1,2,10)      =         0.015401	       0.882424
	 D(8,1,2,16)      =        -3.116319	    -178.551898
	 D(8,9,3,17)      =         0.050291	       2.881455
	 D(8,9,4,18)      =         0.005404	       0.309639
	 D(8,11,5,10)     =         0.015171	       0.869254
	 D(8,11,5,19)     =        -3.118084	    -178.653025
	 D(9,3,6,12)      =        -0.001605	      -0.091970
	 D(9,3,6,20)      =        -3.128939	    -179.275002
	 D(9,4,7,12)      =         0.004307	       0.246789
	 D(9,4,7,21)      =        -3.128371	    -179.242444
	 D(9,8,1,15)      =         0.047065	       2.696608
	 D(9,8,11,14)     =         0.031259	       1.790984
	 D(10,2,1,15)     =         3.105757	     177.946746
	 D(10,5,11,14)    =         3.115087	     178.481351
	 D(11,5,10,13)    =         3.133064	     179.511365
	 D(11,8,1,15)     =        -3.097437	    -177.470058
	 D(12,6,3,17)     =         3.106769	     178.004754
	 D(12,7,4,18)     =         3.123182	     178.945167
	 D(13,10,2,16)    =        -0.016068	      -0.920602
	 D(13,10,5,19)    =        -0.017125	      -0.981163
	 D(14,11,5,19)    =        -0.018168	      -1.040928
	 D(15,1,2,16)     =        -0.025963	      -1.487576
	 D(17,3,6,20)     =        -0.020565	      -1.178278
	 D(18,4,7,21)     =        -0.009496	      -0.544066
	 D(20,6,12,22)    =        -0.008830	      -0.505914
	 D(21,7,12,22)    =        -0.014200	      -0.813627
	 R(4,14)          =         5.222283	       2.763513

	Current energy   :      -653.2511985848

	Energy change for the previous step:
		Projected    :        -0.0000053395
		Actual       :        -0.0000010778

	Performing BFGS update.
	Previous computed or guess Hessian on step 1.
	Steps to be used in Hessian update: 6 5
	Adding user-defined constraint: Fragment 1; Coordinate 64:
		Value =     0.523177; Fixed value    =     0.523600
		Force =     0.000275; Force constant =     0.650000
	Removing off-diagonal coupling between coordinate 64 and others.
	Taking RFO optimization step.
	Going to follow RFO solution 1.
	Using RFO vector 1.
	Norm of target step-size    0.00263
	Projected energy change by RFO approximation:        -0.0000004210

	Back-transformation to cartesian coordinates...
	Successfully converged to displaced geometry.

	--- Internal Coordinate Step in ANG or DEG, aJ/ANG or AJ/DEG ---
	 ---------------------------------------------------------------------------
	   Coordinate                Previous        Force       Change         New 
	   ----------                --------       ------       ------       ------
	    1 R(1,2)          =      1.374466    -0.000018     0.000007     1.374473
	    2 R(1,8)          =      1.402839    -0.000112    -0.000008     1.402830
	    3 R(1,15)         =      1.079267     0.000078     0.000011     1.079278
	    4 R(2,10)         =      1.394630    -0.000031    -0.000008     1.394622
	    5 R(2,16)         =      1.077894    -0.000074    -0.000010     1.077883
	    6 R(3,6)          =      1.371694    -0.000023     0.000004     1.371698
	    7 R(3,9)          =      1.401726    -0.000158    -0.000022     1.401705
	    8 R(3,17)         =      1.077411     0.000096     0.000012     1.077423
	    9 R(4,7)          =      1.372531    -0.000115    -0.000011     1.372520
	   10 R(4,9)          =      1.402107     0.000189     0.000020     1.402127
	   11 R(4,18)         =      1.075546     0.000000     0.000005     1.075551
	   12 R(5,10)         =      1.389837     0.000002    -0.000004     1.389833
	   13 R(5,11)         =      1.374347    -0.000157    -0.000008     1.374340
	   14 R(5,19)         =      1.079050    -0.000026    -0.000000     1.079049
	   15 R(6,12)         =      1.342925     0.000051     0.000003     1.342928
	   16 R(6,20)         =      1.077152     0.000005     0.000003     1.077155
	   17 R(7,12)         =      1.342688     0.000166     0.000015     1.342704
	   18 R(7,21)         =      1.077164     0.000003     0.000001     1.077166
	   19 R(8,9)          =      1.444383    -0.000113     0.000006     1.444390
	   20 R(8,11)         =      1.393880     0.000059     0.000007     1.393887
	   21 R(10,13)        =      1.341183    -0.000192    -0.000014     1.341169
	   22 R(11,14)        =      1.344205    -0.000639    -0.000079     1.344126
	   23 R(12,22)        =      1.011868    -0.000015    -0.000001     1.011867
	   24 R(13,23)        =      0.963940    -0.000027    -0.000001     0.963939
	   25 B(1,2,10)       =    119.828487    -0.000001    -0.004275   119.824212
	   26 B(1,2,16)       =    121.204076    -0.000001    -0.008602   121.195474
	   27 B(1,8,9)        =    120.882161    -0.000001    -0.006286   120.875875
	   28 B(1,8,11)       =    116.369154     0.000001     0.003203   116.372357
	   29 B(2,1,8)        =    121.883891     0.000001     0.002653   121.886544
	   30 B(2,1,15)       =    118.688974    -0.000001    -0.004749   118.684225
	   31 B(2,10,5)       =    119.836170     0.000000    -0.000028   119.836142
	   32 B(2,10,13)      =    116.901030    -0.000000     0.001600   116.902630
	   33 B(3,6,12)       =    119.364265    -0.000000    -0.000338   119.363926
	   34 B(3,6,20)       =    123.622484     0.000000     0.001121   123.623605
	   35 B(3,9,4)        =    116.914078     0.000001     0.002967   116.917045
	   36 B(3,9,8)        =    120.362498     0.000001     0.004689   120.367187
	   37 B(4,7,12)       =    119.670932    -0.000001    -0.002900   119.668032
	   38 B(4,7,21)       =    123.397670     0.000001     0.004433   123.402104
	   39 B(4,9,8)        =    122.719403    -0.000002    -0.007668   122.711735
	   40 B(5,10,13)      =    123.262729    -0.000000    -0.001582   123.261146
	   41 B(5,11,8)       =    123.114600    -0.000002    -0.008093   123.106507
	   42 B(5,11,14)      =    117.578997     0.000002     0.003235   117.582231
	   43 B(6,3,9)        =    120.973222    -0.000000    -0.002209   120.971013
	   44 B(6,3,17)       =    118.281206    -0.000000    -0.000036   118.281169
	   45 B(6,12,7)       =    122.450180     0.000001     0.002788   122.452968
	   46 B(6,12,22)      =    118.779386    -0.000000    -0.002018   118.777367
	   47 B(7,4,9)        =    120.626690    -0.000000    -0.000321   120.626368
	   48 B(7,4,18)       =    118.370700     0.000001     0.004733   118.375434
	   49 B(7,12,22)      =    118.770054    -0.000000    -0.000763   118.769291
	   50 B(8,1,15)       =    119.362851     0.000000     0.002721   119.365572
	   51 B(8,11,14)      =    119.264054    -0.000000     0.001661   119.265716
	   52 B(9,3,17)       =    120.717806     0.000000     0.001986   120.719792
	   53 B(9,4,18)       =    120.989551    -0.000000    -0.004338   120.985214
	   54 B(9,8,11)       =    122.748463     0.000001     0.003112   122.751576
	   55 B(10,2,16)      =    118.965069     0.000003     0.012918   118.977987
	   56 B(10,5,11)      =    118.959203     0.000001     0.006288   118.965491
	   57 B(10,5,19)      =    122.002466    -0.000001    -0.006128   121.996337
	   58 B(10,13,23)     =    110.864925    -0.000001    -0.003437   110.861488
	   59 B(11,5,19)      =    119.036535     0.000000    -0.000222   119.036313
	   60 B(12,6,20)      =    117.008507     0.000000    -0.000764   117.007743
	   61 B(12,7,21)      =    116.929545    -0.000000    -0.001515   116.928030
	   62 D(1,2,10,5)     =     -0.461798    -0.000000    -0.009506    -0.471305
	   63 D(1,2,10,13)    =    179.632411    -0.000000    -0.003146   179.629265
	   64 D(1,8,9,3)      =     29.975851     0.000001     0.005825    29.981676
	   65 D(1,8,9,4)      =   -149.271850     0.000000     0.006914  -149.264936
	   66 D(1,8,11,5)     =     -0.465187    -0.000000    -0.039195    -0.504381
	   67 D(1,8,11,14)    =   -178.038947     0.000000     0.050569  -177.988378
	   68 D(2,1,8,9)      =    179.741691     0.000000     0.015211   179.756902
	   69 D(2,1,8,11)     =     -0.424975     0.000000     0.026776    -0.398199
	   70 D(2,10,5,11)    =     -0.388158    -0.000000    -0.002014    -0.390172
	   71 D(2,10,5,19)    =    179.119313    -0.000000    -0.010561   179.108752
	   72 D(2,10,13,23)   =    179.766898     0.000000     0.007355   179.774254
	   73 D(3,6,12,7)     =      0.030237    -0.000000    -0.011259     0.018978
	   74 D(3,6,12,22)    =   -179.742349    -0.000000    -0.013363  -179.755712
	   75 D(3,9,4,7)      =     -0.298386    -0.000000    -0.005559    -0.303945
	   76 D(3,9,4,18)     =   -178.962396    -0.000000    -0.009407  -178.971804
	   77 D(3,9,8,11)     =   -149.846604     0.000000    -0.006493  -149.853097
	   78 D(4,7,12,6)     =     -0.107945     0.000000     0.006182    -0.101763
	   79 D(4,7,12,22)    =    179.664661     0.000000     0.008283   179.672944
	   80 D(4,9,3,6)      =      0.221994     0.000000     0.000470     0.222464
	   81 D(4,9,3,17)     =   -177.828355     0.000000     0.009570  -177.818785
	   82 D(4,9,8,11)     =     30.905695     0.000000    -0.005404    30.900291
	   83 D(5,10,2,16)    =    178.985188    -0.000000    -0.004727   178.980461
	   84 D(5,10,13,23)   =     -0.135367     0.000000     0.013952    -0.121415
	   85 D(5,11,8,9)     =    179.364744    -0.000000    -0.027410   179.337334
	   86 D(6,3,9,8)      =   -179.068196    -0.000000     0.001578  -179.066619
	   87 D(6,12,7,21)    =    179.413767     0.000000     0.008647   179.422414
	   88 D(7,4,9,8)      =    178.973650     0.000000    -0.006597   178.967053
	   89 D(7,12,6,20)    =    179.266673    -0.000000    -0.009771   179.256902
	   90 D(8,1,2,10)     =      0.882424     0.000000    -0.003545     0.878878
	   91 D(8,1,2,16)     =   -178.551898    -0.000000    -0.008555  -178.560453
	   92 D(8,9,3,17)     =      2.881455    -0.000000     0.010677     2.892132
	   93 D(8,9,4,18)     =      0.309639     0.000000    -0.010445     0.299194
	   94 D(8,11,5,10)    =      0.869254     0.000000     0.027511     0.896765
	   95 D(8,11,5,19)    =   -178.653025     0.000000     0.035833  -178.617192
	   96 D(9,3,6,12)     =     -0.091970     0.000000     0.007728    -0.084242
	   97 D(9,3,6,20)     =   -179.275002    -0.000000     0.006152  -179.268850
	   98 D(9,4,7,12)     =      0.246789     0.000000     0.002470     0.249259
	   99 D(9,4,7,21)     =   -179.242444     0.000000    -0.000129  -179.242573
	  100 D(9,8,1,15)     =      2.696608    -0.000000     0.000967     2.697576
	  101 D(9,8,11,14)    =      1.790984     0.000001     0.062354     1.853338
	  102 D(10,2,1,15)    =    177.946746     0.000000     0.010816   177.957562
	  103 D(10,5,11,14)   =    178.481351    -0.000001    -0.060866   178.420485
	  104 D(11,5,10,13)   =    179.511365    -0.000000    -0.008794   179.502571
	  105 D(11,8,1,15)    =   -177.470058     0.000000     0.012532  -177.457526
	  106 D(12,6,3,17)    =    178.004754     0.000000    -0.001115   178.003638
	  107 D(12,7,4,18)    =    178.945167     0.000000     0.006102   178.951269
	  108 D(13,10,2,16)   =     -0.920602     0.000000     0.001633    -0.918969
	  109 D(13,10,5,19)   =     -0.981163    -0.000000    -0.017341    -0.998505
	  110 D(14,11,5,19)   =     -1.040928    -0.000001    -0.052544    -1.093472
	  111 D(15,1,2,16)    =     -1.487576     0.000000     0.005806    -1.481769
	  112 D(17,3,6,20)    =     -1.178278    -0.000000    -0.002691    -1.180969
	  113 D(18,4,7,21)    =     -0.544066     0.000000     0.003503    -0.540563
	  114 D(20,6,12,22)   =     -0.505914    -0.000000    -0.011875    -0.517789
	  115 D(21,7,12,22)   =     -0.813627     0.000000     0.010748    -0.802878
	  116 R(4,14)         =      2.763513     0.000080     0.000256     2.763769
	 ---------------------------------------------------------------------------
	Successfully symmetrized geometry.
	 Forces used to impose fixed constraints are not included.
	  Forces zeroed: 64 

  ==> Convergence Check <==

  Measures of convergence in internal coordinates in au.
  Criteria marked as inactive (o), active & met (*), and active & unmet ( ).
  ---------------------------------------------------------------------------------------------
   Step     Total Energy     Delta E     MAX Force     RMS Force      MAX Disp      RMS Disp   
  ---------------------------------------------------------------------------------------------
    Convergence Criteria    1.00e-06 *    3.00e-04 *             o    1.20e-03 *             o
  ---------------------------------------------------------------------------------------------
      7    -653.25119858   -1.08e-06      7.76e-05 *    1.38e-05 o    1.09e-03 *    2.44e-04 o  ~
  ---------------------------------------------------------------------------------------------


  **** Optimization is complete! (in 7 steps) ****

  ==> Optimization Summary <==

  Measures of convergence in internal coordinates in au.
  --------------------------------------------------------------------------------------------------------------- ~
   Step         Total Energy             Delta E       MAX Force       RMS Force        MAX Disp        RMS Disp  ~
  --------------------------------------------------------------------------------------------------------------- ~
      1    -653.245439191193   -653.245439191193      0.01791112      0.00505885      0.02676723      0.00928456  ~
      2    -653.249228718534     -0.003789527341      0.00667206      0.00224977      0.05523191      0.00928173  ~
      3    -653.250659901185     -0.001431182651      0.00398185      0.00075479      0.07221830      0.00928475  ~
      4    -653.251082795494     -0.000422894309      0.00193102      0.00026913      0.05903478      0.00699687  ~
      5    -653.251186348638     -0.000103553144      0.00055763      0.00011183      0.02107986      0.00254560  ~
      6    -653.251197506906     -0.000011158267      0.00022661      0.00004620      0.00493626      0.00091720  ~
      7    -653.251198584753     -0.000001077848      0.00007758      0.00001409      0.00108828      0.00024397  ~
  --------------------------------------------------------------------------------------------------------------- ~

	Writing optimization data to binary file.
	Final energy is   -653.2511985847533
	Final (previous) structure:
	Cartesian Geometry (in Angstrom)
	    C    -1.3370570695   0.7576340478  -0.7483723317
	    C    -2.4107562350   1.3240727039  -0.1037997092
	    C     1.2383718691   0.0650571566  -1.9856899998
	    C     1.5407410818  -1.5412785836  -0.2426284289
	    C    -1.4350682984   0.7372258024   2.0196365406
	    C     2.2838612243  -0.5009956919  -2.6698540265
	    C     2.5812730267  -2.0846992091  -0.9538454317
	    C    -0.2855273840   0.1519360394  -0.0445460164
	    C     0.8298974314  -0.4417494502  -0.7442663367
	    C    -2.4636203308   1.3212647709   1.2898248640
	    C    -0.3836007322   0.1634368094   1.3458320617
	    N     2.9246241489  -1.5550166281  -2.1389017115
	    O    -3.5339666658   1.8963457496   1.8576393421
	    F     0.6110120992  -0.3656459810   2.0791157194
	    H    -1.3309096750   0.7400543518  -1.8274789235
	    H    -3.2239693187   1.7661918684  -0.6561312640
	    H     0.7578219856   0.9299418518  -2.4121411755
	    H     1.2723852579  -1.9927223914   0.6959786501
	    H    -1.4334145573   0.7276302603   3.0986421498
	    H     2.6402000393  -0.1397625806  -3.6200062532
	    H     3.1494028505  -2.9355294938  -0.6168001635
	    H     3.6971251744  -1.9631872035  -2.6493087407
	    H    -3.4833090929   1.8423657350   2.8187327729
	Saving final (previous) structure.
			--------------------------
			 OPTKING Finished Execution 
			--------------------------

    Final optimized geometry and variables:
    Molecular point group: c1
    Full point group: C1

    Geometry (in Angstrom), charge = 1, multiplicity = 1:

    C           -1.337057069547     0.757634047786    -0.748372331680
    C           -2.410756235046     1.324072703927    -0.103799709214
    C            1.238371869140     0.065057156624    -1.985689999805
    C            1.540741081835    -1.541278583563    -0.242628428892
    C           -1.435068298352     0.737225802441     2.019636540586
    C            2.283861224344    -0.500995691874    -2.669854026474
    C            2.581273026652    -2.084699209073    -0.953845431679
    C           -0.285527384033     0.151936039424    -0.044546016404
    C            0.829897431440    -0.441749450185    -0.744266336728
    C           -2.463620330792     1.321264770910     1.289824863997
    C           -0.383600732200     0.163436809435     1.345832061680
    N            2.924624148926    -1.555016628116    -2.138901711472
    O           -3.533966665845     1.896345749609     1.857639342109
    F            0.611012099243    -0.365645981020     2.079115719394
    H           -1.330909674993     0.740054351763    -1.827478923540
    H           -3.223969318671     1.766191868438    -0.656131264012
    H            0.757821985590     0.929941851786    -2.412141175546
    H            1.272385257894    -1.992722391353     0.695978650138
    H           -1.433414557338     0.727630260310     3.098642149758
    H            2.640200039347    -0.139762580596    -3.620006253181
    H            3.149402850518    -2.935529493844    -0.616800163528
    H            3.697125174436    -1.963187203451    -2.649308740709
    H           -3.483309092945     1.842365734986     2.818732772891

	Cleaning optimization helper files.

*** Psi4 exiting successfully. Buy a developer a beer!
