
    -----------------------------------------------------------------------
          Psi4: An Open-Source Ab Initio Electronic Structure Package
                               Psi4 1.1 release

                         Git: Rev {HEAD} add49b9 


    R. M. Parrish, L. A. Burns, D. G. A. Smith, A. C. Simmonett,
    A. E. DePrince III, E. G. Hohenstein, U. Bozkaya, A. Yu. Sokolov,
    R. Di Remigio, R. M. Richard, J. F. Gonthier, A. M. James,
    H. R. McAlexander, A. Kumar, M. Saitow, X. Wang, B. P. Pritchard,
    P. Verma, H. F. Schaefer III, K. Patkowski, R. A. King, E. F. Valeev,
    F. A. Evangelista, J. M. Turney, T. D. Crawford, and C. D. Sherrill,
    J. Chem. Theory Comput. in press (2017).
    (doi: 10.1021/acs.jctc.7b00174)

    -----------------------------------------------------------------------


    Psi4 started on: Sunday, 12 November 2017 12:01AM

    Process ID:  30714
    PSIDATADIR: /cbio/jclab/home/chayas/anaconda/envs/py35/share/psi4
    Memory:     500.0 MiB
    Threads:    8
    
  ==> Input File <==

--------------------------------------------------------------------------

memory 5 Gb

molecule phepyrFOH_neutral {
  symmetry C1
  0 1 
  C      1.885   -1.036   -0.112
  C      0.807   -0.463   0.561
  C      3.825   -3.269   -0.988
  C      5.328   -1.753   0.119
  C      1.800   -1.079   2.676
  C      4.927   -3.802   -1.637
  C      6.363   -2.354   -0.579
  C      2.921   -1.631   0.608
  C      4.038   -2.225   -0.095
  C      0.764   -0.484   1.955
  C      2.878   -1.652   2.002
  N      6.195   -3.370   -1.455
  O      -0.289   0.076   2.612
  F      3.866   -2.220   2.709
  H      1.904   -1.012   -1.199
  H      0.002   -0.002   -0.006
  H      2.833   -3.663   -1.183
  H      5.532   -0.940   0.809
  H      1.772   -1.099   3.762
  H      4.814   -4.616   -2.345
  H      7.387   -2.023   -0.446
  H      -1.093   0.016   2.071
  units Angstrom
}

dih_string = "2 10 13 22 30"
set optking fixed_dihedral = $dih_string

optimize('MP2/aug-cc-PVTZ')
--------------------------------------------------------------------------

  Memory set to   4.657 GiB by Python driver.
gradient() will perform analytic gradient computation.

*** tstart() called on gpu-2-12.local
*** at Sun Nov 12 00:01:51 2017

    SCF Algorithm Type (re)set to DF.

*** tstart() called on gpu-2-12.local
*** at Sun Nov 12 00:01:51 2017

   => Loading Basis Set <=

    Name: AUG-CC-PVTZ
    Role: ORBITAL
    Keyword: BASIS
    atoms 1-11  entry C          line   221 file /cbio/jclab/home/chayas/anaconda/envs/py35/share/psi4/basis/aug-cc-pvtz.gbs 
    atoms 12    entry N          line   267 file /cbio/jclab/home/chayas/anaconda/envs/py35/share/psi4/basis/aug-cc-pvtz.gbs 
    atoms 13    entry O          line   313 file /cbio/jclab/home/chayas/anaconda/envs/py35/share/psi4/basis/aug-cc-pvtz.gbs 
    atoms 14    entry F          line   359 file /cbio/jclab/home/chayas/anaconda/envs/py35/share/psi4/basis/aug-cc-pvtz.gbs 
    atoms 15-22 entry H          line    34 file /cbio/jclab/home/chayas/anaconda/envs/py35/share/psi4/basis/aug-cc-pvtz.gbs 


         ---------------------------------------------------------
                                   SCF
            by Justin Turney, Rob Parrish, and Andy Simmonett
                              RHF Reference
                        8 Threads,   4768 MiB Core
         ---------------------------------------------------------

  ==> Geometry <==

    Molecular point group: c1
    Full point group: C1

    Geometry (in Angstrom), charge = 0, multiplicity = 1:

       Center              X                  Y                   Z               Mass       
    ------------   -----------------  -----------------  -----------------  -----------------
           C         -1.316849806647     0.754819761470    -0.791498844434    12.000000000000
           C         -2.394849806647     1.327819761470    -0.118498844434    12.000000000000
           C          0.623150193353    -1.478180238530    -1.667498844434    12.000000000000
           C          2.126150193353     0.037819761470    -0.560498844434    12.000000000000
           C         -1.401849806647     0.711819761470     1.996501155566    12.000000000000
           C          1.725150193353    -2.011180238530    -2.316498844434    12.000000000000
           C          3.161150193353    -0.563180238530    -1.258498844434    12.000000000000
           C         -0.280849806647     0.159819761470    -0.071498844434    12.000000000000
           C          0.836150193353    -0.434180238530    -0.774498844434    12.000000000000
           C         -2.437849806647     1.306819761470     1.275501155566    12.000000000000
           C         -0.323849806647     0.138819761470     1.322501155566    12.000000000000
           N          2.993150193353    -1.579180238530    -2.134498844434    14.003074004780
           O         -3.490849806647     1.866819761470     1.932501155566    15.994914619560
           F          0.664150193353    -0.429180238530     2.029501155566    18.998403224000
           H         -1.297849806647     0.778819761470    -1.878498844434     1.007825032070
           H         -3.199849806647     1.788819761470    -0.685498844434     1.007825032070
           H         -0.368849806647    -1.872180238530    -1.862498844434     1.007825032070
           H          2.330150193353     0.850819761470     0.129501155566     1.007825032070
           H         -1.429849806647     0.691819761470     3.082501155566     1.007825032070
           H          1.612150193353    -2.825180238530    -3.024498844434     1.007825032070
           H          4.185150193353    -0.232180238530    -1.125498844434     1.007825032070
           H         -4.294849806647     1.806819761470     1.391501155566     1.007825032070

  Running in c1 symmetry.

  Rotational constants: A =      0.06303  B =      0.01308  C =      0.01164 [cm^-1]
  Rotational constants: A =   1889.61628  B =    392.03013  C =    349.05547 [MHz]
  Nuclear repulsion =  813.863317414097310

  Charge       = 0
  Multiplicity = 1
  Electrons    = 98
  Nalpha       = 49
  Nbeta        = 49

  ==> Algorithm <==

  SCF Algorithm Type is DF.
  DIIS enabled.
  MOM disabled.
  Fractional occupation disabled.
  Guess Type is SAD.
  Energy threshold   = 1.00e-10
  Density threshold  = 1.00e-10
  Integral threshold = 0.00e+00

  ==> Primary Basis <==

  Basis Set: AUG-CC-PVTZ
    Blend: AUG-CC-PVTZ
    Number of shells: 268
    Number of basis function: 828
    Number of Cartesian functions: 970
    Spherical Harmonics?: true
    Max angular momentum: 3

   => Loading Basis Set <=

    Name: (AUG-CC-PVTZ AUX)
    Role: JKFIT
    Keyword: DF_BASIS_SCF
    atoms 1-11  entry C          line   161 file /cbio/jclab/home/chayas/anaconda/envs/py35/share/psi4/basis/aug-cc-pvtz-jkfit.gbs 
    atoms 12    entry N          line   223 file /cbio/jclab/home/chayas/anaconda/envs/py35/share/psi4/basis/aug-cc-pvtz-jkfit.gbs 
    atoms 13    entry O          line   285 file /cbio/jclab/home/chayas/anaconda/envs/py35/share/psi4/basis/aug-cc-pvtz-jkfit.gbs 
    atoms 14    entry F          line   347 file /cbio/jclab/home/chayas/anaconda/envs/py35/share/psi4/basis/aug-cc-pvtz-jkfit.gbs 
    atoms 15-22 entry H          line    69 file /cbio/jclab/home/chayas/anaconda/envs/py35/share/psi4/basis/aug-cc-pvtz-jkfit.gbs 

  ==> Pre-Iterations <==

   -------------------------------------------------------
    Irrep   Nso     Nmo     Nalpha   Nbeta   Ndocc  Nsocc
   -------------------------------------------------------
     A        828     828       0       0       0       0
   -------------------------------------------------------
    Total     828     828      49      49      49       0
   -------------------------------------------------------

  ==> Integral Setup <==

  ==> DFJK: Density-Fitted J/K Matrices <==

    J tasked:                  Yes
    K tasked:                  Yes
    wK tasked:                  No
    OpenMP threads:              8
    Integrals threads:           8
    Memory (MB):              3576
    Algorithm:                Disk
    Integral Cache:           NONE
    Schwarz Cutoff:          1E-12
    Fitting Condition:       1E-12

   => Auxiliary Basis Set <=

  Basis Set: (AUG-CC-PVTZ AUX)
    Blend: AUG-CC-PVTZ-JKFIT
    Number of shells: 532
    Number of basis function: 1824
    Number of Cartesian functions: 2274
    Spherical Harmonics?: true
    Max angular momentum: 4

  Minimum eigenvalue in the overlap matrix is 7.6130927954E-07.
  Using Symmetric Orthogonalization.

  SCF Guess: Superposition of Atomic Densities via on-the-fly atomic UHF.

  ==> Iterations <==

                           Total Energy        Delta E     RMS |[F,P]|

   @DF-RHF iter   0:  -656.75577534399201   -6.56756e+02   2.30807e-02 
   @DF-RHF iter   1:  -649.80554707330612    6.95023e+00   2.18044e-03 
   @DF-RHF iter   2:  -650.11805519411200   -3.12508e-01   8.66176e-04 DIIS
   @DF-RHF iter   3:  -650.15836968448195   -4.03145e-02   3.65662e-04 DIIS
   @DF-RHF iter   4:  -650.17064950141889   -1.22798e-02   1.31707e-04 DIIS
   @DF-RHF iter   5:  -650.17214907499999   -1.49957e-03   4.35019e-05 DIIS
   @DF-RHF iter   6:  -650.17238773764245   -2.38663e-04   1.83297e-05 DIIS
   @DF-RHF iter   7:  -650.17243390452450   -4.61669e-05   5.58253e-06 DIIS
   @DF-RHF iter   8:  -650.17243859504015   -4.69052e-06   2.47413e-06 DIIS
   @DF-RHF iter   9:  -650.17243955938841   -9.64348e-07   1.10345e-06 DIIS
   @DF-RHF iter  10:  -650.17243986369647   -3.04308e-07   5.20595e-07 DIIS
   @DF-RHF iter  11:  -650.17243993296756   -6.92711e-08   2.28072e-07 DIIS
   @DF-RHF iter  12:  -650.17243994428748   -1.13199e-08   6.33331e-08 DIIS
   @DF-RHF iter  13:  -650.17243994494493   -6.57451e-10   2.20705e-08 DIIS
   @DF-RHF iter  14:  -650.17243994503247   -8.75389e-11   9.23044e-09 DIIS
   @DF-RHF iter  15:  -650.17243994504088   -8.41283e-12   4.61592e-09 DIIS
   @DF-RHF iter  16:  -650.17243994502144    1.94404e-11   2.23297e-09 DIIS
   @DF-RHF iter  17:  -650.17243994503144   -1.00044e-11   8.19049e-10 DIIS
   @DF-RHF iter  18:  -650.17243994502689    4.54747e-12   4.61034e-10 DIIS
   @DF-RHF iter  19:  -650.17243994502621    6.82121e-13   1.47131e-10 DIIS
   @DF-RHF iter  20:  -650.17243994502928   -3.06954e-12   5.86662e-11 DIIS

  ==> Post-Iterations <==

    Orbital Energies (a.u.)
    -----------------------

    Doubly Occupied:                                                      

       1A    -26.325868     2A    -20.605613     3A    -15.565708  
       4A    -11.348050     5A    -11.325608     6A    -11.275338  
       7A    -11.274423     8A    -11.265787     9A    -11.265751  
      10A    -11.254229    11A    -11.251267    12A    -11.248982  
      13A    -11.240190    14A    -11.238649    15A     -1.643949  
      16A     -1.421102    17A     -1.250836    18A     -1.181854  
      19A     -1.110293    20A     -1.041272    21A     -1.034805  
      22A     -1.019128    23A     -0.890415    24A     -0.876027  
      25A     -0.852870    26A     -0.827368    27A     -0.779665  
      28A     -0.735179    29A     -0.722210    30A     -0.710313  
      31A     -0.695820    32A     -0.664752    33A     -0.662658  
      34A     -0.654155    35A     -0.630670    36A     -0.618457  
      37A     -0.605415    38A     -0.599476    39A     -0.571167  
      40A     -0.547328    41A     -0.536636    42A     -0.523811  
      43A     -0.520819    44A     -0.494841    45A     -0.419782  
      46A     -0.387760    47A     -0.359144    48A     -0.349509  
      49A     -0.326955  

    Virtual:                                                              

      50A      0.019574    51A      0.031276    52A      0.033820  
      53A      0.036125    54A      0.042155    55A      0.048085  
      56A      0.053304    57A      0.055418    58A      0.075023  
      59A      0.082447    60A      0.083807    61A      0.085387  
      62A      0.089223    63A      0.094453    64A      0.097927  
      65A      0.100692    66A      0.103588    67A      0.108314  
      68A      0.110311    69A      0.111212    70A      0.116030  
      71A      0.117820    72A      0.119492    73A      0.125335  
      74A      0.126446    75A      0.130726    76A      0.133528  
      77A      0.135330    78A      0.142072    79A      0.144456  
      80A      0.149227    81A      0.150872    82A      0.153246  
      83A      0.155753    84A      0.157132    85A      0.165708  
      86A      0.171977    87A      0.174157    88A      0.179152  
      89A      0.185695    90A      0.195314    91A      0.199924  
      92A      0.209522    93A      0.215932    94A      0.217556  
      95A      0.223390    96A      0.228012    97A      0.234257  
      98A      0.235431    99A      0.240052   100A      0.240910  
     101A      0.245418   102A      0.250385   103A      0.251271  
     104A      0.255531   105A      0.257704   106A      0.263860  
     107A      0.265019   108A      0.268717   109A      0.274908  
     110A      0.276526   111A      0.279918   112A      0.284409  
     113A      0.293112   114A      0.297433   115A      0.302983  
     116A      0.304882   117A      0.309703   118A      0.311415  
     119A      0.312743   120A      0.316463   121A      0.321598  
     122A      0.324294   123A      0.328352   124A      0.330612  
     125A      0.338558   126A      0.344412   127A      0.345591  
     128A      0.351931   129A      0.356841   130A      0.362141  
     131A      0.368846   132A      0.376257   133A      0.380776  
     134A      0.384539   135A      0.387475   136A      0.395195  
     137A      0.398805   138A      0.404068   139A      0.408650  
     140A      0.414681   141A      0.419757   142A      0.420265  
     143A      0.421480   144A      0.427267   145A      0.432198  
     146A      0.435320   147A      0.440292   148A      0.442961  
     149A      0.449028   150A      0.454443   151A      0.459009  
     152A      0.460437   153A      0.466878   154A      0.469865  
     155A      0.472268   156A      0.476743   157A      0.477919  
     158A      0.482804   159A      0.485724   160A      0.489437  
     161A      0.491924   162A      0.497845   163A      0.501028  
     164A      0.504063   165A      0.505153   166A      0.509543  
     167A      0.512529   168A      0.514347   169A      0.517990  
     170A      0.522283   171A      0.523869   172A      0.531390  
     173A      0.536347   174A      0.539204   175A      0.542349  
     176A      0.547628   177A      0.549996   178A      0.553880  
     179A      0.561706   180A      0.565714   181A      0.568946  
     182A      0.576408   183A      0.578133   184A      0.586472  
     185A      0.591269   186A      0.592647   187A      0.604972  
     188A      0.606591   189A      0.619907   190A      0.623651  
     191A      0.626995   192A      0.637140   193A      0.639192  
     194A      0.645937   195A      0.647913   196A      0.656958  
     197A      0.662356   198A      0.667740   199A      0.675157  
     200A      0.676304   201A      0.684473   202A      0.695029  
     203A      0.701829   204A      0.702755   205A      0.708592  
     206A      0.714960   207A      0.718599   208A      0.723114  
     209A      0.726903   210A      0.735421   211A      0.738162  
     212A      0.743156   213A      0.748839   214A      0.758321  
     215A      0.762192   216A      0.766027   217A      0.775281  
     218A      0.780242   219A      0.786105   220A      0.795397  
     221A      0.799857   222A      0.804726   223A      0.809192  
     224A      0.815239   225A      0.820882   226A      0.832427  
     227A      0.837475   228A      0.843773   229A      0.847351  
     230A      0.849648   231A      0.855428   232A      0.857897  
     233A      0.868966   234A      0.872124   235A      0.875914  
     236A      0.882419   237A      0.884454   238A      0.891086  
     239A      0.895857   240A      0.901404   241A      0.906508  
     242A      0.912313   243A      0.917499   244A      0.924551  
     245A      0.925982   246A      0.930307   247A      0.933956  
     248A      0.940714   249A      0.944929   250A      0.946142  
     251A      0.954172   252A      0.955688   253A      0.961063  
     254A      0.965107   255A      0.967929   256A      0.973304  
     257A      0.976994   258A      0.980859   259A      0.986008  
     260A      0.990821   261A      0.994938   262A      1.001200  
     263A      1.004492   264A      1.010695   265A      1.018901  
     266A      1.025426   267A      1.026767   268A      1.029986  
     269A      1.031428   270A      1.034308   271A      1.040941  
     272A      1.044842   273A      1.047212   274A      1.056894  
     275A      1.060558   276A      1.064520   277A      1.069265  
     278A      1.073101   279A      1.079662   280A      1.084680  
     281A      1.091166   282A      1.091672   283A      1.094764  
     284A      1.099804   285A      1.109335   286A      1.110996  
     287A      1.118335   288A      1.121973   289A      1.124977  
     290A      1.134632   291A      1.138066   292A      1.139527  
     293A      1.144960   294A      1.154357   295A      1.155635  
     296A      1.157002   297A      1.162117   298A      1.168556  
     299A      1.175805   300A      1.180291   301A      1.181718  
     302A      1.188470   303A      1.197773   304A      1.199499  
     305A      1.200686   306A      1.210441   307A      1.217192  
     308A      1.220887   309A      1.225473   310A      1.228907  
     311A      1.240348   312A      1.246383   313A      1.250550  
     314A      1.254318   315A      1.262392   316A      1.271615  
     317A      1.272307   318A      1.275930   319A      1.287974  
     320A      1.293861   321A      1.303333   322A      1.307265  
     323A      1.311062   324A      1.314988   325A      1.326416  
     326A      1.328982   327A      1.335289   328A      1.351716  
     329A      1.358470   330A      1.360505   331A      1.367740  
     332A      1.370610   333A      1.376122   334A      1.381822  
     335A      1.390993   336A      1.395104   337A      1.404483  
     338A      1.408323   339A      1.413440   340A      1.423707  
     341A      1.428860   342A      1.435738   343A      1.446549  
     344A      1.449999   345A      1.463676   346A      1.472859  
     347A      1.475237   348A      1.480745   349A      1.492728  
     350A      1.502173   351A      1.507591   352A      1.520674  
     353A      1.529451   354A      1.541301   355A      1.543210  
     356A      1.560484   357A      1.561988   358A      1.569942  
     359A      1.573135   360A      1.585636   361A      1.586119  
     362A      1.594690   363A      1.601738   364A      1.605112  
     365A      1.625726   366A      1.629537   367A      1.634983  
     368A      1.643874   369A      1.654073   370A      1.657289  
     371A      1.663651   372A      1.668088   373A      1.675441  
     374A      1.685398   375A      1.690859   376A      1.696916  
     377A      1.703819   378A      1.713760   379A      1.723103  
     380A      1.726566   381A      1.734452   382A      1.739455  
     383A      1.743838   384A      1.749635   385A      1.752850  
     386A      1.767417   387A      1.776659   388A      1.790295  
     389A      1.792666   390A      1.794729   391A      1.803557  
     392A      1.812508   393A      1.825090   394A      1.829361  
     395A      1.839227   396A      1.854576   397A      1.862365  
     398A      1.863675   399A      1.877001   400A      1.885379  
     401A      1.886174   402A      1.891436   403A      1.903446  
     404A      1.904607   405A      1.912265   406A      1.920215  
     407A      1.925999   408A      1.941273   409A      1.945754  
     410A      1.950580   411A      1.954659   412A      1.963251  
     413A      1.975595   414A      1.987403   415A      1.992469  
     416A      1.999446   417A      2.006817   418A      2.015192  
     419A      2.024174   420A      2.028952   421A      2.036406  
     422A      2.042471   423A      2.049072   424A      2.059500  
     425A      2.069384   426A      2.078041   427A      2.080406  
     428A      2.089268   429A      2.093538   430A      2.106100  
     431A      2.109391   432A      2.117158   433A      2.125912  
     434A      2.126747   435A      2.141007   436A      2.147729  
     437A      2.158387   438A      2.173798   439A      2.182527  
     440A      2.190768   441A      2.195047   442A      2.197087  
     443A      2.212603   444A      2.224577   445A      2.228753  
     446A      2.236112   447A      2.245950   448A      2.256000  
     449A      2.258903   450A      2.271838   451A      2.280740  
     452A      2.291137   453A      2.293853   454A      2.305175  
     455A      2.311390   456A      2.323997   457A      2.338190  
     458A      2.343668   459A      2.345291   460A      2.358553  
     461A      2.381057   462A      2.390311   463A      2.400383  
     464A      2.413608   465A      2.415610   466A      2.432028  
     467A      2.447460   468A      2.458092   469A      2.466053  
     470A      2.470605   471A      2.477434   472A      2.487560  
     473A      2.513086   474A      2.527275   475A      2.535005  
     476A      2.555229   477A      2.563315   478A      2.574453  
     479A      2.582647   480A      2.586012   481A      2.598232  
     482A      2.607480   483A      2.622018   484A      2.630286  
     485A      2.642653   486A      2.671189   487A      2.690481  
     488A      2.691537   489A      2.708866   490A      2.729468  
     491A      2.743922   492A      2.748168   493A      2.761801  
     494A      2.778605   495A      2.789783   496A      2.793726  
     497A      2.823914   498A      2.832052   499A      2.841722  
     500A      2.853252   501A      2.875241   502A      2.892160  
     503A      2.936412   504A      2.958183   505A      2.972225  
     506A      2.977162   507A      3.022670   508A      3.036578  
     509A      3.045784   510A      3.050806   511A      3.064545  
     512A      3.084237   513A      3.094279   514A      3.113878  
     515A      3.124313   516A      3.145623   517A      3.164645  
     518A      3.177379   519A      3.191426   520A      3.194912  
     521A      3.198608   522A      3.212918   523A      3.240212  
     524A      3.240735   525A      3.260776   526A      3.274951  
     527A      3.283790   528A      3.290460   529A      3.311802  
     530A      3.329307   531A      3.337752   532A      3.344581  
     533A      3.347938   534A      3.357734   535A      3.381254  
     536A      3.386702   537A      3.403942   538A      3.412746  
     539A      3.424898   540A      3.427405   541A      3.437177  
     542A      3.440030   543A      3.444882   544A      3.450062  
     545A      3.462416   546A      3.472992   547A      3.485144  
     548A      3.495734   549A      3.500616   550A      3.502726  
     551A      3.525718   552A      3.526639   553A      3.540672  
     554A      3.548639   555A      3.560379   556A      3.562418  
     557A      3.566759   558A      3.578547   559A      3.584293  
     560A      3.590620   561A      3.600075   562A      3.608546  
     563A      3.621042   564A      3.622580   565A      3.639724  
     566A      3.642037   567A      3.654294   568A      3.662639  
     569A      3.665428   570A      3.683844   571A      3.689322  
     572A      3.694969   573A      3.705845   574A      3.711735  
     575A      3.731509   576A      3.734727   577A      3.742815  
     578A      3.749392   579A      3.762781   580A      3.770244  
     581A      3.781272   582A      3.795457   583A      3.803152  
     584A      3.807345   585A      3.819370   586A      3.819684  
     587A      3.828701   588A      3.846487   589A      3.854086  
     590A      3.860007   591A      3.866905   592A      3.873505  
     593A      3.886220   594A      3.902507   595A      3.905046  
     596A      3.917017   597A      3.925175   598A      3.927589  
     599A      3.933218   600A      3.942126   601A      3.947691  
     602A      3.954775   603A      3.964323   604A      3.966742  
     605A      3.980377   606A      3.988402   607A      3.994001  
     608A      4.010763   609A      4.021589   610A      4.033609  
     611A      4.036981   612A      4.040982   613A      4.044968  
     614A      4.058735   615A      4.069025   616A      4.083394  
     617A      4.087203   618A      4.104555   619A      4.108348  
     620A      4.117677   621A      4.131362   622A      4.136124  
     623A      4.149842   624A      4.157899   625A      4.168311  
     626A      4.171431   627A      4.181237   628A      4.190103  
     629A      4.201474   630A      4.210963   631A      4.223222  
     632A      4.229119   633A      4.234974   634A      4.244188  
     635A      4.251258   636A      4.271995   637A      4.279438  
     638A      4.288403   639A      4.294436   640A      4.305889  
     641A      4.312946   642A      4.321644   643A      4.331639  
     644A      4.346824   645A      4.348928   646A      4.359012  
     647A      4.368430   648A      4.373995   649A      4.379625  
     650A      4.387132   651A      4.407553   652A      4.413872  
     653A      4.423366   654A      4.428225   655A      4.442185  
     656A      4.447124   657A      4.461608   658A      4.464700  
     659A      4.477897   660A      4.483909   661A      4.493307  
     662A      4.514341   663A      4.521701   664A      4.531590  
     665A      4.541044   666A      4.564702   667A      4.567203  
     668A      4.581263   669A      4.588070   670A      4.607646  
     671A      4.609310   672A      4.616462   673A      4.626347  
     674A      4.633368   675A      4.662594   676A      4.683502  
     677A      4.694146   678A      4.708306   679A      4.723024  
     680A      4.742442   681A      4.743174   682A      4.754989  
     683A      4.764051   684A      4.771911   685A      4.796328  
     686A      4.808796   687A      4.828281   688A      4.854127  
     689A      4.862485   690A      4.876509   691A      4.890653  
     692A      4.915539   693A      4.918052   694A      4.938267  
     695A      4.941489   696A      4.958351   697A      4.969153  
     698A      4.976102   699A      4.983129   700A      5.000419  
     701A      5.016477   702A      5.023239   703A      5.031396  
     704A      5.038531   705A      5.045998   706A      5.055402  
     707A      5.060518   708A      5.084008   709A      5.099487  
     710A      5.103967   711A      5.122635   712A      5.136426  
     713A      5.150282   714A      5.165648   715A      5.170231  
     716A      5.177093   717A      5.186310   718A      5.188272  
     719A      5.193252   720A      5.199379   721A      5.228599  
     722A      5.265988   723A      5.285505   724A      5.299952  
     725A      5.324535   726A      5.328605   727A      5.336331  
     728A      5.353562   729A      5.363647   730A      5.381149  
     731A      5.386621   732A      5.434803   733A      5.448331  
     734A      5.457228   735A      5.461091   736A      5.471120  
     737A      5.472124   738A      5.488239   739A      5.534282  
     740A      5.551498   741A      5.559689   742A      5.591705  
     743A      5.611429   744A      5.635268   745A      5.644394  
     746A      5.660704   747A      5.710808   748A      5.734639  
     749A      5.746772   750A      5.766312   751A      5.794299  
     752A      5.803842   753A      5.830956   754A      5.855258  
     755A      5.875331   756A      5.882783   757A      5.909358  
     758A      5.960033   759A      6.007518   760A      6.035279  
     761A      6.081316   762A      6.113179   763A      6.160307  
     764A      6.182229   765A      6.230505   766A      6.236523  
     767A      6.268832   768A      6.305100   769A      6.315686  
     770A      6.322322   771A      6.360169   772A      6.455682  
     773A      6.486033   774A      6.515240   775A      6.541562  
     776A      6.571853   777A      6.672285   778A      6.694726  
     779A      6.699372   780A      6.716225   781A      6.731326  
     782A      6.822190   783A      6.870552   784A      6.907720  
     785A      6.926543   786A      6.944426   787A      6.949338  
     788A      7.052640   789A      7.072312   790A      7.108370  
     791A      7.202293   792A      7.282308   793A      7.378466  
     794A      7.418855   795A      7.442203   796A      7.506437  
     797A      7.639194   798A      7.686326   799A      7.763053  
     800A      7.930755   801A      8.333963   802A      8.582511  
     803A      9.004977   804A      9.047051   805A      9.269074  
     806A      9.289559   807A      9.405657   808A      9.518693  
     809A      9.538681   810A      9.588486   811A      9.642004  
     812A      9.717087   813A     10.029680   814A     10.076463  
     815A     15.528788   816A     16.128681   817A     16.519234  
     818A     16.589239   819A     16.668600   820A     16.854723  
     821A     18.455558   822A     18.684000   823A     19.159245  
     824A     19.591272   825A     20.151493   826A     20.175935  
     827A     20.450597   828A     21.773583  

    Final Occupation by Irrep:
              A 
    DOCC [    49 ]

  Energy converged.

  @DF-RHF Final Energy:  -650.17243994502928

   => Energetics <=

    Nuclear Repulsion Energy =            813.8633174140973097
    One-Electron Energy =               -2502.5677017428552062
    Two-Electron Energy =                1038.5319443837286144
    DFT Exchange-Correlation Energy =       0.0000000000000000
    Empirical Dispersion Energy =           0.0000000000000000
    PCM Polarization Energy =               0.0000000000000000
    EFP Energy =                            0.0000000000000000
    Total Energy =                       -650.1724399450292822



Properties will be evaluated at   0.000000,   0.000000,   0.000000 Bohr

Properties computed using the SCF density matrix

  Nuclear Dipole Moment: (a.u.)
     X:    -2.9617      Y:     1.3442      Z:    -5.6236

  Electronic Dipole Moment: (a.u.)
     X:     1.4522      Y:    -0.8120      Z:     5.3687

  Dipole Moment: (a.u.)
     X:    -1.5095      Y:     0.5323      Z:    -0.2550     Total:     1.6208

  Dipole Moment: (Debye)
     X:    -3.8368      Y:     1.3529      Z:    -0.6480     Total:     4.1196


*** tstop() called on gpu-2-12.local at Sun Nov 12 00:11:33 2017
Module time:
	user time   =    1255.21 seconds =      20.92 minutes
	system time =      60.45 seconds =       1.01 minutes
	total time  =        582 seconds =       9.70 minutes
Total time:
	user time   =    1255.21 seconds =      20.92 minutes
	system time =      60.45 seconds =       1.01 minutes
	total time  =        582 seconds =       9.70 minutes

  //>>>>>>>>>>>>>>>>>>>>>>>>>>>>>>>>>>>//
  //               DFMP2               //
  //<<<<<<<<<<<<<<<<<<<<<<<<<<<<<<<<<<<//

   => Loading Basis Set <=

    Name: (AUG-CC-PVTZ AUX)
    Role: RIFIT
    Keyword: DF_BASIS_MP2
    atoms 1-11  entry C          line   147 file /cbio/jclab/home/chayas/anaconda/envs/py35/share/psi4/basis/aug-cc-pvtz-ri.gbs 
    atoms 12    entry N          line   205 file /cbio/jclab/home/chayas/anaconda/envs/py35/share/psi4/basis/aug-cc-pvtz-ri.gbs 
    atoms 13    entry O          line   263 file /cbio/jclab/home/chayas/anaconda/envs/py35/share/psi4/basis/aug-cc-pvtz-ri.gbs 
    atoms 14    entry F          line   321 file /cbio/jclab/home/chayas/anaconda/envs/py35/share/psi4/basis/aug-cc-pvtz-ri.gbs 
    atoms 15-22 entry H          line    29 file /cbio/jclab/home/chayas/anaconda/envs/py35/share/psi4/basis/aug-cc-pvtz-ri.gbs 

	 --------------------------------------------------------
	                          DF-MP2                         
	      2nd-Order Density-Fitted Moller-Plesset Theory     
	              RMP2 Wavefunction,   8 Threads             
	                                                         
	        Rob Parrish, Justin Turney, Andy Simmonett,      
	           Ed Hohenstein, and C. David Sherrill          
	 --------------------------------------------------------

   => Auxiliary Basis Set <=

  Basis Set: (AUG-CC-PVTZ AUX)
    Blend: AUG-CC-PVTZ-RI
    Number of shells: 504
    Number of basis function: 1852
    Number of Cartesian functions: 2344
    Spherical Harmonics?: true
    Max angular momentum: 4

	 --------------------------------------------------------
	                 NBF =   828, NAUX =  1852
	 --------------------------------------------------------
	   CLASS    FOCC     OCC    AOCC    AVIR     VIR    FVIR
	   PAIRS       0      49      49     779     779       0
	 --------------------------------------------------------


         ------------------------------------------------------------
                                     CPHF                           
                                  Rob Parrish                       
         ------------------------------------------------------------

  ==> Geometry <==

    Molecular point group: c1
    Full point group: C1

    Geometry (in Angstrom), charge = 0, multiplicity = 1:

       Center              X                  Y                   Z               Mass       
    ------------   -----------------  -----------------  -----------------  -----------------
           C         -1.316849806647     0.754819761470    -0.791498844434    12.000000000000
           C         -2.394849806647     1.327819761470    -0.118498844434    12.000000000000
           C          0.623150193353    -1.478180238530    -1.667498844434    12.000000000000
           C          2.126150193353     0.037819761470    -0.560498844434    12.000000000000
           C         -1.401849806647     0.711819761470     1.996501155566    12.000000000000
           C          1.725150193353    -2.011180238530    -2.316498844434    12.000000000000
           C          3.161150193353    -0.563180238530    -1.258498844434    12.000000000000
           C         -0.280849806647     0.159819761470    -0.071498844434    12.000000000000
           C          0.836150193353    -0.434180238530    -0.774498844434    12.000000000000
           C         -2.437849806647     1.306819761470     1.275501155566    12.000000000000
           C         -0.323849806647     0.138819761470     1.322501155566    12.000000000000
           N          2.993150193353    -1.579180238530    -2.134498844434    14.003074004780
           O         -3.490849806647     1.866819761470     1.932501155566    15.994914619560
           F          0.664150193353    -0.429180238530     2.029501155566    18.998403224000
           H         -1.297849806647     0.778819761470    -1.878498844434     1.007825032070
           H         -3.199849806647     1.788819761470    -0.685498844434     1.007825032070
           H         -0.368849806647    -1.872180238530    -1.862498844434     1.007825032070
           H          2.330150193353     0.850819761470     0.129501155566     1.007825032070
           H         -1.429849806647     0.691819761470     3.082501155566     1.007825032070
           H          1.612150193353    -2.825180238530    -3.024498844434     1.007825032070
           H          4.185150193353    -0.232180238530    -1.125498844434     1.007825032070
           H         -4.294849806647     1.806819761470     1.391501155566     1.007825032070

  Nuclear repulsion =  813.863317414097310
  Reference energy  = -650.172439945029282

  ==> Basis Set <==

  Basis Set: AUG-CC-PVTZ
    Blend: AUG-CC-PVTZ
    Number of shells: 268
    Number of basis function: 828
    Number of Cartesian functions: 970
    Spherical Harmonics?: true
    Max angular momentum: 3

  ==> CGRSolver (by Rob Parrish) <==

   Number of roots    =         1
   Preconditioning    =    JACOBI
   Convergence cutoff =     1E-06
   Maximum iterations =       100

  ==> CPHFRHamiltonian (by Rob Parrish) <== 

  ==> DFJK: Density-Fitted J/K Matrices <==

    J tasked:                  Yes
    K tasked:                  Yes
    wK tasked:                  No
    OpenMP threads:              8
    Integrals threads:           8
    Memory (MB):              3576
    Algorithm:                Disk
    Integral Cache:           NONE
    Schwarz Cutoff:          1E-12
    Fitting Condition:       1E-12

   => Auxiliary Basis Set <=

  Basis Set: (AUG-CC-PVTZ AUX)
    Blend: AUG-CC-PVTZ-JKFIT
    Number of shells: 532
    Number of basis function: 1824
    Number of Cartesian functions: 2274
    Spherical Harmonics?: true
    Max angular momentum: 4

  ==> CPHF Iterations <==

  => Iterations <=

             Iter  Converged  Remaining    Residual
  CGR           1          0          1   1.013E-01
  CGR           2          0          1   3.346E-02
  CGR           3          0          1   2.198E-02
  CGR           4          0          1   9.715E-03
  CGR           5          0          1   4.030E-03
  CGR           6          0          1   1.492E-03
  CGR           7          0          1   4.237E-04
  CGR           8          0          1   1.328E-04
  CGR           9          0          1   4.441E-05
  CGR          10          0          1   1.208E-05
  CGR          11          0          1   4.750E-06
  CGR          12          0          1   1.325E-06
  CGR          13          1          0   5.199E-07

    CGRSolver converged.

  ==> DFCorrGrad: Density-Fitted Correlated Gradients <==

    OpenMP threads:              8
    Integrals threads:           8
    Memory (MB):              3576
    Schwarz Cutoff:          0E+00
    Fitting Condition:       1E-12

   => Auxiliary Basis Set <=

  Basis Set: (AUG-CC-PVTZ AUX)
    Blend: AUG-CC-PVTZ-JKFIT
    Number of shells: 532
    Number of basis function: 1824
    Number of Cartesian functions: 2274
    Spherical Harmonics?: true
    Max angular momentum: 4

	-----------------------------------------------------------
	 ==================> DF-MP2 Energies <==================== 
	-----------------------------------------------------------
	 Reference Energy          =    -650.1724399450292822 [Eh]
	 Singles Energy            =      -0.0000000000000001 [Eh]
	 Same-Spin Energy          =      -0.6774322220817288 [Eh]
	 Opposite-Spin Energy      =      -2.0191628951166063 [Eh]
	 Correlation Energy        =      -2.6965951171983349 [Eh]
	 Total Energy              =    -652.8690350622275673 [Eh]
	-----------------------------------------------------------
	 ================> DF-SCS-MP2 Energies <================== 
	-----------------------------------------------------------
	 SCS Same-Spin Scale       =       0.3333333333333333 [-]
	 SCS Opposite-Spin Scale   =       1.2000000000000000 [-]
	 SCS Same-Spin Energy      =      -0.2258107406939096 [Eh]
	 SCS Opposite-Spin Energy  =      -2.4229954741399276 [Eh]
	 SCS Correlation Energy    =      -2.6488062148338374 [Eh]
	 SCS Total Energy          =    -652.8212461598631080 [Eh]
	-----------------------------------------------------------


  -Total Gradient:
     Atom            X                  Y                   Z
    ------   -----------------  -----------------  -----------------
       1        0.010612864235    -0.001919498871    -0.011069104747
       2       -0.004999989496     0.003336135517     0.004448864133
       3       -0.007242523765    -0.001016363958     0.002959750528
       4       -0.003783740159     0.005855591039     0.003645437773
       5       -0.003065560800     0.000121930561    -0.006184965636
       6       -0.014040203868    -0.001005692613     0.002633599497
       7       -0.003123375114     0.009501432851     0.008728046125
       8       -0.000972612115     0.000474351628    -0.002171027449
       9       -0.001566027529     0.000992236513    -0.000549934956
      10       -0.001309120107     0.005064659395     0.013678927270
      11        0.021877201648    -0.016965040315     0.006028455045
      12        0.013560152824    -0.006714165301    -0.008429129488
      13        0.005232370555     0.002411797257    -0.007690891562
      14        0.002500633036    -0.000625340127     0.002678679762
      15       -0.003234697738     0.001495571444    -0.006048260508
      16       -0.003359950319     0.001042023487    -0.003771855006
      17       -0.003140757048    -0.002575975676    -0.002767678197
      18        0.002896210104     0.003645149064     0.002790089268
      19        0.000944572103     0.000114242869     0.005552316571
      20        0.000388194638    -0.001761830455    -0.001987283804
      21        0.002510913927     0.000174514411     0.000079045340
      22       -0.010684555009    -0.001645728717    -0.002553079946


*** tstop() called on gpu-2-12.local at Sun Nov 12 00:48:35 2017
Module time:
	user time   =    6129.87 seconds =     102.16 minutes
	system time =     128.53 seconds =       2.14 minutes
	total time  =       2804 seconds =      46.73 minutes
Total time:
	user time   =    6129.87 seconds =     102.16 minutes
	system time =     128.53 seconds =       2.14 minutes
	total time  =       2804 seconds =      46.73 minutes

			-----------------------------------------
			 OPTKING 2.0: for geometry optimizations 
			  - R.A. King,  Bethel University        
			-----------------------------------------

	Internal coordinates to be generated automatically.
	Detected frag 1 with atoms:  1 2 3 4 5 6 7 8 9 10 11 12 13 14 15 16 17 18 19 20
	 21 22
	---Fragment 1 Bond Connectivity---
	 1 : 2 8 15
	 2 : 1 10 16
	 3 : 6 9 17
	 4 : 7 9 18
	 5 : 10 11 19
	 6 : 3 12 20
	 7 : 4 12 21
	 8 : 1 9 11
	 9 : 3 4 8
	 10 : 2 5 13
	 11 : 5 8 14
	 12 : 6 7
	 13 : 10 22
	 14 : 11
	 15 : 1
	 16 : 2
	 17 : 3
	 18 : 4
	 19 : 5
	 20 : 6
	 21 : 7
	 22 : 13

	Assuming in current code that numbering for constraints corresponds to unified fragment.
	Fixed dihedral atom list: 
	     2    10    13    22
	---Fragment 1 Geometry and Gradient---
	 C          -2.4884854927        1.4264026289       -1.4957160505
	 C          -4.5256102640        2.5092157030       -0.2239303630
	 C           1.1775832051       -2.7933558259       -3.1511161429
	 C           4.0178415828        0.0714689916       -1.0591893138
	 C          -2.6491122140        1.3451444052        3.7728404080
	 C           3.2600614035       -3.8005798547       -4.3775484031
	 C           5.9737081304       -1.0642564143       -2.3782181545
	 C          -0.5307292190        0.3020155798       -0.1351132348
	 C           1.5800948714       -0.8204817431       -1.4635907062
	 C          -4.6068684877        2.4695314542        2.4103478662
	 C          -0.6119874428        0.2623313310        2.4991649944
	 N           5.6562341400       -2.9842181653       -4.0336182469
	 O          -6.5967501056        3.5277780886        3.6518979355
	 F           1.2550619765       -0.8110331125        3.8352013704
	 H          -2.4525806962        1.4717560561       -3.5498483569
	 H          -6.0468398009        3.3803794503       -1.2954050804
	 H          -0.6970251187       -3.5379079222       -3.5196127388
	 H           4.4033457139        1.6078163376        0.2447217179
	 H          -2.7020245457        1.3073498825        5.8250829883
	 H           3.0465223505       -5.3388169269       -5.7154745052
	 H           7.9087876904       -0.4387570643       -2.1268845789
	 H          -8.1160899164        3.4143945207        2.6295560976
	             0.0106128642       -0.0019194989       -0.0110691047
	            -0.0049999895        0.0033361355        0.0044488641
	            -0.0072425238       -0.0010163640        0.0029597505
	            -0.0037837402        0.0058555910        0.0036454378
	            -0.0030655608        0.0001219306       -0.0061849656
	            -0.0140402039       -0.0010056926        0.0026335995
	            -0.0031233751        0.0095014329        0.0087280461
	            -0.0009726121        0.0004743516       -0.0021710274
	            -0.0015660275        0.0009922365       -0.0005499350
	            -0.0013091201        0.0050646594        0.0136789273
	             0.0218772016       -0.0169650403        0.0060284550
	             0.0135601528       -0.0067141653       -0.0084291295
	             0.0052323706        0.0024117973       -0.0076908916
	             0.0025006330       -0.0006253401        0.0026786798
	            -0.0032346977        0.0014955714       -0.0060482605
	            -0.0033599503        0.0010420235       -0.0037718550
	            -0.0031407570       -0.0025759757       -0.0027676782
	             0.0028962101        0.0036451491        0.0027900893
	             0.0009445721        0.0001142429        0.0055523166
	             0.0003881946       -0.0017618305       -0.0019872838
	             0.0025109139        0.0001745144        0.0000790453
	            -0.0106845550       -0.0016457287       -0.0025530799

	Previous optimization step data not found.  Starting new optimization.

	---Fragment 1 Intrafragment Coordinates---
	 - Coordinate -           - BOHR/RAD -       - ANG/DEG -
	 R(1,2)           =         2.634350	       1.394038
	 R(1,8)           =         2.635962	       1.394891
	 R(1,15)          =         2.054947	       1.087431
	 R(2,10)          =         2.635830	       1.394821
	 R(2,16)          =         2.054537	       1.087214
	 R(3,6)           =         2.618273	       1.385530
	 R(3,9)           =         2.627164	       1.390235
	 R(3,17)          =         2.050440	       1.085046
	 R(4,7)           =         2.618229	       1.385507
	 R(4,9)           =         2.627114	       1.390209
	 R(4,18)          =         2.051624	       1.085673
	 R(5,10)          =         2.636938	       1.395407
	 R(5,11)          =         2.635263	       1.394521
	 R(5,19)          =         2.053272	       1.086545
	 R(6,12)          =         2.554678	       1.351877
	 R(6,20)          =         2.049834	       1.084725
	 R(7,12)          =         2.554876	       1.351982
	 R(7,21)          =         2.049134	       1.084355
	 R(8,9)           =         2.735038	       1.447320
	 R(8,11)          =         2.635830	       1.394821
	 R(10,13)         =         2.573123	       1.361638
	 R(11,14)         =         2.534359	       1.341125
	 R(13,22)         =         1.834784	       0.970926
	 B(1,2,10)        =         2.094553	     120.009056
	 B(1,2,16)        =         2.088723	     119.675016
	 B(1,8,9)         =         2.091569	     119.838095
	 B(1,8,11)        =         2.093692	     119.959722
	 B(2,1,8)         =         2.094940	     120.031219
	 B(2,1,15)        =         2.079469	     119.144799
	 B(2,10,5)        =         2.094306	     119.994870
	 B(2,10,13)       =         2.094247	     119.991510
	 B(3,6,12)        =         2.165211	     124.057445
	 B(3,6,20)        =         2.107791	     120.767548
	 B(3,9,4)         =         2.089790	     119.736135
	 B(3,9,8)         =         2.096656	     120.129524
	 B(4,7,12)        =         2.164668	     124.026364
	 B(4,7,21)        =         2.107421	     120.746344
	 B(4,9,8)         =         2.096739	     120.134309
	 B(5,10,13)       =         2.094633	     120.013619
	 B(5,11,8)        =         2.095181	     120.045019
	 B(5,11,14)       =         2.081414	     119.256220
	 B(6,3,9)         =         2.057714	     117.898335
	 B(6,3,17)        =         2.098197	     120.217854
	 B(6,12,7)        =         2.030771	     116.354583
	 B(7,4,9)         =         2.058217	     117.927126
	 B(7,4,18)        =         2.099769	     120.307895
	 B(8,1,15)        =         2.108776	     120.823969
	 B(8,11,14)       =         2.106591	     120.698759
	 B(9,3,17)        =         2.127271	     121.883627
	 B(9,4,18)        =         2.125200	     121.764971
	 B(9,8,11)        =         2.097924	     120.202184
	 B(10,2,16)       =         2.099909	     120.315896
	 B(10,5,11)       =         2.093699	     119.960108
	 B(10,5,19)       =         2.100355	     120.341451
	 B(10,13,22)      =         1.924218	     110.249589
	 B(11,5,19)       =         2.089132	     119.698439
	 B(12,6,20)       =         2.010181	     115.174900
	 B(12,7,21)       =         2.011095	     115.227270
	 D(1,2,10,5)      =        -0.000325	      -0.018609
	 D(1,2,10,13)     =         3.141388	     179.988267
	 D(1,8,9,3)       =        -1.047732	     -60.030615
	 D(1,8,9,4)       =         2.092736	     119.904915
	 D(1,8,11,5)      =         0.000325	       0.018608
	 D(1,8,11,14)     =        -3.141528	    -179.996269
	 D(2,1,8,9)       =         3.141277	     179.981897
	 D(2,1,8,11)      =        -0.000348	      -0.019945
	 D(2,10,5,11)     =         0.000301	       0.017261
	 D(2,10,5,19)     =        -3.141029	    -179.967685
	 D(2,10,13,22)    =         0.524291	      30.039643
	 D(3,6,12,7)      =         0.000000	       0.000000
	 D(3,9,4,7)       =        -0.000043	      -0.002444
	 D(3,9,4,18)      =        -3.141070	    -179.970061
	 D(3,9,8,11)      =         2.093893	     119.971231
	 D(4,7,12,6)      =        -0.000490	      -0.028079
	 D(4,9,3,6)       =        -0.000394	      -0.022595
	 D(4,9,3,17)      =        -3.139269	    -179.866889
	 D(4,9,8,11)      =        -1.048825	     -60.093239
	 D(5,10,2,16)     =         3.140149	     179.917291
	 D(5,10,13,22)    =        -2.617182	    -149.953480
	 D(5,11,8,9)      =        -3.141300	    -179.983240
	 D(6,3,9,8)       =         3.140078	     179.913192
	 D(6,12,7,21)     =         3.140154	     179.917593
	 D(7,4,9,8)       =        -3.140515	    -179.938228
	 D(7,12,6,20)     =         3.139530	     179.881843
	 D(8,1,2,10)      =         0.000348	       0.019955
	 D(8,1,2,16)      =        -3.140133	    -179.916358
	 D(8,9,3,17)      =         0.001202	       0.068898
	 D(8,9,4,18)      =         0.001643	       0.094154
	 D(8,11,5,10)     =        -0.000301	      -0.017270
	 D(8,11,5,19)     =         3.141030	     179.967774
	 D(9,3,6,12)      =         0.000430	       0.024638
	 D(9,3,6,20)      =        -3.138988	    -179.850775
	 D(9,4,7,12)      =         0.000513	       0.029399
	 D(9,4,7,21)      =        -3.140081	    -179.913416
	 D(9,8,1,15)      =         0.000403	       0.023110
	 D(9,8,11,14)     =         0.000033	       0.001883
	 D(10,2,1,15)     =         3.141234	     179.979432
	 D(10,5,11,14)    =         3.141547	     179.997392
	 D(11,5,10,13)    =        -3.141411	    -179.989616
	 D(11,8,1,15)     =        -3.141221	    -179.978731
	 D(12,6,3,17)     =         3.139352	     179.871634
	 D(12,7,4,18)     =         3.141549	     179.997508
	 D(13,10,2,16)    =        -0.001324	      -0.075833
	 D(13,10,5,19)    =         0.000444	       0.025437
	 D(14,11,5,19)    =        -0.000307	      -0.017564
	 D(15,1,2,16)     =         0.000753	       0.043120
	 D(17,3,6,20)     =        -0.000066	      -0.003779
	 D(18,4,7,21)     =         0.000955	       0.054693
	 R(4,14)          =         5.689185	       3.010587

	Current energy   :      -652.8690350622

	Generating empirical Hessian (Schlegel '84) for each fragment.
	Adding user-defined constraint: Fragment 1; Coordinate 69:
		Value =     0.524291; Fixed value    =     0.523599
		Force =    -0.000346; Force constant =     0.500000
	Removing off-diagonal coupling between coordinate 69 and others.
	Taking RFO optimization step.
	Going to follow RFO solution 1.
	Using RFO vector 1.

	Determining step-restricting scale parameter for RS-RFO.
	Maximum step size allowed    0.10000

	 Iter      |step|        alpha        rfo_root  
	------------------------------------------------
	    0     0.25614       1.00000           1
	    1     0.18422       3.89820           1
	    2     0.14253      10.96339           1
	    3     0.11593      24.05833           1
	    4     0.10320      35.85499           1
	    5     0.10017      39.52911           1
	    6     0.10000      39.74622           1
	------------------------------------------------
	Norm of target step-size    0.10000
	Projected energy change by RFO approximation:        -0.0048463478

	Back-transformation to cartesian coordinates...
	Could not converge backtransformation.
	Using first guess instead.

	--- Internal Coordinate Step in ANG or DEG, aJ/ANG or AJ/DEG ---
	 ---------------------------------------------------------------------------
	   Coordinate                Previous        Force       Change         New 
	   ----------                --------       ------       ------       ------
	    1 R(1,2)          =      1.394038    -0.053658    -0.005107     1.388931
	    2 R(1,8)          =      1.394891    -0.038632    -0.003572     1.391319
	    3 R(1,15)         =      1.087431    -0.049616    -0.005819     1.081612
	    4 R(2,10)         =      1.394821    -0.034061    -0.003306     1.391515
	    5 R(2,16)         =      1.087214    -0.040342    -0.004732     1.082482
	    6 R(3,6)          =      1.385530     0.006067     0.000585     1.386116
	    7 R(3,9)          =      1.390235    -0.017856    -0.001271     1.388964
	    8 R(3,17)         =      1.085046    -0.035461    -0.004136     1.080910
	    9 R(4,7)          =      1.385507     0.002040     0.000198     1.385705
	   10 R(4,9)          =      1.390209    -0.018120    -0.001285     1.388923
	   11 R(4,18)         =      1.085673    -0.041582    -0.004865     1.080807
	   12 R(5,10)         =      1.395407    -0.098406    -0.009679     1.385728
	   13 R(5,11)         =      1.394521    -0.105357    -0.010262     1.384260
	   14 R(5,19)         =      1.086545    -0.045504    -0.005330     1.081215
	   15 R(6,12)         =      1.351877    -0.121438    -0.010745     1.341132
	   16 R(6,20)         =      1.084725    -0.021246    -0.002483     1.082242
	   17 R(7,12)         =      1.351982    -0.116743    -0.010378     1.341604
	   18 R(7,21)         =      1.084355    -0.020054    -0.002316     1.082039
	   19 R(8,9)          =      1.447320     0.131669     0.014782     1.462101
	   20 R(8,11)         =      1.394821    -0.066435    -0.006064     1.388757
	   21 R(10,13)        =      1.361638     0.003389     0.000845     1.362483
	   22 R(11,14)        =      1.341125    -0.030509    -0.002522     1.338604
	   23 R(13,22)        =      0.970926    -0.085451    -0.007489     0.963437
	   24 B(1,2,10)       =    120.009056    -0.000056    -0.069929   119.939127
	   25 B(1,2,16)       =    119.675016     0.000138     0.268534   119.943550
	   26 B(1,8,9)        =    119.838095     0.000622     0.995952   120.834047
	   27 B(1,8,11)       =    119.959722    -0.000919    -1.574148   118.385574
	   28 B(2,1,8)        =    120.031219     0.000327     0.642298   120.673517
	   29 B(2,1,15)       =    119.144799     0.000117     0.275050   119.419850
	   30 B(2,10,5)       =    119.994870    -0.000019    -0.036044   119.958826
	   31 B(2,10,13)      =    119.991510     0.000915     1.549684   121.541195
	   32 B(3,6,12)       =    124.057445    -0.000035    -0.116618   123.940828
	   33 B(3,6,20)       =    120.767548    -0.000037    -0.057490   120.710058
	   34 B(3,9,4)        =    119.736135    -0.000826    -1.324918   118.411218
	   35 B(3,9,8)        =    120.129524     0.000417     0.638799   120.768323
	   36 B(4,7,12)       =    124.026364    -0.000010    -0.072757   123.953607
	   37 B(4,7,21)       =    120.746344    -0.000042    -0.062545   120.683799
	   38 B(4,9,8)        =    120.134309     0.000409     0.686095   120.820404
	   39 B(5,10,13)      =    120.013619    -0.000896    -1.514905   118.498713
	   40 B(5,11,8)       =    120.045019     0.000959     1.594168   121.639187
	   41 B(5,11,14)      =    119.256220    -0.000287    -0.515822   118.740398
	   42 B(6,3,9)        =    117.898335     0.000368     0.718431   118.616766
	   43 B(6,3,17)       =    120.217854    -0.000007     0.015365   120.233219
	   44 B(6,12,7)       =    116.354583     0.000153     0.109596   116.464179
	   45 B(7,4,9)        =    117.927126     0.000351     0.686231   118.613357
	   46 B(7,4,18)       =    120.307895    -0.000019    -0.011748   120.296147
	   47 B(8,1,15)       =    120.823969    -0.000444    -0.917502   119.906467
	   48 B(8,11,14)      =    120.698759    -0.000672    -1.078623   119.620136
	   49 B(9,3,17)       =    121.883627    -0.000360    -0.733690   121.149937
	   50 B(9,4,18)       =    121.764971    -0.000331    -0.674476   121.090494
	   51 B(9,8,11)       =    120.202184     0.000297     0.578190   120.780374
	   52 B(10,2,16)      =    120.315896    -0.000082    -0.198574   120.117322
	   53 B(10,5,11)      =    119.960108    -0.000292    -0.556717   119.403392
	   54 B(10,5,19)      =    120.341451     0.000080     0.136675   120.478126
	   55 B(10,13,22)     =    110.249589    -0.000411    -0.867082   109.382507
	   56 B(11,5,19)      =    119.698439     0.000212     0.420042   120.118481
	   57 B(12,6,20)      =    115.174900     0.000072     0.174210   115.349110
	   58 B(12,7,21)      =    115.227270     0.000052     0.135322   115.362592
	   59 D(1,2,10,5)     =     -0.018609     0.000011     0.187944     0.169335
	   60 D(1,2,10,13)    =    179.988267    -0.000014    -0.234412   179.753855
	   61 D(1,8,9,3)      =    -60.030615     0.000032     0.486730   -59.543885
	   62 D(1,8,9,4)      =    119.904915     0.000031     0.463900   120.368815
	   63 D(1,8,11,5)     =      0.018608     0.000008     0.121763     0.140371
	   64 D(1,8,11,14)    =   -179.996269    -0.000003    -0.057825  -180.054094
	   65 D(2,1,8,9)      =    179.981897     0.000005     0.068088   180.049985
	   66 D(2,1,8,11)     =     -0.019945     0.000003     0.041776     0.021831
	   67 D(2,10,5,11)    =      0.017261    -0.000001    -0.028069    -0.010808
	   68 D(2,10,5,19)    =   -179.967685    -0.000003    -0.053283  -180.020968
	   69 D(2,10,13,22)   =     30.039643    -0.000016    -0.102969    29.936674
	   70 D(3,6,12,7)     =      0.000000    -0.000001    -0.017699    -0.017699
	   71 D(3,9,4,7)      =     -0.002444     0.000004     0.043378     0.040934
	   72 D(3,9,4,18)     =   -179.970061     0.000000    -0.006150  -179.976211
	   73 D(3,9,8,11)     =    119.971231     0.000034     0.513714   120.484945
	   74 D(4,7,12,6)     =     -0.028079     0.000000     0.004896    -0.023183
	   75 D(4,9,3,6)      =     -0.022595    -0.000005    -0.055266    -0.077861
	   76 D(4,9,3,17)     =   -179.866889    -0.000008    -0.109755  -179.976644
	   77 D(4,9,8,11)     =    -60.093239     0.000033     0.490884   -59.602355
	   78 D(5,10,2,16)    =    179.917291     0.000015     0.246839   180.164130
	   79 D(5,10,13,22)   =   -149.953480    -0.000040    -0.519443  -150.472923
	   80 D(5,11,8,9)     =   -179.983240     0.000006     0.095473  -179.887767
	   81 D(6,3,9,8)      =    179.913192    -0.000005    -0.076291   179.836901
	   82 D(6,12,7,21)    =    179.917593     0.000002     0.043687   179.961280
	   83 D(7,4,9,8)      =   -179.938228     0.000004     0.064447  -179.873782
	   84 D(7,12,6,20)    =    179.881843     0.000005     0.076950   179.958793
	   85 D(8,1,2,10)     =      0.019955    -0.000012    -0.195272    -0.175317
	   86 D(8,1,2,16)     =   -179.916358    -0.000016    -0.253763  -180.170121
	   87 D(8,9,3,17)     =      0.068898    -0.000008    -0.130780    -0.061882
	   88 D(8,9,4,18)     =      0.094154     0.000000     0.014918     0.109073
	   89 D(8,11,5,10)    =     -0.017270    -0.000009    -0.129160    -0.146430
	   90 D(8,11,5,19)    =    179.967774    -0.000007    -0.104081   179.863692
	   91 D(9,3,6,12)     =      0.024638     0.000003     0.044286     0.068924
	   92 D(9,3,6,20)     =   -179.850775    -0.000003    -0.055592  -179.906366
	   93 D(9,4,7,12)     =      0.029399    -0.000002    -0.018445     0.010954
	   94 D(9,4,7,21)     =   -179.913416    -0.000004    -0.059305  -179.972721
	   95 D(9,8,1,15)     =      0.023110    -0.000007    -0.122315    -0.099205
	   96 D(9,8,11,14)    =      0.001883    -0.000005    -0.084114    -0.082232
	   97 D(10,2,1,15)    =    179.979432     0.000000    -0.006280   179.973153
	   98 D(10,5,11,14)   =    179.997392     0.000002     0.048982   180.046374
	   99 D(11,5,10,13)   =   -179.989616     0.000024     0.381730  -179.607886
	  100 D(11,8,1,15)    =   -179.978731    -0.000009    -0.148627  -180.127358
	  101 D(12,6,3,17)    =    179.871634     0.000006     0.097030   179.968663
	  102 D(12,7,4,18)    =    179.997508     0.000002     0.030450   180.027959
	  103 D(13,10,2,16)   =     -0.075833    -0.000009    -0.175517    -0.251350
	  104 D(13,10,5,19)   =      0.025437     0.000022     0.356516     0.381954
	  105 D(14,11,5,19)   =     -0.017564     0.000004     0.074061     0.056497
	  106 D(15,1,2,16)    =      0.043120    -0.000004    -0.064771    -0.021652
	  107 D(17,3,6,20)    =     -0.003779    -0.000000    -0.002848    -0.006627
	  108 D(18,4,7,21)    =      0.054693    -0.000001    -0.010409     0.044284
	  109 R(4,14)         =      3.010587     0.009385     0.002618     3.013205
	 ---------------------------------------------------------------------------
	Successfully symmetrized geometry.
	 Forces used to impose fixed constraints are not included.
	  Forces zeroed: 69 

  ==> Convergence Check <==

  Measures of convergence in internal coordinates in au.
  Criteria marked as inactive (o), active & met (*), and active & unmet ( ).
  --------------------------------------------------------------------------------------------- ~
   Step     Total Energy     Delta E     MAX Force     RMS Force      MAX Disp      RMS Disp    ~
  --------------------------------------------------------------------------------------------- ~
    Convergence Criteria    1.00e-06 *    3.00e-04 *             o    1.20e-03 *             o  ~
  --------------------------------------------------------------------------------------------- ~
      1    -652.86903506   -6.53e+02      1.60e-02      4.86e-03 o    2.79e-02      9.58e-03 o  ~
  ---------------------------------------------------------------------------------------------

	Writing optimization data to binary file.
	Structure for next step:
	Cartesian Geometry (in Angstrom)
	    C    -1.3354249706   0.7581657932  -0.7850454796
	    C    -2.4091149972   1.3302118189  -0.1149090445
	    C     0.6467191588  -1.4794327263  -1.6784263152
	    C     2.1337146818   0.0212802198  -0.5690053573
	    C    -1.4177811413   0.7235087629   1.9902244137
	    C     1.7516039568  -2.0149826547  -2.3216464871
	    C     3.1726832685  -0.5809061383  -1.2604484700
	    C    -0.2927038665   0.1656846386  -0.0797311357
	    C     0.8397631528  -0.4365627960  -0.7815548320
	    C    -2.4499215964   1.3105561315   1.2758688460
	    C    -0.3531396413   0.1605921796   1.3077013232
	    N     3.0086674417  -1.5880867962  -2.1314178911
	    O    -3.4846665757   1.8661947008   1.9664699190
	    F     0.6362049312  -0.4037540205   2.0109584798
	    H    -1.3124999402   0.7777957058  -1.8662361566
	    H    -3.2127054019   1.7904583025  -0.6754301013
	    H    -0.3413048814  -1.8699655907  -1.8775719626
	    H     2.3335231541   0.8300518377   0.1195507824
	    H    -1.4407326810   0.7038238766   3.0710165957
	    H     1.6400119913  -2.8272162281  -3.0280963256
	    H     4.1936469244  -0.2511307838  -1.1201245597
	    H    -4.2882387142   1.8107485192   1.4378791813
			--------------------------
			 OPTKING Finished Execution 
			--------------------------

    Structure for next step:
    Molecular point group: c1
    Full point group: C1

    Geometry (in Angstrom), charge = 0, multiplicity = 1:

    C           -1.332621619633     0.755995346653    -0.783133960612
    C           -2.406311646287     1.328041372356    -0.112997525547
    C            0.649522509698    -1.481603172821    -1.676514796262
    C            2.136518032745     0.019109773337    -0.567093838351
    C           -1.414977790339     0.721338316382     1.992135932695
    C            1.754407307698    -2.017153101218    -2.319734968116
    C            3.175486619468    -0.583076584803    -1.258536951049
    C           -0.289900515609     0.163514192126    -0.077819616765
    C            0.842566503777    -0.438733242544    -0.779643313063
    C           -2.447118245465     1.308385684943     1.277780364993
    C           -0.350336290321     0.158421733066     1.309612842135
    N            3.011470792682    -1.590257242689    -2.129506372094
    O           -3.481863224744     1.864024254266     1.968381438014
    F            0.639008282143    -0.405924467033     2.012869998776
    H           -1.309696589248     0.775625259251    -1.864324637631
    H           -3.209902050940     1.788287855992    -0.673518582364
    H           -0.338501530424    -1.872136037171    -1.875660443614
    H            2.336326504990     0.827881391155     0.121462301356
    H           -1.437929330081     0.701653430110     3.072928114663
    H            1.642815342254    -2.829386674586    -3.026184806599
    H            4.196450275304    -0.253301230338    -1.118213040761
    H           -4.285435363294     1.808578072728     1.439790700272

gradient() will perform analytic gradient computation.

*** tstart() called on gpu-2-12.local
*** at Sun Nov 12 00:48:36 2017

    SCF Algorithm Type (re)set to DF.

*** tstart() called on gpu-2-12.local
*** at Sun Nov 12 00:48:36 2017

   => Loading Basis Set <=

    Name: AUG-CC-PVTZ
    Role: ORBITAL
    Keyword: BASIS
    atoms 1-11  entry C          line   221 file /cbio/jclab/home/chayas/anaconda/envs/py35/share/psi4/basis/aug-cc-pvtz.gbs 
    atoms 12    entry N          line   267 file /cbio/jclab/home/chayas/anaconda/envs/py35/share/psi4/basis/aug-cc-pvtz.gbs 
    atoms 13    entry O          line   313 file /cbio/jclab/home/chayas/anaconda/envs/py35/share/psi4/basis/aug-cc-pvtz.gbs 
    atoms 14    entry F          line   359 file /cbio/jclab/home/chayas/anaconda/envs/py35/share/psi4/basis/aug-cc-pvtz.gbs 
    atoms 15-22 entry H          line    34 file /cbio/jclab/home/chayas/anaconda/envs/py35/share/psi4/basis/aug-cc-pvtz.gbs 


         ---------------------------------------------------------
                                   SCF
            by Justin Turney, Rob Parrish, and Andy Simmonett
                              RHF Reference
                        8 Threads,   4768 MiB Core
         ---------------------------------------------------------

  ==> Geometry <==

    Molecular point group: c1
    Full point group: C1

    Geometry (in Angstrom), charge = 0, multiplicity = 1:

       Center              X                  Y                   Z               Mass       
    ------------   -----------------  -----------------  -----------------  -----------------
           C         -1.332621619633     0.755995346653    -0.783133960612    12.000000000000
           C         -2.406311646287     1.328041372356    -0.112997525547    12.000000000000
           C          0.649522509698    -1.481603172821    -1.676514796262    12.000000000000
           C          2.136518032745     0.019109773337    -0.567093838351    12.000000000000
           C         -1.414977790339     0.721338316382     1.992135932695    12.000000000000
           C          1.754407307698    -2.017153101218    -2.319734968116    12.000000000000
           C          3.175486619468    -0.583076584803    -1.258536951049    12.000000000000
           C         -0.289900515609     0.163514192126    -0.077819616765    12.000000000000
           C          0.842566503777    -0.438733242544    -0.779643313063    12.000000000000
           C         -2.447118245465     1.308385684943     1.277780364993    12.000000000000
           C         -0.350336290321     0.158421733066     1.309612842135    12.000000000000
           N          3.011470792682    -1.590257242689    -2.129506372094    14.003074004780
           O         -3.481863224744     1.864024254266     1.968381438014    15.994914619560
           F          0.639008282143    -0.405924467033     2.012869998776    18.998403224000
           H         -1.309696589248     0.775625259251    -1.864324637631     1.007825032070
           H         -3.209902050940     1.788287855992    -0.673518582364     1.007825032070
           H         -0.338501530424    -1.872136037171    -1.875660443614     1.007825032070
           H          2.336326504990     0.827881391155     0.121462301356     1.007825032070
           H         -1.437929330081     0.701653430110     3.072928114663     1.007825032070
           H          1.642815342254    -2.829386674586    -3.026184806599     1.007825032070
           H          4.196450275304    -0.253301230338    -1.118213040761     1.007825032070
           H         -4.285435363294     1.808578072728     1.439790700272     1.007825032070

  Running in c1 symmetry.

  Rotational constants: A =      0.06430  B =      0.01296  C =      0.01157 [cm^-1]
  Rotational constants: A =   1927.71796  B =    388.56433  C =    346.85511 [MHz]
  Nuclear repulsion =  814.497043318416900

  Charge       = 0
  Multiplicity = 1
  Electrons    = 98
  Nalpha       = 49
  Nbeta        = 49

  ==> Algorithm <==

  SCF Algorithm Type is DF.
  DIIS enabled.
  MOM disabled.
  Fractional occupation disabled.
  Guess Type is READ.
  Energy threshold   = 1.00e-10
  Density threshold  = 1.00e-10
  Integral threshold = 0.00e+00

  ==> Primary Basis <==

  Basis Set: AUG-CC-PVTZ
    Blend: AUG-CC-PVTZ
    Number of shells: 268
    Number of basis function: 828
    Number of Cartesian functions: 970
    Spherical Harmonics?: true
    Max angular momentum: 3

   => Loading Basis Set <=

    Name: (AUG-CC-PVTZ AUX)
    Role: JKFIT
    Keyword: DF_BASIS_SCF
    atoms 1-11  entry C          line   161 file /cbio/jclab/home/chayas/anaconda/envs/py35/share/psi4/basis/aug-cc-pvtz-jkfit.gbs 
    atoms 12    entry N          line   223 file /cbio/jclab/home/chayas/anaconda/envs/py35/share/psi4/basis/aug-cc-pvtz-jkfit.gbs 
    atoms 13    entry O          line   285 file /cbio/jclab/home/chayas/anaconda/envs/py35/share/psi4/basis/aug-cc-pvtz-jkfit.gbs 
    atoms 14    entry F          line   347 file /cbio/jclab/home/chayas/anaconda/envs/py35/share/psi4/basis/aug-cc-pvtz-jkfit.gbs 
    atoms 15-22 entry H          line    69 file /cbio/jclab/home/chayas/anaconda/envs/py35/share/psi4/basis/aug-cc-pvtz-jkfit.gbs 

  Reading orbitals from file 180, no projection.

  ==> Pre-Iterations <==

   -------------------------------------------------------
    Irrep   Nso     Nmo     Nalpha   Nbeta   Ndocc  Nsocc
   -------------------------------------------------------
     A        828     828       0       0       0       0
   -------------------------------------------------------
    Total     828     828      49      49      49       0
   -------------------------------------------------------

  ==> Integral Setup <==

  ==> DFJK: Density-Fitted J/K Matrices <==

    J tasked:                  Yes
    K tasked:                  Yes
    wK tasked:                  No
    OpenMP threads:              8
    Integrals threads:           8
    Memory (MB):              3576
    Algorithm:                Disk
    Integral Cache:           NONE
    Schwarz Cutoff:          1E-12
    Fitting Condition:       1E-12

   => Auxiliary Basis Set <=

  Basis Set: (AUG-CC-PVTZ AUX)
    Blend: AUG-CC-PVTZ-JKFIT
    Number of shells: 532
    Number of basis function: 1824
    Number of Cartesian functions: 2274
    Spherical Harmonics?: true
    Max angular momentum: 4

  Minimum eigenvalue in the overlap matrix is 7.3072771921E-07.
  Using Symmetric Orthogonalization.

  SCF Guess: Orbitals guess was supplied from a previous computation.

  ==> Iterations <==

                           Total Energy        Delta E     RMS |[F,P]|

   @DF-RHF iter   0:  -650.23459420229699   -6.50235e+02   4.45552e-04 
   @DF-RHF iter   1:  -650.17827338522329    5.63208e-02   8.69604e-05 
   @DF-RHF iter   2:  -650.17857022890280   -2.96844e-04   4.11628e-05 DIIS
   @DF-RHF iter   3:  -650.17873827704261   -1.68048e-04   1.08458e-05 DIIS
   @DF-RHF iter   4:  -650.17874525518289   -6.97814e-06   4.56956e-06 DIIS
   @DF-RHF iter   5:  -650.17874722158194   -1.96640e-06   1.40279e-06 DIIS
   @DF-RHF iter   6:  -650.17874756664219   -3.45060e-07   8.56491e-07 DIIS
   @DF-RHF iter   7:  -650.17874768755303   -1.20911e-07   3.28335e-07 DIIS
   @DF-RHF iter   8:  -650.17874772109133   -3.35383e-08   1.29208e-07 DIIS
   @DF-RHF iter   9:  -650.17874772462210   -3.53077e-09   4.98799e-08 DIIS
   @DF-RHF iter  10:  -650.17874772502944   -4.07340e-10   1.39120e-08 DIIS
   @DF-RHF iter  11:  -650.17874772507378   -4.43379e-11   5.13528e-09 DIIS
   @DF-RHF iter  12:  -650.17874772507537   -1.59162e-12   2.27314e-09 DIIS
   @DF-RHF iter  13:  -650.17874772506468    1.06866e-11   1.00964e-09 DIIS
   @DF-RHF iter  14:  -650.17874772506218    2.50111e-12   4.04812e-10 DIIS
   @DF-RHF iter  15:  -650.17874772507673   -1.45519e-11   1.86650e-10 DIIS
   @DF-RHF iter  16:  -650.17874772506798    8.75389e-12   6.33895e-11 DIIS

  ==> Post-Iterations <==

    Orbital Energies (a.u.)
    -----------------------

    Doubly Occupied:                                                      

       1A    -26.323082     2A    -20.605650     3A    -15.564145  
       4A    -11.344860     5A    -11.323788     6A    -11.273659  
       7A    -11.272680     8A    -11.267029     9A    -11.264378  
      10A    -11.254155    11A    -11.247577    12A    -11.246845  
      13A    -11.239530    14A    -11.237820    15A     -1.643394  
      16A     -1.423242    17A     -1.256533    18A     -1.184131  
      19A     -1.111623    20A     -1.043094    21A     -1.035004  
      22A     -1.022091    23A     -0.890308    24A     -0.877280  
      25A     -0.855337    26A     -0.829539    27A     -0.780228  
      28A     -0.735962    29A     -0.722571    30A     -0.709587  
      31A     -0.694756    32A     -0.666069    33A     -0.664370  
      34A     -0.654552    35A     -0.632560    36A     -0.618732  
      37A     -0.606729    38A     -0.598314    39A     -0.572332  
      40A     -0.549577    41A     -0.539423    42A     -0.525149  
      43A     -0.522584    44A     -0.496714    45A     -0.419483  
      46A     -0.390177    47A     -0.359935    48A     -0.348778  
      49A     -0.328954  

    Virtual:                                                              

      50A      0.019710    51A      0.031276    52A      0.033918  
      53A      0.036264    54A      0.042137    55A      0.048154  
      56A      0.053344    57A      0.055319    58A      0.075254  
      59A      0.082725    60A      0.084043    61A      0.085803  
      62A      0.090025    63A      0.094829    64A      0.097950  
      65A      0.100738    66A      0.103876    67A      0.108393  
      68A      0.110343    69A      0.111459    70A      0.116259  
      71A      0.117798    72A      0.119624    73A      0.125319  
      74A      0.126360    75A      0.130801    76A      0.133696  
      77A      0.135450    78A      0.142247    79A      0.144929  
      80A      0.149198    81A      0.150849    82A      0.153501  
      83A      0.155537    84A      0.157139    85A      0.165698  
      86A      0.171900    87A      0.174078    88A      0.179066  
      89A      0.185561    90A      0.195722    91A      0.200099  
      92A      0.209370    93A      0.216366    94A      0.217410  
      95A      0.223221    96A      0.228459    97A      0.234205  
      98A      0.234959    99A      0.240214   100A      0.240804  
     101A      0.245013   102A      0.250154   103A      0.251294  
     104A      0.255635   105A      0.257929   106A      0.264172  
     107A      0.264894   108A      0.268476   109A      0.274997  
     110A      0.276467   111A      0.280139   112A      0.284751  
     113A      0.293239   114A      0.298004   115A      0.303427  
     116A      0.304911   117A      0.309953   118A      0.312480  
     119A      0.313395   120A      0.316896   121A      0.322640  
     122A      0.324427   123A      0.328215   124A      0.331596  
     125A      0.339068   126A      0.344820   127A      0.346426  
     128A      0.352470   129A      0.356986   130A      0.363480  
     131A      0.368671   132A      0.376011   133A      0.381059  
     134A      0.385565   135A      0.388628   136A      0.396483  
     137A      0.398536   138A      0.403507   139A      0.409221  
     140A      0.414926   141A      0.421019   142A      0.421210  
     143A      0.421929   144A      0.428301   145A      0.432535  
     146A      0.435720   147A      0.440414   148A      0.443249  
     149A      0.449205   150A      0.454487   151A      0.459028  
     152A      0.460312   153A      0.466551   154A      0.471397  
     155A      0.472312   156A      0.477970   157A      0.478265  
     158A      0.483253   159A      0.487280   160A      0.489350  
     161A      0.492066   162A      0.497786   163A      0.501417  
     164A      0.504206   165A      0.508127   166A      0.510370  
     167A      0.513011   168A      0.514153   169A      0.518197  
     170A      0.522036   171A      0.524132   172A      0.531620  
     173A      0.538370   174A      0.539250   175A      0.542541  
     176A      0.546693   177A      0.550844   178A      0.554863  
     179A      0.560878   180A      0.566004   181A      0.568266  
     182A      0.577706   183A      0.579155   184A      0.587532  
     185A      0.591663   186A      0.592374   187A      0.604429  
     188A      0.606916   189A      0.619892   190A      0.622596  
     191A      0.626737   192A      0.637309   193A      0.638693  
     194A      0.647212   195A      0.648925   196A      0.658675  
     197A      0.663555   198A      0.668779   199A      0.674718  
     200A      0.676118   201A      0.685565   202A      0.696767  
     203A      0.701970   204A      0.703127   205A      0.709307  
     206A      0.715894   207A      0.720141   208A      0.724049  
     209A      0.727575   210A      0.737608   211A      0.738738  
     212A      0.743958   213A      0.749981   214A      0.757810  
     215A      0.761152   216A      0.766527   217A      0.774794  
     218A      0.781395   219A      0.786468   220A      0.795501  
     221A      0.799526   222A      0.806355   223A      0.808081  
     224A      0.818526   225A      0.821583   226A      0.833707  
     227A      0.838156   228A      0.844095   229A      0.847860  
     230A      0.851136   231A      0.854935   232A      0.858839  
     233A      0.868486   234A      0.874079   235A      0.876641  
     236A      0.882539   237A      0.885662   238A      0.892269  
     239A      0.896921   240A      0.901796   241A      0.908337  
     242A      0.912643   243A      0.916346   244A      0.925426  
     245A      0.925910   246A      0.931958   247A      0.934354  
     248A      0.940327   249A      0.944433   250A      0.947936  
     251A      0.953314   252A      0.956352   253A      0.960473  
     254A      0.965327   255A      0.967959   256A      0.972519  
     257A      0.977170   258A      0.980775   259A      0.986924  
     260A      0.990852   261A      0.993896   262A      1.001602  
     263A      1.003856   264A      1.010268   265A      1.019715  
     266A      1.023737   267A      1.027710   268A      1.030714  
     269A      1.031449   270A      1.035718   271A      1.041856  
     272A      1.043695   273A      1.046594   274A      1.056780  
     275A      1.061373   276A      1.063876   277A      1.070650  
     278A      1.074009   279A      1.078565   280A      1.084350  
     281A      1.090816   282A      1.092938   283A      1.095580  
     284A      1.099087   285A      1.108431   286A      1.110829  
     287A      1.117875   288A      1.123178   289A      1.126446  
[...]
	 --------------------------------------------------------

   => Auxiliary Basis Set <=

  Basis Set: (AUG-CC-PVTZ AUX)
    Blend: AUG-CC-PVTZ-RI
    Number of shells: 504
    Number of basis function: 1852
    Number of Cartesian functions: 2344
    Spherical Harmonics?: true
    Max angular momentum: 4

	 --------------------------------------------------------
	                 NBF =   828, NAUX =  1852
	 --------------------------------------------------------
	   CLASS    FOCC     OCC    AOCC    AVIR     VIR    FVIR
	   PAIRS       0      49      49     779     779       0
	 --------------------------------------------------------


         ------------------------------------------------------------
                                     CPHF                           
                                  Rob Parrish                       
         ------------------------------------------------------------

  ==> Geometry <==

    Molecular point group: c1
    Full point group: C1

    Geometry (in Angstrom), charge = 0, multiplicity = 1:

       Center              X                  Y                   Z               Mass       
    ------------   -----------------  -----------------  -----------------  -----------------
           C         -1.332621619633     0.755995346653    -0.783133960612    12.000000000000
           C         -2.406311646287     1.328041372356    -0.112997525547    12.000000000000
           C          0.649522509698    -1.481603172821    -1.676514796262    12.000000000000
           C          2.136518032745     0.019109773337    -0.567093838351    12.000000000000
           C         -1.414977790339     0.721338316382     1.992135932695    12.000000000000
           C          1.754407307698    -2.017153101218    -2.319734968116    12.000000000000
           C          3.175486619468    -0.583076584803    -1.258536951049    12.000000000000
           C         -0.289900515609     0.163514192126    -0.077819616765    12.000000000000
           C          0.842566503777    -0.438733242544    -0.779643313063    12.000000000000
           C         -2.447118245465     1.308385684943     1.277780364993    12.000000000000
           C         -0.350336290321     0.158421733066     1.309612842135    12.000000000000
           N          3.011470792682    -1.590257242689    -2.129506372094    14.003074004780
           O         -3.481863224744     1.864024254266     1.968381438014    15.994914619560
           F          0.639008282143    -0.405924467033     2.012869998776    18.998403224000
           H         -1.309696589248     0.775625259251    -1.864324637631     1.007825032070
           H         -3.209902050940     1.788287855992    -0.673518582364     1.007825032070
           H         -0.338501530424    -1.872136037171    -1.875660443614     1.007825032070
           H          2.336326504990     0.827881391155     0.121462301356     1.007825032070
           H         -1.437929330081     0.701653430110     3.072928114663     1.007825032070
           H          1.642815342254    -2.829386674586    -3.026184806599     1.007825032070
           H          4.196450275304    -0.253301230338    -1.118213040761     1.007825032070
           H         -4.285435363294     1.808578072728     1.439790700272     1.007825032070

  Nuclear repulsion =  814.497043318416900
  Reference energy  = -650.178747725067979

  ==> Basis Set <==

  Basis Set: AUG-CC-PVTZ
    Blend: AUG-CC-PVTZ
    Number of shells: 268
    Number of basis function: 828
    Number of Cartesian functions: 970
    Spherical Harmonics?: true
    Max angular momentum: 3

  ==> CGRSolver (by Rob Parrish) <==

   Number of roots    =         1
   Preconditioning    =    JACOBI
   Convergence cutoff =     1E-06
   Maximum iterations =       100

  ==> CPHFRHamiltonian (by Rob Parrish) <== 

  ==> DFJK: Density-Fitted J/K Matrices <==

    J tasked:                  Yes
    K tasked:                  Yes
    wK tasked:                  No
    OpenMP threads:              8
    Integrals threads:           8
    Memory (MB):              3576
    Algorithm:                Disk
    Integral Cache:           NONE
    Schwarz Cutoff:          1E-12
    Fitting Condition:       1E-12

   => Auxiliary Basis Set <=

  Basis Set: (AUG-CC-PVTZ AUX)
    Blend: AUG-CC-PVTZ-JKFIT
    Number of shells: 532
    Number of basis function: 1824
    Number of Cartesian functions: 2274
    Spherical Harmonics?: true
    Max angular momentum: 4

  ==> CPHF Iterations <==

  => Iterations <=

             Iter  Converged  Remaining    Residual
  CGR           1          0          1   1.005E-01
  CGR           2          0          1   3.253E-02
  CGR           3          0          1   2.138E-02
  CGR           4          0          1   9.226E-03
  CGR           5          0          1   3.853E-03
  CGR           6          0          1   1.442E-03
  CGR           7          0          1   4.091E-04
  CGR           8          0          1   1.278E-04
  CGR           9          0          1   4.276E-05
  CGR          10          0          1   1.231E-05
  CGR          11          0          1   5.188E-06
  CGR          12          0          1   2.088E-06
  CGR          13          0          1   1.075E-06
  CGR          14          1          0   4.379E-07

    CGRSolver converged.

  ==> DFCorrGrad: Density-Fitted Correlated Gradients <==

    OpenMP threads:              8
    Integrals threads:           8
    Memory (MB):              3576
    Schwarz Cutoff:          0E+00
    Fitting Condition:       1E-12

   => Auxiliary Basis Set <=

  Basis Set: (AUG-CC-PVTZ AUX)
    Blend: AUG-CC-PVTZ-JKFIT
    Number of shells: 532
    Number of basis function: 1824
    Number of Cartesian functions: 2274
    Spherical Harmonics?: true
    Max angular momentum: 4

	-----------------------------------------------------------
	 ==================> DF-MP2 Energies <==================== 
	-----------------------------------------------------------
	 Reference Energy          =    -650.1787477250679785 [Eh]
	 Singles Energy            =      -0.0000000000000003 [Eh]
	 Same-Spin Energy          =      -0.6766545501395411 [Eh]
	 Opposite-Spin Energy      =      -2.0170329150541741 [Eh]
	 Correlation Energy        =      -2.6936874651937157 [Eh]
	 Total Energy              =    -652.8724351902617400 [Eh]
	-----------------------------------------------------------
	 ================> DF-SCS-MP2 Energies <================== 
	-----------------------------------------------------------
	 SCS Same-Spin Scale       =       0.3333333333333333 [-]
	 SCS Opposite-Spin Scale   =       1.2000000000000000 [-]
	 SCS Same-Spin Energy      =      -0.2255515167131804 [Eh]
	 SCS Opposite-Spin Energy  =      -2.4204394980650088 [Eh]
	 SCS Correlation Energy    =      -2.6459910147781898 [Eh]
	 SCS Total Energy          =    -652.8247387398462251 [Eh]
	-----------------------------------------------------------


  -Total Gradient:
     Atom            X                  Y                   Z
    ------   -----------------  -----------------  -----------------
       1        0.006584044763    -0.000265292591    -0.005963596926
       2       -0.001319714316     0.001691033315     0.002193189549
       3       -0.003570095443    -0.000801106864     0.002440855026
       4       -0.002702304237     0.003380438566     0.001587771516
       5       -0.003661626531     0.000296582511    -0.005461553318
       6       -0.006113054830     0.000295543739     0.002258817213
       7       -0.002606301303     0.003794541998     0.003607784746
       8       -0.004870274080     0.002418100592     0.002583544065
       9        0.002324498178    -0.001020177696    -0.002491616479
      10        0.001456658674     0.001998360402     0.008572806720
      11        0.010793573615    -0.010065547046     0.003606398919
      12        0.006480946681    -0.003109126607    -0.004001937163
      13        0.001275741382     0.002140087152    -0.005392390205
      14       -0.001190755952     0.001383814923    -0.000963787153
      15       -0.001829064095     0.000680688292    -0.001746184676
      16       -0.001299408790    -0.000030918338    -0.001491054890
      17       -0.000652606742    -0.000772874697    -0.001432151710
      18        0.001227393234     0.001065343643     0.000692124063
      19        0.000547806896     0.000379427097     0.002267296049
      20        0.001142179270    -0.000482694059    -0.000868241630
      21        0.001117787050    -0.000699614994    -0.000546305554
      22       -0.003135423437    -0.002276609329     0.000548231846


*** tstop() called on gpu-2-12.local at Sun Nov 12 01:34:08 2017
Module time:
	user time   =    6210.28 seconds =     103.50 minutes
	system time =     117.58 seconds =       1.96 minutes
	total time  =       2732 seconds =      45.53 minutes
Total time:
	user time   =   12340.62 seconds =     205.68 minutes
	system time =     247.57 seconds =       4.13 minutes
	total time  =       5537 seconds =      92.28 minutes

			-----------------------------------------
			 OPTKING 2.0: for geometry optimizations 
			  - R.A. King,  Bethel University        
			-----------------------------------------

	Previous internal coordinate definitions found.
	---Fragment 1 Geometry and Gradient---
	 C          -2.5182898999        1.4286241629       -1.4799087109
	 C          -4.5472700019        2.5096344869       -0.2135343770
	 C           1.2274196605       -2.7998242342       -3.1681538227
	 C           4.0374339599        0.0361122381       -1.0716520461
	 C          -2.6739205079        1.3631318671        3.7645913323
	 C           3.3153493371       -3.8118669294       -4.3836637906
	 C           6.0008000494       -1.1018550598       -2.3782901656
	 C          -0.5478325803        0.3089970420       -0.1470577635
	 C           1.5922199409       -0.8290856738       -1.4733123430
	 C          -4.6243832987        2.4724906207        2.4146549478
	 C          -0.6620396431        0.2993736890        2.4748096117
	 N           5.6908550554       -3.0051506695       -4.0241838415
	 O          -6.5797679269        3.5224953456        3.7197018429
	 F           1.2075506499       -0.7670860733        3.8037730388
	 H          -2.4749678709        1.4657193217       -3.5230629879
	 H          -6.0658357897        3.3793742946       -1.2727656661
	 H          -0.6396751881       -3.5378243938       -3.5444845567
	 H           4.4150172514        1.5644690998        0.2295304850
	 H          -2.7172926323        1.3259328231        5.8069925628
	 H           3.1044710838       -5.3467659390       -5.7186605120
	 H           7.9301417506       -0.4786699545       -2.1131164053
	 H          -8.0982991968        3.4177172474        2.7208101122
	             0.0065840448       -0.0002652926       -0.0059635969
	            -0.0013197143        0.0016910333        0.0021931895
	            -0.0035700954       -0.0008011069        0.0024408550
	            -0.0027023042        0.0033804386        0.0015877715
	            -0.0036616265        0.0002965825       -0.0054615533
	            -0.0061130548        0.0002955437        0.0022588172
	            -0.0026063013        0.0037945420        0.0036077847
	            -0.0048702741        0.0024181006        0.0025835441
	             0.0023244982       -0.0010201777       -0.0024916165
	             0.0014566587        0.0019983604        0.0085728067
	             0.0107935736       -0.0100655470        0.0036063989
	             0.0064809467       -0.0031091266       -0.0040019372
	             0.0012757414        0.0021400872       -0.0053923902
	            -0.0011907560        0.0013838149       -0.0009637872
	            -0.0018290641        0.0006806883       -0.0017461847
	            -0.0012994088       -0.0000309183       -0.0014910549
	            -0.0006526067       -0.0007728747       -0.0014321517
	             0.0012273932        0.0010653436        0.0006921241
	             0.0005478069        0.0003794271        0.0022672960
	             0.0011421793       -0.0004826941       -0.0008682416
	             0.0011177871       -0.0006996150       -0.0005463056
	            -0.0031354234       -0.0022766093        0.0005482318

	---Fragment 1 Intrafragment Coordinates---
	 - Coordinate -           - BOHR/RAD -       - ANG/DEG -
	 R(1,2)           =         2.624700	       1.388931
	 R(1,8)           =         2.629213	       1.391319
	 R(1,15)          =         2.043950	       1.081612
	 R(2,10)          =         2.629583	       1.391515
	 R(2,16)          =         2.045595	       1.082482
	 R(3,6)           =         2.619379	       1.386116
	 R(3,9)           =         2.624762	       1.388964
	 R(3,17)          =         2.042624	       1.080910
	 R(4,7)           =         2.618603	       1.385705
	 R(4,9)           =         2.624685	       1.388923
	 R(4,18)          =         2.042430	       1.080807
	 R(5,10)          =         2.618647	       1.385728
	 R(5,11)          =         2.615871	       1.384260
	 R(5,19)          =         2.043200	       1.081215
	 R(6,12)          =         2.534373	       1.341132
	 R(6,20)          =         2.045141	       1.082242
	 R(7,12)          =         2.535264	       1.341604
	 R(7,21)          =         2.044758	       1.082039
	 R(8,9)           =         2.762971	       1.462101
	 R(8,11)          =         2.624371	       1.388757
	 R(10,13)         =         2.574721	       1.362483
	 R(11,14)         =         2.529594	       1.338604
	 R(13,22)         =         1.820632	       0.963437
	 B(1,2,10)        =         2.093333	     119.939127
	 B(1,2,16)        =         2.093410	     119.943550
	 B(1,8,9)         =         2.108952	     120.834047
	 B(1,8,11)        =         2.066218	     118.385574
	 B(2,1,8)         =         2.106150	     120.673517
	 B(2,1,15)        =         2.084270	     119.419850
	 B(2,10,5)        =         2.093676	     119.958826
	 B(2,10,13)       =         2.121294	     121.541195
	 B(3,6,12)        =         2.163176	     123.940828
	 B(3,6,20)        =         2.106788	     120.710058
	 B(3,9,4)         =         2.066666	     118.411218
	 B(3,9,8)         =         2.107805	     120.768323
	 B(4,7,12)        =         2.163399	     123.953607
	 B(4,7,21)        =         2.106330	     120.683799
	 B(4,9,8)         =         2.108714	     120.820404
	 B(5,10,13)       =         2.068193	     118.498713
	 B(5,11,8)        =         2.123004	     121.639187
	 B(5,11,14)       =         2.072411	     118.740398
	 B(6,3,9)         =         2.070253	     118.616766
	 B(6,3,17)        =         2.098466	     120.233219
	 B(6,12,7)        =         2.032683	     116.464179
	 B(7,4,9)         =         2.070194	     118.613357
	 B(7,4,18)        =         2.099564	     120.296147
	 B(8,1,15)        =         2.092763	     119.906467
	 B(8,11,14)       =         2.087765	     119.620136
	 B(9,3,17)        =         2.114465	     121.149937
	 B(9,4,18)        =         2.113428	     121.090494
	 B(9,8,11)        =         2.108015	     120.780374
	 B(10,2,16)       =         2.096443	     120.117322
	 B(10,5,11)       =         2.083982	     119.403392
	 B(10,5,19)       =         2.102740	     120.478126
	 B(10,13,22)      =         1.909085	     109.382507
	 B(11,5,19)       =         2.096463	     120.118481
	 B(12,6,20)       =         2.013222	     115.349110
	 B(12,7,21)       =         2.013457	     115.362592
	 D(1,2,10,5)      =         0.002955	       0.169335
	 D(1,2,10,13)     =         3.137297	     179.753855
	 D(1,8,9,3)       =        -1.039237	     -59.543885
	 D(1,8,9,4)       =         2.100832	     120.368815
	 D(1,8,11,5)      =         0.002450	       0.140371
	 D(1,8,11,14)     =         3.140649	     179.945906
	 D(2,1,8,9)       =        -3.140720	    -179.950015
	 D(2,1,8,11)      =         0.000381	       0.021831
	 D(2,10,5,11)     =        -0.000189	      -0.010808
	 D(2,10,5,19)     =         3.141227	     179.979032
	 D(2,10,13,22)    =         0.522494	      29.936674
	 D(3,6,12,7)      =        -0.000309	      -0.017699
	 D(3,9,4,7)       =         0.000714	       0.040934
	 D(3,9,4,18)      =        -3.141177	    -179.976211
	 D(3,9,8,11)      =         2.102859	     120.484945
	 D(4,7,12,6)      =        -0.000405	      -0.023183
	 D(4,9,3,6)       =        -0.001359	      -0.077861
	 D(4,9,3,17)      =        -3.141185	    -179.976644
	 D(4,9,8,11)      =        -1.040257	     -59.602355
	 D(5,10,2,16)     =        -3.138728	    -179.835870
	 D(5,10,13,22)    =        -2.626248	    -150.472923
	 D(5,11,8,9)      =        -3.139634	    -179.887767
	 D(6,3,9,8)       =         3.138746	     179.836901
	 D(6,12,7,21)     =         3.140917	     179.961280
	 D(7,4,9,8)       =        -3.139390	    -179.873782
	 D(7,12,6,20)     =         3.140873	     179.958793
	 D(8,1,2,10)      =        -0.003060	      -0.175317
	 D(8,1,2,16)      =         3.138623	     179.829879
	 D(8,9,3,17)      =        -0.001080	      -0.061882
	 D(8,9,4,18)      =         0.001904	       0.109073
	 D(8,11,5,10)     =        -0.002556	      -0.146430
	 D(8,11,5,19)     =         3.139214	     179.863692
	 D(9,3,6,12)      =         0.001203	       0.068924
	 D(9,3,6,20)      =        -3.139958	    -179.906366
	 D(9,4,7,12)      =         0.000191	       0.010954
	 D(9,4,7,21)      =        -3.141117	    -179.972721
	 D(9,8,1,15)      =        -0.001731	      -0.099205
	 D(9,8,11,14)     =        -0.001435	      -0.082232
	 D(10,2,1,15)     =         3.141124	     179.973153
	 D(10,5,11,14)    =        -3.140783	    -179.953626
	 D(11,5,10,13)    =        -3.134749	    -179.607886
	 D(11,8,1,15)     =         3.139370	     179.872642
	 D(12,6,3,17)     =         3.141046	     179.968663
	 D(12,7,4,18)     =        -3.141105	    -179.972041
	 D(13,10,2,16)    =        -0.004387	      -0.251350
	 D(13,10,5,19)    =         0.006666	       0.381954
	 D(14,11,5,19)    =         0.000986	       0.056497
	 D(15,1,2,16)     =        -0.000378	      -0.021652
	 D(17,3,6,20)     =        -0.000116	      -0.006627
	 D(18,4,7,21)     =         0.000773	       0.044284
	 R(4,14)          =         5.694132	       3.013205

	Current energy   :      -652.8724351903

	Energy change for the previous step:
		Projected    :        -0.0048463478
		Actual       :        -0.0034001280

	Performing BFGS update.
	Previous computed or guess Hessian on step 1.
	Steps to be used in Hessian update: 1
	Adding user-defined constraint: Fragment 1; Coordinate 69:
		Value =     0.522494; Fixed value    =     0.523600
		Force =     0.000581; Force constant =     0.525000
	Removing off-diagonal coupling between coordinate 69 and others.
	Taking RFO optimization step.
	Going to follow RFO solution 1.
	Using RFO vector 1.

	Determining step-restricting scale parameter for RS-RFO.
	Maximum step size allowed    0.10000

	 Iter      |step|        alpha        rfo_root  
	------------------------------------------------
	    0     0.25948       1.00000           1
	    1     0.17580       6.05054           1
	    2     0.13020      14.36302           1
	    3     0.10843      23.31906           1
	    4     0.10103      28.08981           1
	    5     0.10002      28.84519           1
	    6     0.10000      28.85968           1
	------------------------------------------------
	Norm of target step-size    0.10000
	Projected energy change by RFO approximation:        -0.0018994434

	Back-transformation to cartesian coordinates...
	The INTCO_EXCEPTion handler:
	TORS::compute_val: unable to compute torsion value
	Dynamic level is 0.
	exc.g_really_quit() is 0.

  **** Optimization has failed! (in 2 steps) ****
			--------------------------
			 OPTKING Finished Execution 
			--------------------------
	Cleaning optimization helper files.

*** Psi4 exiting successfully. Buy a developer a beer!
