
    -----------------------------------------------------------------------
          Psi4: An Open-Source Ab Initio Electronic Structure Package
                               Psi4 1.1 release

                         Git: Rev {HEAD} add49b9 


    R. M. Parrish, L. A. Burns, D. G. A. Smith, A. C. Simmonett,
    A. E. DePrince III, E. G. Hohenstein, U. Bozkaya, A. Yu. Sokolov,
    R. Di Remigio, R. M. Richard, J. F. Gonthier, A. M. James,
    H. R. McAlexander, A. Kumar, M. Saitow, X. Wang, B. P. Pritchard,
    P. Verma, H. F. Schaefer III, K. Patkowski, R. A. King, E. F. Valeev,
    F. A. Evangelista, J. M. Turney, T. D. Crawford, and C. D. Sherrill,
    J. Chem. Theory Comput. in press (2017).
    (doi: 10.1021/acs.jctc.7b00174)

    -----------------------------------------------------------------------


    Psi4 started on: Sunday, 12 November 2017 08:30AM

    Process ID:  22705
    PSIDATADIR: /cbio/jclab/home/chayas/anaconda/envs/py35/share/psi4
    Memory:     500.0 MiB
    Threads:    8
    
  ==> Input File <==

--------------------------------------------------------------------------

memory 5 Gb

molecule phepyrOH_cation {
  symmetry C1
  1 1 
  C      1.885   -1.036   -0.112
  C      2.878   -1.652   2.002
  C      0.807   -0.463   0.561
  C      1.800   -1.079   2.676
  C      4.440   -1.719   -1.322
  C      4.716   -3.305   0.469
  C      5.516   -2.309   -1.970
  C      5.786   -3.855   -0.224
  C      2.921   -1.631   0.608
  C      4.040   -2.225   -0.090
  C      0.764   -0.484   1.955
  N      6.150   -3.348   -1.409
  O      -0.288   0.076   2.612
  H      1.904   -1.012   -1.199
  H      3.678   -2.112   2.578
  H      0.003   -0.001   -0.006
  H      1.772   -1.098   3.762
  H      3.931   -0.877   -1.782
  H      4.425   -3.721   1.429
  H      5.897   -1.982   -2.928
  H      6.368   -4.693   0.134
  H      6.938   -3.767   -1.902
  H      -0.922   0.446   1.977
  units Angstrom
}

dih_string = "3 11 13 23 0.001"
set optking fixed_dihedral = $dih_string

optimize('MP2/aug-cc-PVTZ')
--------------------------------------------------------------------------

  Memory set to   4.657 GiB by Python driver.
gradient() will perform analytic gradient computation.

*** tstart() called on gpu-2-12.local
*** at Sun Nov 12 08:30:59 2017

    SCF Algorithm Type (re)set to DF.

*** tstart() called on gpu-2-12.local
*** at Sun Nov 12 08:30:59 2017

   => Loading Basis Set <=

    Name: AUG-CC-PVTZ
    Role: ORBITAL
    Keyword: BASIS
    atoms 1-11  entry C          line   221 file /cbio/jclab/home/chayas/anaconda/envs/py35/share/psi4/basis/aug-cc-pvtz.gbs 
    atoms 12    entry N          line   267 file /cbio/jclab/home/chayas/anaconda/envs/py35/share/psi4/basis/aug-cc-pvtz.gbs 
    atoms 13    entry O          line   313 file /cbio/jclab/home/chayas/anaconda/envs/py35/share/psi4/basis/aug-cc-pvtz.gbs 
    atoms 14-23 entry H          line    34 file /cbio/jclab/home/chayas/anaconda/envs/py35/share/psi4/basis/aug-cc-pvtz.gbs 


         ---------------------------------------------------------
                                   SCF
            by Justin Turney, Rob Parrish, and Andy Simmonett
                              RHF Reference
                        8 Threads,   4768 MiB Core
         ---------------------------------------------------------

  ==> Geometry <==

    Molecular point group: c1
    Full point group: C1

    Geometry (in Angstrom), charge = 1, multiplicity = 1:

       Center              X                  Y                   Z               Mass       
    ------------   -----------------  -----------------  -----------------  -----------------
           C         -1.267139872329     0.717449074289    -0.569724606474    12.000000000000
           C         -0.274139872329     0.101449074289     1.544275393526    12.000000000000
           C         -2.345139872329     1.290449074289     0.103275393526    12.000000000000
           C         -1.352139872329     0.674449074289     2.218275393526    12.000000000000
           C          1.287860127671     0.034449074289    -1.779724606474    12.000000000000
           C          1.563860127671    -1.551550925711     0.011275393526    12.000000000000
           C          2.363860127671    -0.555550925711    -2.427724606474    12.000000000000
           C          2.633860127671    -2.101550925711    -0.681724606474    12.000000000000
           C         -0.231139872329     0.122449074289     0.150275393526    12.000000000000
           C          0.887860127671    -0.471550925711    -0.547724606474    12.000000000000
           C         -2.388139872329     1.269449074289     1.497275393526    12.000000000000
           N          2.997860127671    -1.594550925711    -1.866724606474    14.003074004780
           O         -3.440139872329     1.829449074289     2.154275393526    15.994914619560
           H         -1.248139872329     0.741449074289    -1.656724606474     1.007825032070
           H          0.525860127671    -0.358550925711     2.120275393526     1.007825032070
           H         -3.149139872329     1.752449074289    -0.463724606474     1.007825032070
           H         -1.380139872329     0.655449074289     3.304275393526     1.007825032070
           H          0.778860127671     0.876449074289    -2.239724606474     1.007825032070
           H          1.272860127671    -1.967550925711     0.971275393526     1.007825032070
           H          2.744860127671    -0.228550925711    -3.385724606474     1.007825032070
           H          3.215860127671    -2.939550925711    -0.323724606474     1.007825032070
           H          3.785860127671    -2.013550925711    -2.359724606474     1.007825032070
           H         -4.074139872329     2.199449074289     1.519275393526     1.007825032070

  Running in c1 symmetry.

  Rotational constants: A =      0.09612  B =      0.01336  C =      0.01192 [cm^-1]
  Rotational constants: A =   2881.71670  B =    400.42517  C =    357.41301 [MHz]
  Nuclear repulsion =  713.253102297755049

  Charge       = 1
  Multiplicity = 1
  Electrons    = 90
  Nalpha       = 45
  Nbeta        = 45

  ==> Algorithm <==

  SCF Algorithm Type is DF.
  DIIS enabled.
  MOM disabled.
  Fractional occupation disabled.
  Guess Type is SAD.
  Energy threshold   = 1.00e-10
  Density threshold  = 1.00e-10
  Integral threshold = 0.00e+00

  ==> Primary Basis <==

  Basis Set: AUG-CC-PVTZ
    Blend: AUG-CC-PVTZ
    Number of shells: 272
    Number of basis function: 828
    Number of Cartesian functions: 965
    Spherical Harmonics?: true
    Max angular momentum: 3

   => Loading Basis Set <=

    Name: (AUG-CC-PVTZ AUX)
    Role: JKFIT
    Keyword: DF_BASIS_SCF
    atoms 1-11  entry C          line   161 file /cbio/jclab/home/chayas/anaconda/envs/py35/share/psi4/basis/aug-cc-pvtz-jkfit.gbs 
    atoms 12    entry N          line   223 file /cbio/jclab/home/chayas/anaconda/envs/py35/share/psi4/basis/aug-cc-pvtz-jkfit.gbs 
    atoms 13    entry O          line   285 file /cbio/jclab/home/chayas/anaconda/envs/py35/share/psi4/basis/aug-cc-pvtz-jkfit.gbs 
    atoms 14-23 entry H          line    69 file /cbio/jclab/home/chayas/anaconda/envs/py35/share/psi4/basis/aug-cc-pvtz-jkfit.gbs 

  ==> Pre-Iterations <==

   -------------------------------------------------------
    Irrep   Nso     Nmo     Nalpha   Nbeta   Ndocc  Nsocc
   -------------------------------------------------------
     A        828     828       0       0       0       0
   -------------------------------------------------------
    Total     828     828      45      45      45       0
   -------------------------------------------------------

  ==> Integral Setup <==

  ==> DFJK: Density-Fitted J/K Matrices <==

    J tasked:                  Yes
    K tasked:                  Yes
    wK tasked:                  No
    OpenMP threads:              8
    Integrals threads:           8
    Memory (MB):              3576
    Algorithm:                Disk
    Integral Cache:           NONE
    Schwarz Cutoff:          1E-12
    Fitting Condition:       1E-12

   => Auxiliary Basis Set <=

  Basis Set: (AUG-CC-PVTZ AUX)
    Blend: AUG-CC-PVTZ-JKFIT
    Number of shells: 530
    Number of basis function: 1812
    Number of Cartesian functions: 2253
    Spherical Harmonics?: true
    Max angular momentum: 4

  Minimum eigenvalue in the overlap matrix is 5.3117739005E-07.
  Using Symmetric Orthogonalization.

  SCF Guess: Superposition of Atomic Densities via on-the-fly atomic UHF.

  ==> Iterations <==

                           Total Energy        Delta E     RMS |[F,P]|

   @DF-RHF iter   0:  -553.59544401195797   -5.53595e+02   1.98582e-02 
   @DF-RHF iter   1:  -551.30393990805976    2.29150e+00   1.99334e-03 
   @DF-RHF iter   2:  -551.60843204869366   -3.04492e-01   6.09321e-04 DIIS
   @DF-RHF iter   3:  -551.65908016795288   -5.06481e-02   3.04174e-04 DIIS
   @DF-RHF iter   4:  -551.67378821732450   -1.47080e-02   1.43559e-04 DIIS
   @DF-RHF iter   5:  -551.67561791993171   -1.82970e-03   4.30553e-05 DIIS
   @DF-RHF iter   6:  -551.67594337792468   -3.25458e-04   1.84756e-05 DIIS
   @DF-RHF iter   7:  -551.67598894596961   -4.55680e-05   6.82820e-06 DIIS
   @DF-RHF iter   8:  -551.67599446164320   -5.51567e-06   2.67929e-06 DIIS
   @DF-RHF iter   9:  -551.67599609017998   -1.62854e-06   1.37098e-06 DIIS
   @DF-RHF iter  10:  -551.67599657691403   -4.86734e-07   3.96615e-07 DIIS
   @DF-RHF iter  11:  -551.67599667026661   -9.33526e-08   1.65927e-07 DIIS
   @DF-RHF iter  12:  -551.67599667812942   -7.86281e-09   6.22103e-08 DIIS
   @DF-RHF iter  13:  -551.67599667912873   -9.99307e-10   3.67050e-08 DIIS
   @DF-RHF iter  14:  -551.67599667937907   -2.50338e-10   1.15491e-08 DIIS
   @DF-RHF iter  15:  -551.67599667943080   -5.17275e-11   5.66534e-09 DIIS
   @DF-RHF iter  16:  -551.67599667945171   -2.09184e-11   2.37018e-09 DIIS
   @DF-RHF iter  17:  -551.67599667944364    8.07177e-12   8.15536e-10 DIIS
   @DF-RHF iter  18:  -551.67599667946763   -2.39879e-11   3.77954e-10 DIIS
   @DF-RHF iter  19:  -551.67599667946115    6.48015e-12   1.46465e-10 DIIS
   @DF-RHF iter  20:  -551.67599667944853    1.26192e-11   6.01078e-11 DIIS

  ==> Post-Iterations <==

    Orbital Energies (a.u.)
    -----------------------

    Doubly Occupied:                                                      

       1A    -20.703666     2A    -15.832566     3A    -11.483579  
       4A    -11.483469     5A    -11.445293     6A    -11.434550  
       7A    -11.413870     8A    -11.413755     9A    -11.380444  
      10A    -11.378814    11A    -11.371416    12A    -11.357808  
      13A    -11.354344    14A     -1.518427    15A     -1.510591  
      16A     -1.320791    17A     -1.264125    18A     -1.236451  
      19A     -1.154768    20A     -1.151666    21A     -1.067997  
      22A     -1.054117    23A     -0.976440    24A     -0.961559  
      25A     -0.950197    26A     -0.870684    27A     -0.859061  
      28A     -0.853763    29A     -0.821934    30A     -0.798052  
      31A     -0.781419    32A     -0.772931    33A     -0.757041  
      34A     -0.732697    35A     -0.719985    36A     -0.706328  
      37A     -0.704605    38A     -0.684052    39A     -0.654159  
      40A     -0.637307    41A     -0.620390    42A     -0.570465  
      43A     -0.536944    44A     -0.470252    45A     -0.437489  

    Virtual:                                                              

      46A     -0.104784    47A     -0.084384    48A     -0.063452  
      49A     -0.062826    50A     -0.059396    51A     -0.049169  
      52A     -0.043689    53A     -0.039413    54A     -0.034703  
      55A     -0.028435    56A     -0.025784    57A     -0.023716  
      58A     -0.016939    59A     -0.010384    60A     -0.006346  
      61A     -0.001383    62A      0.003548    63A      0.005901  
      64A      0.009134    65A      0.015276    66A      0.017517  
      67A      0.021520    68A      0.023931    69A      0.024776  
      70A      0.028542    71A      0.031986    72A      0.036742  
      73A      0.038552    74A      0.039995    75A      0.044968  
      76A      0.049286    77A      0.055183    78A      0.058101  
      79A      0.060406    80A      0.066900    81A      0.068351  
      82A      0.072712    83A      0.074441    84A      0.078169  
      85A      0.083892    86A      0.086254    87A      0.088283  
      88A      0.095367    89A      0.098303    90A      0.108335  
      91A      0.110541    92A      0.114676    93A      0.121043  
      94A      0.122953    95A      0.124833    96A      0.128310  
      97A      0.131978    98A      0.136967    99A      0.139837  
     100A      0.144668   101A      0.152606   102A      0.158108  
     103A      0.161769   104A      0.163686   105A      0.167003  
     106A      0.168141   107A      0.171081   108A      0.173689  
     109A      0.178094   110A      0.181620   111A      0.187961  
     112A      0.190424   113A      0.192410   114A      0.197203  
     115A      0.204467   116A      0.206223   117A      0.209964  
     118A      0.213153   119A      0.217992   120A      0.219561  
     121A      0.224097   122A      0.228194   123A      0.231273  
     124A      0.232999   125A      0.234187   126A      0.239563  
     127A      0.240631   128A      0.249939   129A      0.251632  
     130A      0.257927   131A      0.258701   132A      0.274117  
     133A      0.278088   134A      0.279208   135A      0.280259  
     136A      0.287319   137A      0.287370   138A      0.293089  
     139A      0.300259   140A      0.309288   141A      0.311720  
     142A      0.312193   143A      0.315929   144A      0.317945  
     145A      0.322666   146A      0.324456   147A      0.330704  
     148A      0.333996   149A      0.336508   150A      0.339585  
     151A      0.341016   152A      0.344200   153A      0.348904  
     154A      0.350839   155A      0.355341   156A      0.360792  
     157A      0.365502   158A      0.368405   159A      0.371278  
     160A      0.374148   161A      0.375639   162A      0.378671  
     163A      0.383724   164A      0.387449   165A      0.389550  
     166A      0.394333   167A      0.398788   168A      0.401058  
     169A      0.403843   170A      0.407744   171A      0.410903  
     172A      0.414532   173A      0.417104   174A      0.420210  
     175A      0.424791   176A      0.428421   177A      0.430815  
     178A      0.437192   179A      0.439313   180A      0.443234  
     181A      0.449272   182A      0.453592   183A      0.458400  
     184A      0.464156   185A      0.471655   186A      0.474937  
     187A      0.482625   188A      0.488334   189A      0.494848  
     190A      0.500799   191A      0.506734   192A      0.510536  
     193A      0.518407   194A      0.528526   195A      0.530092  
     196A      0.538376   197A      0.543134   198A      0.549730  
     199A      0.551290   200A      0.563517   201A      0.570838  
     202A      0.574370   203A      0.577027   204A      0.580907  
     205A      0.584606   206A      0.586996   207A      0.595840  
     208A      0.601169   209A      0.607523   210A      0.612594  
     211A      0.619923   212A      0.622192   213A      0.627352  
     214A      0.632553   215A      0.637540   216A      0.642796  
     217A      0.645181   218A      0.649645   219A      0.655705  
     220A      0.667336   221A      0.676408   222A      0.681371  
     223A      0.693635   224A      0.700061   225A      0.701849  
     226A      0.704192   227A      0.708627   228A      0.711475  
     229A      0.716597   230A      0.718707   231A      0.725273  
     232A      0.731013   233A      0.734740   234A      0.737770  
     235A      0.741110   236A      0.744698   237A      0.757311  
     238A      0.758460   239A      0.762886   240A      0.769338  
     241A      0.775225   242A      0.778219   243A      0.779917  
     244A      0.785167   245A      0.789172   246A      0.794654  
     247A      0.796314   248A      0.804017   249A      0.806342  
     250A      0.811239   251A      0.814735   252A      0.817951  
     253A      0.827538   254A      0.829077   255A      0.836966  
     256A      0.845321   257A      0.849237   258A      0.856548  
     259A      0.858477   260A      0.861970   261A      0.867762  
     262A      0.869370   263A      0.873506   264A      0.878503  
     265A      0.879948   266A      0.882073   267A      0.884972  
     268A      0.891735   269A      0.898122   270A      0.904491  
     271A      0.907363   272A      0.919215   273A      0.923236  
     274A      0.926531   275A      0.928771   276A      0.935191  
     277A      0.938217   278A      0.941964   279A      0.947117  
     280A      0.954942   281A      0.956247   282A      0.959216  
     283A      0.965380   284A      0.967891   285A      0.970456  
     286A      0.975318   287A      0.978692   288A      0.985234  
     289A      0.987562   290A      0.990934   291A      0.995253  
     292A      1.000202   293A      1.006480   294A      1.009863  
     295A      1.015967   296A      1.018473   297A      1.021377  
     298A      1.029353   299A      1.031957   300A      1.036229  
     301A      1.042886   302A      1.050367   303A      1.056221  
     304A      1.062630   305A      1.063484   306A      1.068865  
     307A      1.070928   308A      1.073809   309A      1.081154  
     310A      1.085732   311A      1.089622   312A      1.098392  
     313A      1.099695   314A      1.104227   315A      1.106500  
     316A      1.112993   317A      1.124225   318A      1.126609  
     319A      1.132036   320A      1.139899   321A      1.142244  
     322A      1.151805   323A      1.156270   324A      1.162030  
     325A      1.162376   326A      1.164143   327A      1.175113  
     328A      1.180102   329A      1.183214   330A      1.200935  
     331A      1.204838   332A      1.222947   333A      1.224638  
     334A      1.230041   335A      1.234362   336A      1.237815  
     337A      1.245599   338A      1.256984   339A      1.260364  
     340A      1.269797   341A      1.274739   342A      1.282847  
     343A      1.287029   344A      1.297938   345A      1.303152  
     346A      1.309737   347A      1.317907   348A      1.323646  
     349A      1.324860   350A      1.332463   351A      1.342838  
     352A      1.348588   353A      1.358753   354A      1.363071  
     355A      1.367288   356A      1.376347   357A      1.385065  
     358A      1.391245   359A      1.394282   360A      1.400506  
     361A      1.405620   362A      1.412161   363A      1.421390  
     364A      1.424667   365A      1.428948   366A      1.442463  
     367A      1.447997   368A      1.455597   369A      1.460717  
     370A      1.473720   371A      1.477278   372A      1.483209  
     373A      1.492491   374A      1.499895   375A      1.514101  
     376A      1.530471   377A      1.534550   378A      1.535929  
     379A      1.543139   380A      1.548703   381A      1.555766  
     382A      1.563546   383A      1.565633   384A      1.576303  
     385A      1.585117   386A      1.591618   387A      1.603898  
     388A      1.608941   389A      1.629906   390A      1.634331  
     391A      1.641913   392A      1.652618   393A      1.655176  
     394A      1.663311   395A      1.671750   396A      1.676935  
     397A      1.691161   398A      1.696255   399A      1.700755  
     400A      1.705426   401A      1.708527   402A      1.715899  
     403A      1.724592   404A      1.733153   405A      1.734712  
     406A      1.750500   407A      1.755938   408A      1.758143  
     409A      1.764626   410A      1.781368   411A      1.787288  
     412A      1.797215   413A      1.808702   414A      1.814217  
     415A      1.822284   416A      1.823826   417A      1.831416  
     418A      1.841624   419A      1.852845   420A      1.858785  
     421A      1.860670   422A      1.872050   423A      1.880416  
     424A      1.884439   425A      1.897890   426A      1.904022  
     427A      1.908786   428A      1.915225   429A      1.918836  
     430A      1.922547   431A      1.929882   432A      1.944350  
     433A      1.946971   434A      1.948494   435A      1.951474  
     436A      1.958281   437A      1.968804   438A      1.986069  
     439A      1.991208   440A      1.997210   441A      2.000595  
     442A      2.012733   443A      2.017328   444A      2.031168  
     445A      2.035343   446A      2.043818   447A      2.055917  
     448A      2.062342   449A      2.073902   450A      2.077020  
     451A      2.083049   452A      2.092082   453A      2.100283  
     454A      2.112608   455A      2.120357   456A      2.141833  
     457A      2.155343   458A      2.166521   459A      2.190938  
     460A      2.199728   461A      2.203408   462A      2.208538  
     463A      2.215427   464A      2.216891   465A      2.230624  
     466A      2.237363   467A      2.245293   468A      2.255278  
     469A      2.262079   470A      2.279783   471A      2.286952  
     472A      2.292343   473A      2.296982   474A      2.308080  
     475A      2.322041   476A      2.335681   477A      2.346724  
     478A      2.355082   479A      2.367909   480A      2.379119  
     481A      2.393289   482A      2.402425   483A      2.406726  
     484A      2.414826   485A      2.423130   486A      2.427267  
     487A      2.437810   488A      2.446142   489A      2.451887  
     490A      2.474214   491A      2.491476   492A      2.498188  
     493A      2.515997   494A      2.524569   495A      2.546078  
     496A      2.558385   497A      2.565738   498A      2.572720  
     499A      2.595211   500A      2.600969   501A      2.627499  
     502A      2.639390   503A      2.658253   504A      2.675629  
     505A      2.693384   506A      2.714270   507A      2.722849  
     508A      2.737616   509A      2.760448   510A      2.775250  
     511A      2.776973   512A      2.784859   513A      2.822662  
     514A      2.837460   515A      2.851497   516A      2.881567  
     517A      2.891358   518A      2.947996   519A      2.952631  
     520A      2.968880   521A      2.978165   522A      2.996943  
     523A      3.002355   524A      3.013771   525A      3.037460  
     526A      3.066132   527A      3.070643   528A      3.084889  
     529A      3.094391   530A      3.117271   531A      3.140691  
     532A      3.161462   533A      3.164566   534A      3.172683  
     535A      3.183833   536A      3.194020   537A      3.208804  
     538A      3.214575   539A      3.229423   540A      3.237033  
     541A      3.244763   542A      3.257225   543A      3.260234  
     544A      3.272194   545A      3.276056   546A      3.286749  
     547A      3.299226   548A      3.310774   549A      3.326975  
     550A      3.336446   551A      3.352499   552A      3.356666  
     553A      3.372105   554A      3.383492   555A      3.385535  
     556A      3.395481   557A      3.397877   558A      3.404669  
     559A      3.412316   560A      3.415701   561A      3.418787  
     562A      3.433025   563A      3.442306   564A      3.449446  
     565A      3.462961   566A      3.469921   567A      3.473040  
     568A      3.488067   569A      3.505153   570A      3.511177  
     571A      3.515944   572A      3.538568   573A      3.548913  
     574A      3.550916   575A      3.564914   576A      3.570668  
     577A      3.573452   578A      3.597276   579A      3.602495  
     580A      3.615678   581A      3.626299   582A      3.627100  
     583A      3.634110   584A      3.651332   585A      3.658390  
     586A      3.661497   587A      3.665765   588A      3.690739  
     589A      3.700169   590A      3.709457   591A      3.714014  
     592A      3.721353   593A      3.735837   594A      3.741415  
     595A      3.755891   596A      3.759619   597A      3.765431  
     598A      3.771713   599A      3.782001   600A      3.787402  
     601A      3.794805   602A      3.796789   603A      3.814481  
     604A      3.824395   605A      3.837710   606A      3.844110  
     607A      3.851972   608A      3.862386   609A      3.870698  
     610A      3.876589   611A      3.878011   612A      3.881547  
     613A      3.887343   614A      3.894770   615A      3.905854  
     616A      3.917344   617A      3.944156   618A      3.945423  
     619A      3.957413   620A      3.961709   621A      3.981627  
     622A      3.987810   623A      3.990875   624A      4.006287  
     625A      4.018119   626A      4.026425   627A      4.030940  
     628A      4.043656   629A      4.055981   630A      4.061752  
     631A      4.063684   632A      4.079649   633A      4.081835  
     634A      4.089575   635A      4.100875   636A      4.110351  
     637A      4.112767   638A      4.113015   639A      4.135226  
     640A      4.142131   641A      4.153815   642A      4.162232  
     643A      4.176464   644A      4.182260   645A      4.190058  
     646A      4.201537   647A      4.211800   648A      4.216484  
     649A      4.221549   650A      4.225003   651A      4.234844  
     652A      4.246851   653A      4.249455   654A      4.264847  
     655A      4.276020   656A      4.278523   657A      4.285416  
     658A      4.294476   659A      4.299961   660A      4.304532  
     661A      4.311911   662A      4.323590   663A      4.332215  
     664A      4.342662   665A      4.345460   666A      4.365307  
     667A      4.369529   668A      4.372821   669A      4.382496  
     670A      4.398546   671A      4.401955   672A      4.410423  
     673A      4.416571   674A      4.430301   675A      4.449542  
     676A      4.455973   677A      4.463782   678A      4.492175  
     679A      4.502069   680A      4.507637   681A      4.542520  
     682A      4.555986   683A      4.560998   684A      4.574742  
     685A      4.582012   686A      4.602306   687A      4.611929  
     688A      4.613797   689A      4.648028   690A      4.652563  
     691A      4.661261   692A      4.665657   693A      4.672475  
     694A      4.684801   695A      4.718137   696A      4.727465  
     697A      4.744123   698A      4.752487   699A      4.761449  
     700A      4.765395   701A      4.775467   702A      4.801338  
     703A      4.815854   704A      4.826365   705A      4.829991  
     706A      4.835153   707A      4.853481   708A      4.877136  
     709A      4.885866   710A      4.896288   711A      4.903155  
     712A      4.916902   713A      4.938410   714A      4.944834  
     715A      4.952757   716A      4.961868   717A      4.973397  
     718A      4.978402   719A      4.993480   720A      5.002637  
     721A      5.006094   722A      5.015913   723A      5.019252  
     724A      5.042305   725A      5.048280   726A      5.055060  
     727A      5.082010   728A      5.100050   729A      5.117175  
     730A      5.139979   731A      5.146013   732A      5.167738  
     733A      5.178793   734A      5.184895   735A      5.198838  
     736A      5.209302   737A      5.212105   738A      5.226216  
     739A      5.261328   740A      5.272464   741A      5.285040  
     742A      5.302567   743A      5.307266   744A      5.310364  
     745A      5.337671   746A      5.358270   747A      5.383610  
     748A      5.390469   749A      5.415229   750A      5.429820  
     751A      5.443270   752A      5.452848   753A      5.510340  
     754A      5.526242   755A      5.554234   756A      5.563356  
     757A      5.578289   758A      5.588933   759A      5.607849  
     760A      5.616793   761A      5.630778   762A      5.663874  
     763A      5.695913   764A      5.701010   765A      5.723652  
     766A      5.735904   767A      5.780269   768A      5.808876  
     769A      5.843428   770A      5.863337   771A      5.940122  
     772A      5.954546   773A      5.990474   774A      5.995700  
     775A      6.029832   776A      6.047218   777A      6.091550  
     778A      6.126554   779A      6.191214   780A      6.215717  
     781A      6.259232   782A      6.291250   783A      6.309972  
     784A      6.350802   785A      6.373639   786A      6.398361  
     787A      6.417853   788A      6.484942   789A      6.491272  
     790A      6.549029   791A      6.579770   792A      6.640812  
     793A      6.672714   794A      6.752321   795A      6.792312  
     796A      6.794439   797A      6.803981   798A      6.831931  
     799A      6.844828   800A      6.902105   801A      6.950148  
     802A      6.972177   803A      6.985654   804A      7.111985  
     805A      7.159934   806A      7.322081   807A      7.333276  
     808A      7.468346   809A      7.545939   810A      7.584911  
     811A      7.610225   812A      7.654921   813A      7.911956  
     814A      8.289076   815A      8.538327   816A     16.024370  
     817A     16.282676   818A     16.605364   819A     16.668693  
     820A     16.977839   821A     18.799264   822A     19.121674  
     823A     19.385303   824A     19.762997   825A     19.969051  
     826A     20.014155   827A     20.541462   828A     21.795035  

    Final Occupation by Irrep:
              A 
    DOCC [    45 ]

  Energy converged.

  @DF-RHF Final Energy:  -551.67599667944853

   => Energetics <=

    Nuclear Repulsion Energy =            713.2531022977550492
    One-Electron Energy =               -2149.4376793574456315
    Two-Electron Energy =                 884.5085803802420514
    DFT Exchange-Correlation Energy =       0.0000000000000000
    Empirical Dispersion Energy =           0.0000000000000000
    PCM Polarization Energy =               0.0000000000000000
    EFP Energy =                            0.0000000000000000
    Total Energy =                       -551.6759966794485308



Properties will be evaluated at   0.000000,   0.000000,   0.000000 Bohr

Properties computed using the SCF density matrix

  Nuclear Dipole Moment: (a.u.)
     X:     2.2928      Y:    -1.1889      Z:    -2.3413

  Electronic Dipole Moment: (a.u.)
     X:     0.5150      Y:    -0.2858      Z:    -0.0145

  Dipole Moment: (a.u.)
     X:     2.8078      Y:    -1.4747      Z:    -2.3558     Total:     3.9507

  Dipole Moment: (Debye)
     X:     7.1367      Y:    -3.7483      Z:    -5.9878     Total:    10.0417


*** tstop() called on gpu-2-12.local at Sun Nov 12 08:38:20 2017
Module time:
	user time   =    1096.33 seconds =      18.27 minutes
	system time =      49.87 seconds =       0.83 minutes
	total time  =        441 seconds =       7.35 minutes
Total time:
	user time   =    1096.34 seconds =      18.27 minutes
	system time =      49.87 seconds =       0.83 minutes
	total time  =        441 seconds =       7.35 minutes

  //>>>>>>>>>>>>>>>>>>>>>>>>>>>>>>>>>>>//
  //               DFMP2               //
  //<<<<<<<<<<<<<<<<<<<<<<<<<<<<<<<<<<<//

   => Loading Basis Set <=

    Name: (AUG-CC-PVTZ AUX)
    Role: RIFIT
    Keyword: DF_BASIS_MP2
    atoms 1-11  entry C          line   147 file /cbio/jclab/home/chayas/anaconda/envs/py35/share/psi4/basis/aug-cc-pvtz-ri.gbs 
    atoms 12    entry N          line   205 file /cbio/jclab/home/chayas/anaconda/envs/py35/share/psi4/basis/aug-cc-pvtz-ri.gbs 
    atoms 13    entry O          line   263 file /cbio/jclab/home/chayas/anaconda/envs/py35/share/psi4/basis/aug-cc-pvtz-ri.gbs 
    atoms 14-23 entry H          line    29 file /cbio/jclab/home/chayas/anaconda/envs/py35/share/psi4/basis/aug-cc-pvtz-ri.gbs 

	 --------------------------------------------------------
	                          DF-MP2                         
	      2nd-Order Density-Fitted Moller-Plesset Theory     
	              RMP2 Wavefunction,   8 Threads             
	                                                         
	        Rob Parrish, Justin Turney, Andy Simmonett,      
	           Ed Hohenstein, and C. David Sherrill          
	 --------------------------------------------------------

   => Auxiliary Basis Set <=

  Basis Set: (AUG-CC-PVTZ AUX)
    Blend: AUG-CC-PVTZ-RI
    Number of shells: 504
    Number of basis function: 1838
    Number of Cartesian functions: 2318
    Spherical Harmonics?: true
    Max angular momentum: 4

	 --------------------------------------------------------
	                 NBF =   828, NAUX =  1838
	 --------------------------------------------------------
	   CLASS    FOCC     OCC    AOCC    AVIR     VIR    FVIR
	   PAIRS       0      45      45     783     783       0
	 --------------------------------------------------------


         ------------------------------------------------------------
                                     CPHF                           
                                  Rob Parrish                       
         ------------------------------------------------------------

  ==> Geometry <==

    Molecular point group: c1
    Full point group: C1

    Geometry (in Angstrom), charge = 1, multiplicity = 1:

       Center              X                  Y                   Z               Mass       
    ------------   -----------------  -----------------  -----------------  -----------------
           C         -1.267139872329     0.717449074289    -0.569724606474    12.000000000000
           C         -0.274139872329     0.101449074289     1.544275393526    12.000000000000
           C         -2.345139872329     1.290449074289     0.103275393526    12.000000000000
           C         -1.352139872329     0.674449074289     2.218275393526    12.000000000000
           C          1.287860127671     0.034449074289    -1.779724606474    12.000000000000
           C          1.563860127671    -1.551550925711     0.011275393526    12.000000000000
           C          2.363860127671    -0.555550925711    -2.427724606474    12.000000000000
           C          2.633860127671    -2.101550925711    -0.681724606474    12.000000000000
           C         -0.231139872329     0.122449074289     0.150275393526    12.000000000000
           C          0.887860127671    -0.471550925711    -0.547724606474    12.000000000000
           C         -2.388139872329     1.269449074289     1.497275393526    12.000000000000
           N          2.997860127671    -1.594550925711    -1.866724606474    14.003074004780
           O         -3.440139872329     1.829449074289     2.154275393526    15.994914619560
           H         -1.248139872329     0.741449074289    -1.656724606474     1.007825032070
           H          0.525860127671    -0.358550925711     2.120275393526     1.007825032070
           H         -3.149139872329     1.752449074289    -0.463724606474     1.007825032070
           H         -1.380139872329     0.655449074289     3.304275393526     1.007825032070
           H          0.778860127671     0.876449074289    -2.239724606474     1.007825032070
           H          1.272860127671    -1.967550925711     0.971275393526     1.007825032070
           H          2.744860127671    -0.228550925711    -3.385724606474     1.007825032070
           H          3.215860127671    -2.939550925711    -0.323724606474     1.007825032070
           H          3.785860127671    -2.013550925711    -2.359724606474     1.007825032070
           H         -4.074139872329     2.199449074289     1.519275393526     1.007825032070

  Nuclear repulsion =  713.253102297755049
  Reference energy  = -551.675996679448531

  ==> Basis Set <==

  Basis Set: AUG-CC-PVTZ
    Blend: AUG-CC-PVTZ
    Number of shells: 272
    Number of basis function: 828
    Number of Cartesian functions: 965
    Spherical Harmonics?: true
    Max angular momentum: 3

  ==> CGRSolver (by Rob Parrish) <==

   Number of roots    =         1
   Preconditioning    =    JACOBI
   Convergence cutoff =     1E-06
   Maximum iterations =       100

  ==> CPHFRHamiltonian (by Rob Parrish) <== 

  ==> DFJK: Density-Fitted J/K Matrices <==

    J tasked:                  Yes
    K tasked:                  Yes
    wK tasked:                  No
    OpenMP threads:              8
    Integrals threads:           8
    Memory (MB):              3576
    Algorithm:                Disk
    Integral Cache:           NONE
    Schwarz Cutoff:          1E-12
    Fitting Condition:       1E-12

   => Auxiliary Basis Set <=

  Basis Set: (AUG-CC-PVTZ AUX)
    Blend: AUG-CC-PVTZ-JKFIT
    Number of shells: 530
    Number of basis function: 1812
    Number of Cartesian functions: 2253
    Spherical Harmonics?: true
    Max angular momentum: 4

  ==> CPHF Iterations <==

  => Iterations <=

             Iter  Converged  Remaining    Residual
  CGR           1          0          1   1.126E-01
  CGR           2          0          1   5.128E-02
  CGR           3          0          1   2.985E-02
  CGR           4          0          1   9.621E-03
  CGR           5          0          1   4.507E-03
  CGR           6          0          1   2.253E-03
  CGR           7          0          1   6.939E-04
  CGR           8          0          1   2.798E-04
  CGR           9          0          1   1.341E-04
  CGR          10          0          1   4.572E-05
  CGR          11          0          1   1.479E-05
  CGR          12          0          1   5.468E-06
  CGR          13          0          1   1.708E-06
  CGR          14          1          0   5.448E-07

    CGRSolver converged.

  ==> DFCorrGrad: Density-Fitted Correlated Gradients <==

    OpenMP threads:              8
    Integrals threads:           8
    Memory (MB):              3576
    Schwarz Cutoff:          0E+00
    Fitting Condition:       1E-12

   => Auxiliary Basis Set <=

  Basis Set: (AUG-CC-PVTZ AUX)
    Blend: AUG-CC-PVTZ-JKFIT
    Number of shells: 530
    Number of basis function: 1812
    Number of Cartesian functions: 2253
    Spherical Harmonics?: true
    Max angular momentum: 4

	-----------------------------------------------------------
	 ==================> DF-MP2 Energies <==================== 
	-----------------------------------------------------------
	 Reference Energy          =    -551.6759966794485308 [Eh]
	 Singles Energy            =      -0.0000000000000001 [Eh]
	 Same-Spin Energy          =      -0.5966861281539493 [Eh]
	 Opposite-Spin Energy      =      -1.8256553167229628 [Eh]
	 Correlation Energy        =      -2.4223414448769121 [Eh]
	 Total Energy              =    -554.0983381243254371 [Eh]
	-----------------------------------------------------------
	 ================> DF-SCS-MP2 Energies <================== 
	-----------------------------------------------------------
	 SCS Same-Spin Scale       =       0.3333333333333333 [-]
	 SCS Opposite-Spin Scale   =       1.2000000000000000 [-]
	 SCS Same-Spin Energy      =      -0.1988953760513164 [Eh]
	 SCS Opposite-Spin Energy  =      -2.1907863800675553 [Eh]
	 SCS Correlation Energy    =      -2.3896817561188719 [Eh]
	 SCS Total Energy          =    -554.0656784355674063 [Eh]
	-----------------------------------------------------------


  -Total Gradient:
     Atom            X                  Y                   Z
    ------   -----------------  -----------------  -----------------
       1        0.009297930258    -0.009919397909    -0.003702485278
       2        0.013215061214    -0.002338323314    -0.007718733962
       3       -0.010374223956     0.005659893963     0.008897972772
       4       -0.005861859189     0.003348491687    -0.003125809366
       5       -0.015624466173     0.009194884159     0.013843421524
       6       -0.019351633611     0.008648926477     0.008298684061
       7        0.008648533272    -0.010386758542     0.004707408692
       8        0.005648508954     0.003218546737    -0.013978235458
       9       -0.003003891502     0.001541015735     0.002049637538
      10        0.015017338524    -0.007332188584    -0.009164807956
      11        0.012276063278    -0.007036061947     0.004148264125
      12       -0.001884461727     0.000568016772     0.001532517668
      13       -0.009547563704     0.005249282330     0.000748625749
      14        0.001545790437     0.001571752062    -0.005800425810
      15        0.004238982161    -0.004642000248     0.002445173909
      16       -0.002932051286     0.002281451686    -0.002880029876
      17        0.001679972152    -0.001721205753     0.005530798124
      18       -0.005114124672     0.004334250944    -0.002930104176
      19       -0.001584596610    -0.000703042854     0.007011039167
      20        0.001871693201    -0.000458216975    -0.002589082307
      21        0.002417581813    -0.001666248763    -0.000100227741
      22        0.005135939562    -0.002749371523    -0.003260881287
      23       -0.005714522396     0.003336303870    -0.003962720109


*** tstop() called on gpu-2-12.local at Sun Nov 12 09:13:12 2017
Module time:
	user time   =    5358.26 seconds =      89.30 minutes
	system time =     109.53 seconds =       1.83 minutes
	total time  =       2533 seconds =      42.22 minutes
Total time:
	user time   =    5358.27 seconds =      89.30 minutes
	system time =     109.53 seconds =       1.83 minutes
	total time  =       2533 seconds =      42.22 minutes

			-----------------------------------------
			 OPTKING 2.0: for geometry optimizations 
			  - R.A. King,  Bethel University        
			-----------------------------------------

	Internal coordinates to be generated automatically.
	Detected frag 1 with atoms:  1 2 3 4 5 6 7 8 9 10 11 12 13 14 15 16 17 18 19 20
	 21 22 23
	---Fragment 1 Bond Connectivity---
	 1 : 3 9 14
	 2 : 4 9 15
	 3 : 1 11 16
	 4 : 2 11 17
	 5 : 7 10 18
	 6 : 8 10 19
	 7 : 5 12 20
	 8 : 6 12 21
	 9 : 1 2 10
	 10 : 5 6 9
	 11 : 3 4 13
	 12 : 7 8 22
	 13 : 11 23
	 14 : 1
	 15 : 2
	 16 : 3
	 17 : 4
	 18 : 5
	 19 : 6
	 20 : 7
	 21 : 8
	 22 : 12
	 23 : 13

	Assuming in current code that numbering for constraints corresponds to unified fragment.
	Fixed dihedral atom list: 
	     3    11    13    23
	---Fragment 1 Geometry and Gradient---
	 C          -2.3945473308        1.3557822647       -1.0766234774
	 C          -0.5180492808        0.1917109668        2.9182575675
	 C          -4.4316721020        2.4385953388        0.1951622100
	 C          -2.5551740521        1.2745240410        4.1919329811
	 C           2.4337029388        0.0650993159       -3.3631920982
	 C           2.9552673514       -2.9320063308        0.0213074058
	 C           4.4670482577       -1.0498391025       -4.5877346323
	 C           4.9772743136       -3.9713557039       -1.2882728043
	 C          -0.4367910571        0.2313952156        0.2839793383
	 C           1.6778124856       -0.8911021073       -1.0350495025
	 C          -4.5129303257        2.3989110901        2.8294404393
	 N           5.6651346260       -3.0132645545       -3.5275982718
	 O          -6.5009222175        3.4571577245        4.0709905086
	 H          -2.3586425342        1.4011356919       -3.1307557838
	 H           0.9937316255       -0.6775630543        4.0067398201
	 H          -5.9510119129        3.3116488122       -0.8763125073
	 H          -2.6080863838        1.2386192445        6.2441755614
	 H           1.4718323371        1.6562487198       -4.2324661193
	 H           2.4053570468       -3.7181324021        1.8354444934
	 H           5.1870339144       -0.4318986570       -6.3980922676
	 H           6.0770949230       -5.5549462033       -0.6117508487
	 H           7.1542388187       -3.8050598042       -4.4592332553
	 H          -7.6990085858        4.1563563936        2.8710144142
	             0.0092979303       -0.0099193979       -0.0037024853
	             0.0132150612       -0.0023383233       -0.0077187340
	            -0.0103742240        0.0056598940        0.0088979728
	            -0.0058618592        0.0033484917       -0.0031258094
	            -0.0156244662        0.0091948842        0.0138434215
	            -0.0193516336        0.0086489265        0.0082986841
	             0.0086485333       -0.0103867585        0.0047074087
	             0.0056485090        0.0032185467       -0.0139782355
	            -0.0030038915        0.0015410157        0.0020496375
	             0.0150173385       -0.0073321886       -0.0091648080
	             0.0122760633       -0.0070360619        0.0041482641
	            -0.0018844617        0.0005680168        0.0015325177
	            -0.0095475637        0.0052492823        0.0007486257
	             0.0015457904        0.0015717521       -0.0058004258
	             0.0042389822       -0.0046420002        0.0024451739
	            -0.0029320513        0.0022814517       -0.0028800299
	             0.0016799722       -0.0017212058        0.0055307981
	            -0.0051141247        0.0043342509       -0.0029301042
	            -0.0015845966       -0.0007030429        0.0070110392
	             0.0018716932       -0.0004582170       -0.0025890823
	             0.0024175818       -0.0016662488       -0.0001002277
	             0.0051359396       -0.0027493715       -0.0032608813
	            -0.0057145224        0.0033363039       -0.0039627201

	Previous optimization step data not found.  Starting new optimization.

	---Fragment 1 Intrafragment Coordinates---
	 - Coordinate -           - BOHR/RAD -       - ANG/DEG -
	 R(1,3)           =         2.634350	       1.394038
	 R(1,9)           =         2.635962	       1.394891
	 R(1,14)          =         2.054947	       1.087431
	 R(2,4)           =         2.635263	       1.394521
	 R(2,9)           =         2.635830	       1.394821
	 R(2,15)          =         2.055702	       1.087831
	 R(3,11)          =         2.635830	       1.394821
	 R(3,16)          =         2.053941	       1.086899
	 R(4,11)          =         2.636938	       1.395407
	 R(4,17)          =         2.053239	       1.086527
	 R(5,7)           =         2.622420	       1.387725
	 R(5,10)          =         2.627915	       1.390633
	 R(5,18)          =         2.052459	       1.086115
	 R(6,8)           =         2.623692	       1.388398
	 R(6,10)          =         2.629272	       1.391351
	 R(6,19)          =         2.052191	       1.085973
	 R(7,12)          =         2.532655	       1.340223
	 R(7,20)          =         2.043924	       1.081598
	 R(8,12)          =         2.530942	       1.339317
	 R(8,21)          =         2.043293	       1.081264
	 R(9,10)          =         2.733384	       1.446444
	 R(11,13)         =         2.571662	       1.360865
	 R(12,22)         =         1.926737	       1.019585
	 R(13,23)         =         1.834184	       0.970609
	 B(1,3,11)        =         2.094553	     120.009056
	 B(1,3,16)        =         2.088505	     119.662516
	 B(1,9,2)         =         2.093692	     119.959722
	 B(1,9,10)        =         2.095161	     120.043881
	 B(2,4,11)        =         2.093699	     119.960108
	 B(2,4,17)        =         2.089577	     119.723926
	 B(2,9,10)        =         2.094332	     119.996376
	 B(3,1,9)         =         2.094940	     120.031219
	 B(3,1,14)        =         2.079469	     119.144799
	 B(3,11,4)        =         2.094306	     119.994870
	 B(3,11,13)       =         2.094549	     120.008801
	 B(4,2,9)         =         2.095181	     120.045019
	 B(4,2,15)        =         2.078675	     119.099297
	 B(4,11,13)       =         2.094331	     119.996326
	 B(5,7,12)        =         2.095473	     120.061759
	 B(5,7,20)        =         2.162990	     123.930212
	 B(5,10,6)        =         2.092808	     119.909049
	 B(5,10,9)        =         2.095104	     120.040644
	 B(6,8,12)        =         2.095689	     120.074121
	 B(6,8,21)        =         2.161055	     123.819347
	 B(6,10,9)        =         2.095271	     120.050189
	 B(7,5,10)        =         2.073747	     118.816947
	 B(7,5,18)        =         2.088865	     119.683141
	 B(7,12,8)        =         2.135611	     122.361511
	 B(7,12,22)       =         2.073499	     118.802740
	 B(8,6,10)        =         2.073041	     118.776513
	 B(8,6,19)        =         2.089782	     119.735704
	 B(8,12,22)       =         2.074075	     118.835741
	 B(9,1,14)        =         2.108776	     120.823969
	 B(9,2,15)        =         2.109330	     120.855683
	 B(10,5,18)       =         2.120573	     121.499869
	 B(10,6,19)       =         2.120361	     121.487761
	 B(11,3,16)       =         2.100127	     120.328425
	 B(11,4,17)       =         2.099910	     120.315955
	 B(11,13,23)      =         1.924063	     110.240679
	 B(12,7,20)       =         2.024722	     116.007998
	 B(12,8,21)       =         2.026441	     116.106509
	 D(1,3,11,4)      =        -0.000325	      -0.018609
	 D(1,3,11,13)     =         3.140978	     179.964785
	 D(1,9,2,4)       =         0.000325	       0.018608
	 D(1,9,2,15)      =        -3.141497	    -179.994534
	 D(1,9,10,5)      =         0.522161	      29.917626
	 D(1,9,10,6)      =        -2.617252	    -149.957477
	 D(2,4,11,3)      =         0.000301	       0.017261
	 D(2,4,11,13)     =        -3.141002	    -179.966135
	 D(2,9,1,3)       =        -0.000348	      -0.019945
	 D(2,9,1,14)      =        -3.141221	    -179.978731
	 D(2,9,10,5)      =        -2.618515	    -150.029870
	 D(2,9,10,6)      =         0.525257	      30.095026
	 D(3,1,9,10)      =        -3.141025	    -179.967461
	 D(3,11,4,17)     =         3.141223	     179.978848
	 D(3,11,13,23)    =         0.000564	       0.032328
	 D(4,2,9,10)      =         3.141002	     179.966149
	 D(4,11,3,16)     =         3.141593	     180.000000
	 D(4,11,13,23)    =        -3.141318	    -179.984278
	 D(5,7,12,8)      =        -0.000900	      -0.051587
	 D(5,7,12,22)     =         3.141281	     179.982140
	 D(5,10,6,8)      =         0.001757	       0.100696
	 D(5,10,6,19)     =        -3.140779	    -179.953357
	 D(6,8,12,7)      =         0.001479	       0.084766
	 D(6,8,12,22)     =        -3.140702	    -179.948971
	 D(6,10,5,7)      =        -0.001201	      -0.068795
	 D(6,10,5,18)     =        -3.141485	    -179.993816
	 D(7,5,10,9)      =        -3.140617	    -179.944076
	 D(7,12,8,21)     =        -3.141052	    -179.969035
	 D(8,6,10,9)      =         3.141173	     179.975965
	 D(8,12,7,20)     =         3.139609	     179.886353
	 D(9,1,3,11)      =         0.000348	       0.019955
	 D(9,1,3,16)      =        -3.141571	    -179.998735
	 D(9,2,4,11)      =        -0.000301	      -0.017270
	 D(9,2,4,17)      =        -3.141228	    -179.979086
	 D(9,10,5,18)     =         0.002285	       0.130903
	 D(9,10,6,19)     =        -0.001363	      -0.078088
	 D(10,5,7,12)     =         0.000747	       0.042772
	 D(10,5,7,20)     =        -3.139673	    -179.890006
	 D(10,6,8,12)     =        -0.001882	      -0.107847
	 D(10,6,8,21)     =         3.140725	     179.950304
	 D(10,9,1,14)     =         0.001287	       0.073752
	 D(10,9,2,15)     =        -0.000820	      -0.046992
	 D(11,3,1,14)     =         3.141234	     179.979432
	 D(11,4,2,15)     =         3.141517	     179.995641
	 D(12,7,5,18)     =         3.141055	     179.969186
	 D(12,8,6,19)     =         3.140637	     179.945236
	 D(13,11,3,16)    =        -0.000286	      -0.016400
	 D(13,11,4,17)    =        -0.000079	      -0.004548
	 D(14,1,3,16)     =        -0.000685	      -0.039257
	 D(15,2,4,17)     =         0.000590	       0.033826
	 D(18,5,7,20)     =         0.000635	       0.036408
	 D(19,6,8,21)     =         0.000059	       0.003387
	 D(20,7,12,22)    =        -0.001395	      -0.079920
	 D(21,8,12,22)    =        -0.000048	      -0.002772

	Current energy   :      -554.0983381243

	Generating empirical Hessian (Schlegel '84) for each fragment.
	Adding user-defined constraint: Fragment 1; Coordinate 76:
		Value =     0.000564; Fixed value    =     0.000017
		Force =    -0.000273; Force constant =     0.500000
	Removing off-diagonal coupling between coordinate 76 and others.
	Taking RFO optimization step.
	Going to follow RFO solution 1.
	Using RFO vector 1.

	Determining step-restricting scale parameter for RS-RFO.
	Maximum step size allowed    0.10000

	 Iter      |step|        alpha        rfo_root  
	------------------------------------------------
	    0     0.21336       1.00000           1
	    1     0.15999       4.43557           1
	    2     0.12845      12.26719           1
	    3     0.10899      24.35754           1
	    4     0.10122      32.16474           1
	    5     0.10003      33.57819           1
	    6     0.10000      33.61097           1
	------------------------------------------------
	Norm of target step-size    0.10000
	Projected energy change by RFO approximation:        -0.0048064600

	Back-transformation to cartesian coordinates...
	Could not converge backtransformation.
	Using first guess instead.

	--- Internal Coordinate Step in ANG or DEG, aJ/ANG or AJ/DEG ---
	 ---------------------------------------------------------------------------
	   Coordinate                Previous        Force       Change         New 
	   ----------                --------       ------       ------       ------
	    1 R(1,3)          =      1.394038    -0.099976    -0.010220     1.383818
	    2 R(1,9)          =      1.394891     0.011786     0.001402     1.396293
	    3 R(1,14)         =      1.087431    -0.048278    -0.006070     1.081361
	    4 R(2,4)          =      1.394521    -0.105311    -0.010926     1.383595
	    5 R(2,9)          =      1.394821     0.022676     0.002512     1.397333
	    6 R(2,15)         =      1.087831    -0.052522    -0.006584     1.081246
	    7 R(3,11)         =      1.394821    -0.004606    -0.000573     1.394248
	    8 R(3,16)         =      1.086899    -0.038237    -0.004812     1.082087
	    9 R(4,11)         =      1.395407    -0.059969    -0.006364     1.389043
	   10 R(4,17)         =      1.086527    -0.045436    -0.005680     1.080847
	   11 R(5,7)          =      1.387725    -0.115413    -0.011668     1.376057
	   12 R(5,10)         =      1.390633     0.072171     0.007632     1.398265
	   13 R(5,18)         =      1.086115    -0.057652    -0.007177     1.078937
	   14 R(6,8)          =      1.388398    -0.119058    -0.012032     1.376366
	   15 R(6,10)         =      1.391351     0.066964     0.006993     1.398344
	   16 R(6,19)         =      1.085973    -0.056779    -0.007106     1.078866
	   17 R(7,12)         =      1.340223     0.020684     0.001787     1.342010
	   18 R(7,20)         =      1.081598    -0.023184    -0.002875     1.078723
	   19 R(8,12)         =      1.339317     0.026043     0.002222     1.341539
	   20 R(8,21)         =      1.081264    -0.021087    -0.002584     1.078680
	   21 R(9,10)         =      1.446444     0.053146     0.006271     1.452715
	   22 R(11,13)        =      1.360865    -0.113525    -0.009981     1.350884
	   23 R(12,22)        =      1.019585    -0.055001    -0.005865     1.013720
	   24 R(13,23)        =      0.970609    -0.062591    -0.005558     0.965050
	   25 B(1,3,11)       =    120.009056     0.000048     0.078618   120.087675
	   26 B(1,3,16)       =    119.662516     0.000019     0.063763   119.726279
	   27 B(1,9,2)        =    119.959722    -0.000470    -0.831807   119.127915
	   28 B(1,9,10)       =    120.043881     0.000229     0.404763   120.448644
	   29 B(2,4,11)       =    119.960108    -0.000042    -0.138855   119.821253
	   30 B(2,4,17)       =    119.723926     0.000207     0.512594   120.236520
	   31 B(2,9,10)       =    119.996376     0.000241     0.427050   120.423426
	   32 B(3,1,9)        =    120.031219     0.000112     0.256042   120.287261
	   33 B(3,1,14)       =    119.144799    -0.000100    -0.235823   118.908977
	   34 B(3,11,4)       =    119.994870     0.000039     0.017306   120.012176
	   35 B(3,11,13)      =    120.008801     0.000991     1.870888   121.879689
	   36 B(4,2,9)        =    120.045019     0.000313     0.618247   120.663266
	   37 B(4,2,15)       =    119.099297    -0.000237    -0.504973   118.594324
	   38 B(4,11,13)      =    119.996326    -0.001030    -1.888192   118.108134
	   39 B(5,7,12)       =    120.061759    -0.000223    -0.477407   119.584351
	   40 B(5,7,20)       =    123.930212    -0.000009    -0.046342   123.883870
	   41 B(5,10,6)       =    119.909049    -0.000840    -1.537854   118.371195
	   42 B(5,10,9)       =    120.040644     0.000440     0.805127   120.845772
	   43 B(6,8,12)       =    120.074121    -0.000217    -0.473017   119.601104
	   44 B(6,8,21)       =    123.819347     0.000001    -0.017797   123.801550
	   45 B(6,10,9)       =    120.050189     0.000400     0.732772   120.782962
	   46 B(7,5,10)       =    118.816947     0.000528     1.044018   119.860965
	   47 B(7,5,18)       =    119.683141    -0.000352    -0.737646   118.945496
	   48 B(7,12,8)       =    122.361511     0.000216     0.382188   122.743699
	   49 B(7,12,22)      =    118.802740    -0.000106    -0.185857   118.616882
	   50 B(8,6,10)       =    118.776513     0.000537     1.062081   119.838593
	   51 B(8,6,19)       =    119.735704    -0.000360    -0.754843   118.980862
	   52 B(8,12,22)      =    118.835741    -0.000110    -0.196327   118.639414
	   53 B(9,1,14)       =    120.823969    -0.000012    -0.022040   120.801929
	   54 B(9,2,15)       =    120.855683    -0.000076    -0.114554   120.741129
	   55 B(10,5,18)      =    121.499869    -0.000177    -0.307279   121.192590
	   56 B(10,6,19)      =    121.487761    -0.000176    -0.307623   121.180138
	   57 B(11,3,16)      =    120.328425    -0.000067    -0.142380   120.186045
	   58 B(11,4,17)      =    120.315955    -0.000165    -0.373775   119.942180
	   59 B(11,13,23)     =    110.240679    -0.000186    -0.445995   109.794684
	   60 B(12,7,20)      =    116.007998     0.000232     0.523464   116.531461
	   61 B(12,8,21)      =    116.106509     0.000216     0.490564   116.597073
	   62 D(1,3,11,4)     =     -0.018609    -0.000006    -0.103877    -0.122486
	   63 D(1,3,11,13)    =    179.964785    -0.000004    -0.080459   179.884327
	   64 D(1,9,2,4)      =      0.018608    -0.000005    -0.086594    -0.067986
	   65 D(1,9,2,15)     =   -179.994534     0.000018     0.344057  -179.650476
	   66 D(1,9,10,5)     =     29.917626     0.000007     0.139262    30.056888
	   67 D(1,9,10,6)     =   -149.957477     0.000006     0.113397  -149.844080
	   68 D(2,4,11,3)     =      0.017261    -0.000005    -0.092191    -0.074930
	   69 D(2,4,11,13)    =   -179.966135    -0.000006    -0.115353  -180.081488
	   70 D(2,9,1,3)      =     -0.019945    -0.000006    -0.110505    -0.130450
	   71 D(2,9,1,14)     =   -179.978731     0.000019     0.346232  -179.632499
	   72 D(2,9,10,5)     =   -150.029870     0.000007     0.131264  -149.898607
	   73 D(2,9,10,6)     =     30.095026     0.000005     0.105399    30.200425
	   74 D(3,1,9,10)     =   -179.967461    -0.000006    -0.119056  -180.086517
	   75 D(3,11,4,17)    =    179.978848    -0.000007    -0.132409   179.846439
	   76 D(3,11,13,23)   =      0.032328    -0.000003    -0.021966     0.010362
	   77 D(4,2,9,10)     =    179.966149    -0.000004    -0.078056   179.888093
	   78 D(4,11,3,16)    =    180.000000    -0.000008    -0.138288   179.861712
	   79 D(4,11,13,23)   =   -179.984278    -0.000001     0.001328  -179.982950
	   80 D(5,7,12,8)     =     -0.051587     0.000001     0.019293    -0.032294
	   81 D(5,7,12,22)    =    179.982140     0.000001     0.013315   179.995454
	   82 D(5,10,6,8)     =      0.100696    -0.000000    -0.001979     0.098717
	   83 D(5,10,6,19)    =   -179.953357     0.000015     0.286659  -179.666698
	   84 D(6,8,12,7)     =      0.084766    -0.000000    -0.004005     0.080761
	   85 D(6,8,12,22)    =   -179.948971     0.000000     0.001978  -179.946994
	   86 D(6,10,5,7)     =     -0.068795     0.000001     0.017705    -0.051090
	   87 D(6,10,5,18)    =   -179.993816     0.000016     0.300941  -179.692875
	   88 D(7,5,10,9)     =   -179.944076    -0.000001    -0.010321  -179.954396
	   89 D(7,12,8,21)    =   -179.969035    -0.000007    -0.133293  -180.102328
	   90 D(8,6,10,9)     =    179.975965     0.000001     0.026122   180.002087
	   91 D(8,12,7,20)    =    179.886353    -0.000006    -0.115617   179.770736
	   92 D(9,1,3,11)     =      0.019955     0.000011     0.205491     0.225446
	   93 D(9,1,3,16)     =   -179.998735     0.000013     0.239910  -179.758825
	   94 D(9,2,4,11)     =     -0.017270     0.000010     0.187464     0.170194
	   95 D(9,2,4,17)     =   -179.979086     0.000012     0.228145  -179.750941
	   96 D(9,10,5,18)    =      0.130903     0.000015     0.272916     0.403818
	   97 D(9,10,6,19)    =     -0.078088     0.000017     0.314759     0.236671
	   98 D(10,5,7,12)    =      0.042772    -0.000001    -0.025274     0.017498
	   99 D(10,5,7,20)    =   -179.890006     0.000006     0.119782  -179.770224
	  100 D(10,6,8,12)    =     -0.107847    -0.000000    -0.005578    -0.113426
	  101 D(10,6,8,21)    =    179.950304     0.000007     0.133285   180.083589
	  102 D(10,9,1,14)    =      0.073752     0.000018     0.337681     0.411434
	  103 D(10,9,2,15)    =     -0.046992     0.000019     0.352595     0.305602
	  104 D(11,3,1,14)    =    179.979432    -0.000013    -0.242582   179.736850
	  105 D(11,4,2,15)    =    179.995641    -0.000013    -0.234139   179.761503
	  106 D(12,7,5,18)    =    179.969186    -0.000016    -0.301859   179.667327
	  107 D(12,8,6,19)    =    179.945236    -0.000015    -0.288088   179.657148
	  108 D(13,11,3,16)   =     -0.016400    -0.000006    -0.115076    -0.131476
	  109 D(13,11,4,17)   =     -0.004548    -0.000008    -0.155571    -0.160119
	  110 D(14,1,3,16)    =     -0.039257    -0.000011    -0.208163    -0.247420
	  111 D(15,2,4,17)    =      0.033826    -0.000011    -0.193457    -0.159632
	  112 D(18,5,7,20)    =      0.036408    -0.000009    -0.156803    -0.120395
	  113 D(19,6,8,21)    =      0.003387    -0.000008    -0.149224    -0.145837
	  114 D(20,7,12,22)   =     -0.079920    -0.000006    -0.121595    -0.201515
	  115 D(21,8,12,22)   =     -0.002772    -0.000007    -0.127310    -0.130082
	 ---------------------------------------------------------------------------
	Successfully symmetrized geometry.
	 Forces used to impose fixed constraints are not included.
	  Forces zeroed: 76 

  ==> Convergence Check <==

  Measures of convergence in internal coordinates in au.
  Criteria marked as inactive (o), active & met (*), and active & unmet ( ).
  --------------------------------------------------------------------------------------------- ~
   Step     Total Energy     Delta E     MAX Force     RMS Force      MAX Disp      RMS Disp    ~
  --------------------------------------------------------------------------------------------- ~
    Convergence Criteria    1.00e-06 *    3.00e-04 *             o    1.20e-03 *             o  ~
  --------------------------------------------------------------------------------------------- ~
      1    -554.09833812   -5.54e+02      1.45e-02      4.54e-03 o    3.30e-02      9.31e-03 o  ~
  ---------------------------------------------------------------------------------------------

	Writing optimization data to binary file.
	Structure for next step:
	Cartesian Geometry (in Angstrom)
	    C    -1.2794790021   0.7239040995  -0.5691960309
	    C    -0.2945404876   0.1136121493   1.5424478419
	    C    -2.3508269667   1.2905222934   0.0987174439
	    C    -1.3629422552   0.6832739670   2.2120289894
	    C     1.3069664016   0.0250592006  -1.7894699244
	    C     1.5740093729  -1.5563215456  -0.0015559799
	    C     2.3749327408  -0.5570173513  -2.4330283355
	    C     2.6376747726  -2.1073884567  -0.6792906055
	    C    -0.2392945373   0.1274562463   0.1462755520
	    C     0.8861576448  -0.4700720065  -0.5513627987
	    C    -2.3944132391   1.2726039462   1.4921690646
	    N     3.0039433356  -1.5974518589  -1.8648444373
	    O    -3.4212154564   1.8168465859   2.1809097342
	    H    -1.2672648787   0.7446760253  -1.6502883296
	    H     0.4993356376  -0.3362050567   2.1225505586
	    H    -3.1539143799   1.7468832350  -0.4649287654
	    H    -1.3966758490   0.6722180987   3.2922929173
	    H     0.8122429240   0.8643724830  -2.2530510211
	    H     1.2845260255  -1.9778401089   0.9484304160
	    H     2.7556629454  -0.2260179526  -3.3865101460
	    H     3.2115820558  -2.9453304484  -0.3159254951
	    H     3.7888582471  -2.0150932878  -2.3517871583
	    H    -4.0655421155   2.1896384518   1.5667505611
			--------------------------
			 OPTKING Finished Execution 
			--------------------------

    Structure for next step:
    Molecular point group: c1
    Full point group: C1

    Geometry (in Angstrom), charge = 1, multiplicity = 1:

    C           -1.280231309259     0.724218354304    -0.568444984960
    C           -0.295292794747     0.113926404176     1.543198887880
    C           -2.351579273810     1.290836548286     0.099468489871
    C           -1.363694562375     0.683588221847     2.212780035306
    C            1.306214094432     0.025373455457    -1.788718878438
    C            1.573257065747    -1.556007290739    -0.000804933975
    C            2.374180433649    -0.556703096433    -2.432277289577
    C            2.636922465423    -2.107074201855    -0.678539559590
    C           -0.240046844451     0.127770501177     0.147026597990
    C            0.885405337661    -0.469757751626    -0.550611752717
    C           -2.395165546220     1.272918201005     1.492920110533
    N            3.003191028405    -1.597137604069    -1.864093391361
    O           -3.421967763535     1.817160840725     2.181660780111
    H           -1.268017185858     0.744990280130    -1.649537283685
    H            0.498583330486    -0.335890801866     2.123301604508
    H           -3.154666687108     1.747197489876    -0.464177719432
    H           -1.397428156114     0.672532353507     3.293043963280
    H            0.811490616828     0.864686737848    -2.252299975191
    H            1.283773718369    -1.977525854097     0.949181461938
    H            2.754910638239    -0.225703697713    -3.385759100064
    H            3.210829748690    -2.945016193560    -0.315174449138
    H            3.788105939950    -2.014779032937    -2.351036112340
    H           -4.066294422625     2.189952706636     1.567501607004

gradient() will perform analytic gradient computation.

*** tstart() called on gpu-2-12.local
*** at Sun Nov 12 09:13:13 2017

    SCF Algorithm Type (re)set to DF.

*** tstart() called on gpu-2-12.local
*** at Sun Nov 12 09:13:13 2017

   => Loading Basis Set <=

    Name: AUG-CC-PVTZ
    Role: ORBITAL
    Keyword: BASIS
    atoms 1-11  entry C          line   221 file /cbio/jclab/home/chayas/anaconda/envs/py35/share/psi4/basis/aug-cc-pvtz.gbs 
    atoms 12    entry N          line   267 file /cbio/jclab/home/chayas/anaconda/envs/py35/share/psi4/basis/aug-cc-pvtz.gbs 
    atoms 13    entry O          line   313 file /cbio/jclab/home/chayas/anaconda/envs/py35/share/psi4/basis/aug-cc-pvtz.gbs 
    atoms 14-23 entry H          line    34 file /cbio/jclab/home/chayas/anaconda/envs/py35/share/psi4/basis/aug-cc-pvtz.gbs 


         ---------------------------------------------------------
                                   SCF
            by Justin Turney, Rob Parrish, and Andy Simmonett
                              RHF Reference
                        8 Threads,   4768 MiB Core
         ---------------------------------------------------------

  ==> Geometry <==

    Molecular point group: c1
    Full point group: C1

    Geometry (in Angstrom), charge = 1, multiplicity = 1:

       Center              X                  Y                   Z               Mass       
    ------------   -----------------  -----------------  -----------------  -----------------
           C         -1.280231309259     0.724218354304    -0.568444984960    12.000000000000
           C         -0.295292794747     0.113926404176     1.543198887880    12.000000000000
           C         -2.351579273810     1.290836548286     0.099468489871    12.000000000000
           C         -1.363694562375     0.683588221847     2.212780035306    12.000000000000
           C          1.306214094432     0.025373455457    -1.788718878438    12.000000000000
           C          1.573257065747    -1.556007290739    -0.000804933975    12.000000000000
           C          2.374180433649    -0.556703096433    -2.432277289577    12.000000000000
           C          2.636922465423    -2.107074201855    -0.678539559590    12.000000000000
           C         -0.240046844451     0.127770501177     0.147026597990    12.000000000000
           C          0.885405337661    -0.469757751626    -0.550611752717    12.000000000000
           C         -2.395165546220     1.272918201005     1.492920110533    12.000000000000
           N          3.003191028405    -1.597137604069    -1.864093391361    14.003074004780
           O         -3.421967763535     1.817160840725     2.181660780111    15.994914619560
           H         -1.268017185858     0.744990280130    -1.649537283685     1.007825032070
           H          0.498583330486    -0.335890801866     2.123301604508     1.007825032070
           H         -3.154666687108     1.747197489876    -0.464177719432     1.007825032070
           H         -1.397428156114     0.672532353507     3.293043963280     1.007825032070
           H          0.811490616828     0.864686737848    -2.252299975191     1.007825032070
           H          1.283773718369    -1.977525854097     0.949181461938     1.007825032070
           H          2.754910638239    -0.225703697713    -3.385759100064     1.007825032070
           H          3.210829748690    -2.945016193560    -0.315174449138     1.007825032070
           H          3.788105939950    -2.014779032937    -2.351036112340     1.007825032070
           H         -4.066294422625     2.189952706636     1.567501607004     1.007825032070

  Running in c1 symmetry.

  Rotational constants: A =      0.09641  B =      0.01331  C =      0.01189 [cm^-1]
  Rotational constants: A =   2890.27959  B =    398.89939  C =    356.39120 [MHz]
  Nuclear repulsion =  713.481936987341783

  Charge       = 1
  Multiplicity = 1
  Electrons    = 90
  Nalpha       = 45
  Nbeta        = 45

  ==> Algorithm <==

  SCF Algorithm Type is DF.
  DIIS enabled.
  MOM disabled.
  Fractional occupation disabled.
  Guess Type is READ.
  Energy threshold   = 1.00e-10
  Density threshold  = 1.00e-10
  Integral threshold = 0.00e+00

  ==> Primary Basis <==

  Basis Set: AUG-CC-PVTZ
    Blend: AUG-CC-PVTZ
    Number of shells: 272
    Number of basis function: 828
    Number of Cartesian functions: 965
    Spherical Harmonics?: true
    Max angular momentum: 3

   => Loading Basis Set <=

    Name: (AUG-CC-PVTZ AUX)
    Role: JKFIT
    Keyword: DF_BASIS_SCF
    atoms 1-11  entry C          line   161 file /cbio/jclab/home/chayas/anaconda/envs/py35/share/psi4/basis/aug-cc-pvtz-jkfit.gbs 
    atoms 12    entry N          line   223 file /cbio/jclab/home/chayas/anaconda/envs/py35/share/psi4/basis/aug-cc-pvtz-jkfit.gbs 
    atoms 13    entry O          line   285 file /cbio/jclab/home/chayas/anaconda/envs/py35/share/psi4/basis/aug-cc-pvtz-jkfit.gbs 
    atoms 14-23 entry H          line    69 file /cbio/jclab/home/chayas/anaconda/envs/py35/share/psi4/basis/aug-cc-pvtz-jkfit.gbs 

  Reading orbitals from file 180, no projection.

  ==> Pre-Iterations <==

   -------------------------------------------------------
    Irrep   Nso     Nmo     Nalpha   Nbeta   Ndocc  Nsocc
   -------------------------------------------------------
     A        828     828       0       0       0       0
   -------------------------------------------------------
    Total     828     828      45      45      45       0
   -------------------------------------------------------

  ==> Integral Setup <==

  ==> DFJK: Density-Fitted J/K Matrices <==

    J tasked:                  Yes
    K tasked:                  Yes
    wK tasked:                  No
    OpenMP threads:              8
    Integrals threads:           8
    Memory (MB):              3576
    Algorithm:                Disk
    Integral Cache:           NONE
    Schwarz Cutoff:          1E-12
    Fitting Condition:       1E-12

   => Auxiliary Basis Set <=

  Basis Set: (AUG-CC-PVTZ AUX)
    Blend: AUG-CC-PVTZ-JKFIT
    Number of shells: 530
    Number of basis function: 1812
    Number of Cartesian functions: 2253
    Spherical Harmonics?: true
    Max angular momentum: 4

  Minimum eigenvalue in the overlap matrix is 5.1911513377E-07.
  Using Symmetric Orthogonalization.

  SCF Guess: Orbitals guess was supplied from a previous computation.

  ==> Iterations <==

                           Total Energy        Delta E     RMS |[F,P]|

   @DF-RHF iter   0:  -551.79297529687506   -5.51793e+02   4.76053e-04 
   @DF-RHF iter   1:  -551.68087893981283    1.12096e-01   1.05947e-04 
   @DF-RHF iter   2:  -551.68127892545033   -3.99986e-04   7.90661e-05 DIIS
   @DF-RHF iter   3:  -551.68157790746886   -2.98982e-04   8.52101e-06 DIIS
   @DF-RHF iter   4:  -551.68158669505863   -8.78759e-06   4.60660e-06 DIIS
   @DF-RHF iter   5:  -551.68158892527981   -2.23022e-06   1.51172e-06 DIIS
   @DF-RHF iter   6:  -551.68158937365888   -4.48379e-07   7.33027e-07 DIIS
   @DF-RHF iter   7:  -551.68158954861610   -1.74957e-07   3.68662e-07 DIIS
   @DF-RHF iter   8:  -551.68158960277913   -5.41630e-08   1.21121e-07 DIIS
   @DF-RHF iter   9:  -551.68158960811013   -5.33100e-09   4.30438e-08 DIIS
   @DF-RHF iter  10:  -551.68158960845597   -3.45835e-10   1.72926e-08 DIIS
   @DF-RHF iter  11:  -551.68158960851338   -5.74119e-11   4.86669e-09 DIIS
   @DF-RHF iter  12:  -551.68158960851474   -1.36424e-12   2.00484e-09 DIIS
   @DF-RHF iter  13:  -551.68158960850667    8.07177e-12   1.04124e-09 DIIS
   @DF-RHF iter  14:  -551.68158960850940   -2.72848e-12   4.51305e-10 DIIS
   @DF-RHF iter  15:  -551.68158960849780    1.15961e-11   2.13194e-10 DIIS
   @DF-RHF iter  16:  -551.68158960850451   -6.70752e-12   7.82725e-11 DIIS

  ==> Post-Iterations <==

    Orbital Energies (a.u.)
    -----------------------

    Doubly Occupied:                                                      

       1A    -20.705902     2A    -15.829378     3A    -11.481006  
       4A    -11.480876     5A    -11.448835     6A    -11.433765  
       7A    -11.411150     8A    -11.410873     9A    -11.379513  
      10A    -11.376928    11A    -11.372477    12A    -11.355993  
      13A    -11.349952    14A     -1.526250    15A     -1.508492  
      16A     -1.318477    17A     -1.266201    18A     -1.238200  
      19A     -1.156150    20A     -1.154509    21A     -1.064911  
      22A     -1.056224    23A     -0.978458    24A     -0.962032  
      25A     -0.952165    26A     -0.871924    27A     -0.860894  
      28A     -0.854565    29A     -0.821098    30A     -0.800158  
      31A     -0.783232    32A     -0.772545    33A     -0.757881  
      34A     -0.732699    35A     -0.721187    36A     -0.709245  
      37A     -0.705325    38A     -0.686795    39A     -0.657779  
      40A     -0.637029    41A     -0.620345    42A     -0.570025  
      43A     -0.538965    44A     -0.472664    45A     -0.437045  

    Virtual:                                                              

      46A     -0.105883    47A     -0.083551    48A     -0.062544  
      49A     -0.060319    50A     -0.058560    51A     -0.049058  
      52A     -0.043672    53A     -0.039330    54A     -0.034313  
      55A     -0.028211    56A     -0.025419    57A     -0.023532  
      58A     -0.016871    59A     -0.009052    60A     -0.005810  
      61A     -0.001466    62A      0.003608    63A      0.006423  
      64A      0.009445    65A      0.015565    66A      0.017558  
      67A      0.021472    68A      0.024085    69A      0.024951  
      70A      0.028777    71A      0.031980    72A      0.036607  
      73A      0.038307    74A      0.040272    75A      0.045058  
      76A      0.049337    77A      0.055479    78A      0.058271  
      79A      0.060492    80A      0.067402    81A      0.068237  
      82A      0.072729    83A      0.074445    84A      0.078059  
      85A      0.083932    86A      0.086479    87A      0.088592  
      88A      0.095477    89A      0.098266    90A      0.108638  
      91A      0.110801    92A      0.114825    93A      0.121241  
      94A      0.123151    95A      0.125219    96A      0.128839  
      97A      0.132658    98A      0.137378    99A      0.140158  
     100A      0.144855   101A      0.153022   102A      0.157999  
     103A      0.162156   104A      0.163791   105A      0.167395  
     106A      0.168722   107A      0.170946   108A      0.173640  
     109A      0.177613   110A      0.182817   111A      0.188707  
     112A      0.190361   113A      0.192096   114A      0.197323  
     115A      0.205314   116A      0.206713   117A      0.210309  
     118A      0.213559   119A      0.217725   120A      0.220279  
     121A      0.224643   122A      0.228587   123A      0.231057  
     124A      0.233456   125A      0.234611   126A      0.240763  
     127A      0.242520   128A      0.250471   129A      0.251488  
     130A      0.257654   131A      0.259087   132A      0.273699  
     133A      0.278326   134A      0.279999   135A      0.280749  
     136A      0.287154   137A      0.288091   138A      0.293478  
     139A      0.301341   140A      0.309059   141A      0.311415  
     142A      0.311803   143A      0.316317   144A      0.318710  
     145A      0.323508   146A      0.325005   147A      0.331167  
     148A      0.333834   149A      0.336421   150A      0.339603  
     151A      0.341714   152A      0.344028   153A      0.349152  
     154A      0.350956   155A      0.356442   156A      0.361002  
     157A      0.366014   158A      0.368458   159A      0.371169  
     160A      0.374647   161A      0.375572   162A      0.379977  
     163A      0.383998   164A      0.387811   165A      0.390168  
     166A      0.394666   167A      0.398372   168A      0.401542  
     169A      0.404169   170A      0.407639   171A      0.412619  
     172A      0.414548   173A      0.418703   174A      0.421185  
     175A      0.424306   176A      0.429344   177A      0.430282  
     178A      0.437926   179A      0.439195   180A      0.443382  
     181A      0.449005   182A      0.453596   183A      0.458692  
     184A      0.464192   185A      0.472144   186A      0.476027  
     187A      0.482151   188A      0.488567   189A      0.494516  
     190A      0.501497   191A      0.505829   192A      0.510163  
     193A      0.519036   194A      0.528887   195A      0.529424  
     196A      0.537540   197A      0.543209   198A      0.549589  
     199A      0.552103   200A      0.564404   201A      0.571953  
     202A      0.574877   203A      0.578029   204A      0.580732  
     205A      0.585201   206A      0.587928   207A      0.596026  
     208A      0.601838   209A      0.608637   210A      0.613075  
     211A      0.620226   212A      0.622990   213A      0.627287  
     214A      0.632803   215A      0.638705   216A      0.643317  
     217A      0.646845   218A      0.650630   219A      0.654223  
     220A      0.668276   221A      0.676661   222A      0.680723  
     223A      0.693721   224A      0.701031   225A      0.703338  
     226A      0.704886   227A      0.708303   228A      0.712364  
     229A      0.717277   230A      0.718807   231A      0.725273  
     232A      0.732932   233A      0.734620   234A      0.737789  
     235A      0.740061   236A      0.744498   237A      0.758362  
     238A      0.759581   239A      0.764065   240A      0.768932  
     241A      0.773660   242A      0.777978   243A      0.780636  
     244A      0.785221   245A      0.789434   246A      0.794761  
     247A      0.796769   248A      0.804407   249A      0.806207  
     250A      0.812152   251A      0.816058   252A      0.818575  
[...]
	 B(5,7,20)        =         2.156499	     123.558270
	 B(5,10,6)        =         2.036251	     116.668571
	 B(5,10,9)        =         2.124453	     121.722193
	 B(6,8,12)        =         2.086010	     119.519553
	 B(6,8,21)        =         2.156462	     123.556157
	 B(6,10,9)        =         2.122481	     121.609212
	 B(7,5,10)        =         2.111484	     120.979105
	 B(7,5,18)        =         2.062111	     118.150254
	 B(7,12,8)        =         2.135250	     122.340813
	 B(7,12,22)       =         2.074003	     118.831636
	 B(8,6,10)        =         2.111396	     120.974075
	 B(8,6,19)        =         2.062322	     118.162329
	 B(8,12,22)       =         2.073932	     118.827548
	 B(9,1,14)        =         2.103604	     120.527624
	 B(9,2,15)        =         2.102904	     120.487551
	 B(10,5,18)       =         2.109112	     120.843227
	 B(10,6,19)       =         2.109016	     120.837741
	 B(11,3,16)       =         2.095266	     120.049916
	 B(11,4,17)       =         2.073198	     118.785495
	 B(11,13,23)      =         1.930407	     110.604162
	 B(12,7,20)       =         2.040637	     116.919912
	 B(12,8,21)       =         2.040651	     116.920703
	 D(1,3,11,4)      =        -0.007476	      -0.428358
	 D(1,3,11,13)     =         3.134185	     179.575574
	 D(1,9,2,4)       =        -0.005603	      -0.321043
	 D(1,9,2,15)      =        -3.097643	    -177.481862
	 D(1,9,10,5)      =         0.446546	      25.585212
	 D(1,9,10,6)      =        -2.696075	    -154.473736
	 D(2,4,11,3)      =        -0.006763	      -0.387464
	 D(2,4,11,13)     =         3.134766	     179.608863
	 D(2,9,1,3)       =        -0.008791	      -0.503711
	 D(2,9,1,14)      =        -3.097446	    -177.470568
	 D(2,9,10,5)      =        -2.696128	    -154.476742
	 D(2,9,10,6)      =         0.444436	      25.464310
	 D(3,1,9,10)      =         3.131744	     179.435706
	 D(3,11,4,17)     =         3.124954	     179.046659
	 D(3,11,13,23)    =        -0.000048	      -0.002736
	 D(4,2,9,10)      =         3.137047	     179.739544
	 D(4,11,3,16)     =         3.125687	     179.088696
	 D(4,11,13,23)    =        -3.141574	    -179.998913
	 D(5,7,12,8)      =         0.001014	       0.058077
	 D(5,7,12,22)     =        -3.140208	    -179.920662
	 D(5,10,6,8)      =         0.000869	       0.049771
	 D(5,10,6,19)     =        -3.107848	    -178.066597
	 D(6,8,12,7)      =         0.000698	       0.040020
	 D(6,8,12,22)     =        -3.141265	    -179.981240
	 D(6,10,5,7)      =         0.000845	       0.048417
	 D(6,10,5,18)     =        -3.106892	    -178.011820
	 D(7,5,10,9)      =         3.141457	     179.992237
	 D(7,12,8,21)     =         3.130694	     179.375572
	 D(8,6,10,9)      =        -3.139745	    -179.894118
	 D(8,12,7,20)     =         3.130292	     179.352529
	 D(9,1,3,11)      =         0.015309	       0.877164
	 D(9,1,3,16)      =        -3.117863	    -178.640419
	 D(9,2,4,11)      =         0.013329	       0.763698
	 D(9,2,4,17)      =        -3.118144	    -178.656464
	 D(9,10,5,18)     =         0.033720	       1.932000
	 D(9,10,6,19)     =         0.034724	       1.989514
	 D(10,5,7,12)     =        -0.001788	      -0.102469
	 D(10,5,7,20)     =        -3.130205	    -179.347543
	 D(10,6,8,12)     =        -0.001649	      -0.094470
	 D(10,6,8,21)     =        -3.130833	    -179.383544
	 D(10,9,1,14)     =         0.043090	       2.468849
	 D(10,9,2,15)     =         0.045007	       2.578725
	 D(11,3,1,14)     =         3.104975	     177.901954
	 D(11,4,2,15)     =         3.106306	     177.978248
	 D(12,7,5,18)     =         3.106838	     178.008695
	 D(12,8,6,19)     =         3.107926	     178.071038
	 D(13,11,3,16)    =        -0.015837	      -0.907373
	 D(13,11,4,17)    =        -0.016703	      -0.957015
	 D(14,1,3,16)     =        -0.028198	      -1.615629
	 D(15,2,4,17)     =        -0.025166	      -1.441914
	 D(18,5,7,20)     =        -0.021579	      -1.236380
	 D(19,6,8,21)     =        -0.021259	      -1.218036
	 D(20,7,12,22)    =        -0.010929	      -0.626211
	 D(21,8,12,22)    =        -0.011269	      -0.645688

	Current energy   :      -554.1022807790

	Energy change for the previous step:
		Projected    :        -0.0000011945
		Actual       :        -0.0000001667

	Performing BFGS update.
	Previous computed or guess Hessian on step 1.
	Steps to be used in Hessian update: 6 5
	Adding user-defined constraint: Fragment 1; Coordinate 76:
		Value =    -0.000048; Fixed value    =     0.000020
		Force =     0.000044; Force constant =     0.650000
	Removing off-diagonal coupling between coordinate 76 and others.
	Taking RFO optimization step.
	Going to follow RFO solution 1.
	Using RFO vector 1.
	Norm of target step-size    0.00124
	Projected energy change by RFO approximation:        -0.0000000342

	Back-transformation to cartesian coordinates...
	Successfully converged to displaced geometry.

	--- Internal Coordinate Step in ANG or DEG, aJ/ANG or AJ/DEG ---
	 ---------------------------------------------------------------------------
	   Coordinate                Previous        Force       Change         New 
	   ----------                --------       ------       ------       ------
	    1 R(1,3)          =      1.379627    -0.000043    -0.000008     1.379619
	    2 R(1,9)          =      1.398199     0.000033     0.000003     1.398202
	    3 R(1,14)         =      1.079405    -0.000031    -0.000008     1.079397
	    4 R(2,4)          =      1.376871     0.000172     0.000027     1.376898
	    5 R(2,9)          =      1.400320    -0.000180    -0.000030     1.400290
	    6 R(2,15)         =      1.079336    -0.000030    -0.000008     1.079328
	    7 R(3,11)         =      1.393222     0.000064     0.000014     1.393236
	    8 R(3,16)         =      1.080293     0.000006    -0.000002     1.080292
	    9 R(4,11)         =      1.393487    -0.000078    -0.000018     1.393469
	   10 R(4,17)         =      1.078562    -0.000041    -0.000010     1.078553
	   11 R(5,7)          =      1.371243    -0.000014    -0.000002     1.371241
	   12 R(5,10)         =      1.402218     0.000061     0.000006     1.402224
	   13 R(5,18)         =      1.077279     0.000014    -0.000000     1.077279
	   14 R(6,8)          =      1.371274     0.000001    -0.000001     1.371274
	   15 R(6,10)         =      1.402320    -0.000005    -0.000003     1.402317
	   16 R(6,19)         =      1.077262    -0.000014    -0.000005     1.077257
	   17 R(7,12)         =      1.343554     0.000056     0.000007     1.343561
	   18 R(7,20)         =      1.077237    -0.000011    -0.000003     1.077234
	   19 R(8,12)         =      1.343519     0.000059     0.000007     1.343526
	   20 R(8,21)         =      1.077263    -0.000011    -0.000003     1.077260
	   21 R(9,10)         =      1.443505     0.000040     0.000007     1.443512
	   22 R(11,13)        =      1.342668    -0.000046    -0.000010     1.342658
	   23 R(12,22)        =      1.011561    -0.000025    -0.000006     1.011555
	   24 R(13,23)        =      0.963871     0.000004    -0.000002     0.963870
	   25 B(1,3,11)       =    120.007257     0.000000     0.002258   120.009516
	   26 B(1,3,16)       =    119.941066    -0.000000    -0.002006   119.939060
	   27 B(1,9,2)        =    118.498484    -0.000000    -0.002304   118.496180
	   28 B(1,9,10)       =    120.747256    -0.000001    -0.001405   120.745851
	   29 B(2,4,11)       =    120.008002    -0.000000     0.000002   120.008004
	   30 B(2,4,17)       =    121.204024    -0.000001    -0.008387   121.195637
	   31 B(2,9,10)       =    120.754232     0.000001     0.003715   120.757947
	   32 B(3,1,9)        =    120.823723     0.000000     0.000382   120.824105
	   33 B(3,1,14)       =    118.581019    -0.000000    -0.004509   118.576509
	   34 B(3,11,4)       =    119.757887    -0.000001    -0.002832   119.755056
	   35 B(3,11,13)      =    123.463243     0.000001     0.002132   123.465375
	   36 B(4,2,9)        =    120.897017     0.000000     0.002502   120.899519
	   37 B(4,2,15)       =    118.556207    -0.000001    -0.007169   118.549039
	   38 B(4,11,13)      =    116.778869     0.000000     0.000696   116.779566
	   39 B(5,7,12)       =    119.517773    -0.000000    -0.001258   119.516515
	   40 B(5,7,20)       =    123.558270     0.000000    -0.000848   123.557422
	   41 B(5,10,6)       =    116.668571    -0.000001    -0.003050   116.665522
	   42 B(5,10,9)       =    121.722193    -0.000001    -0.002179   121.720013
	   43 B(6,8,12)       =    119.519553    -0.000000    -0.000693   119.518860
	   44 B(6,8,21)       =    123.556157    -0.000000    -0.001461   123.554696
	   45 B(6,10,9)       =    121.609212     0.000002     0.005233   121.614445
	   46 B(7,5,10)       =    120.979105     0.000001     0.002739   120.981844
	   47 B(7,5,18)       =    118.150254    -0.000000    -0.003790   118.146464
	   48 B(7,12,8)       =    122.340813     0.000000    -0.000089   122.340724
	   49 B(7,12,22)      =    118.831636    -0.000000    -0.000214   118.831421
	   50 B(8,6,10)       =    120.974075     0.000001     0.002337   120.976412
	   51 B(8,6,19)       =    118.162329    -0.000000    -0.004211   118.158117
	   52 B(8,12,22)      =    118.827548     0.000000     0.000304   118.827852
	   53 B(9,1,14)       =    120.527624     0.000000     0.004089   120.531712
	   54 B(9,2,15)       =    120.487551     0.000000     0.004717   120.492268
	   55 B(10,5,18)      =    120.843227    -0.000000     0.001246   120.844473
	   56 B(10,6,19)      =    120.837741    -0.000000     0.002057   120.839797
	   57 B(11,3,16)      =    120.049916    -0.000000    -0.000261   120.049654
	   58 B(11,4,17)      =    118.785495     0.000001     0.008392   118.793887
	   59 B(11,13,23)     =    110.604162     0.000000     0.000747   110.604910
	   60 B(12,7,20)      =    116.919912     0.000000     0.002051   116.921963
	   61 B(12,8,21)      =    116.920703     0.000000     0.002104   116.922807
	   62 D(1,3,11,4)     =     -0.428358     0.000000     0.010656    -0.417702
	   63 D(1,3,11,13)    =    179.575574    -0.000000    -0.016687   179.558887
	   64 D(1,9,2,4)      =     -0.321043     0.000000     0.005266    -0.315777
	   65 D(1,9,2,15)     =   -177.481862     0.000000     0.004251  -177.477611
	   66 D(1,9,10,5)     =     25.585212    -0.000000    -0.027604    25.557609
	   67 D(1,9,10,6)     =   -154.473736    -0.000000    -0.022107  -154.495843
	   68 D(2,4,11,3)     =     -0.387464    -0.000000    -0.009923    -0.397386
	   69 D(2,4,11,13)    =    179.608863     0.000000     0.015628   179.624491
	   70 D(2,9,1,3)      =     -0.503711    -0.000000    -0.004526    -0.508237
	   71 D(2,9,1,14)     =   -177.470568    -0.000000    -0.003526  -177.474094
	   72 D(2,9,10,5)     =   -154.476742    -0.000000    -0.020996  -154.497738
	   73 D(2,9,10,6)     =     25.464310     0.000000    -0.015499    25.448810
	   74 D(3,1,9,10)     =    179.435706    -0.000000     0.001938   179.437645
	   75 D(3,11,4,17)    =    179.046659    -0.000000    -0.009133   179.037526
	   76 D(3,11,13,23)   =     -0.002736     0.000000     0.000598    -0.002138
	   77 D(4,2,9,10)     =    179.739544    -0.000000    -0.001196   179.738348
	   78 D(4,11,3,16)    =    179.088696     0.000000     0.009385   179.098080
	   79 D(4,11,13,23)   =   -179.998913    -0.000000    -0.025992  -180.024905
	   80 D(5,7,12,8)     =      0.058077     0.000000     0.003387     0.061464
	   81 D(5,7,12,22)    =   -179.920662     0.000000     0.002031  -179.918631
	   82 D(5,10,6,8)     =      0.049771     0.000000     0.003925     0.053696
	   83 D(5,10,6,19)    =   -178.066597    -0.000000    -0.002659  -178.069255
	   84 D(6,8,12,7)     =      0.040020     0.000000     0.001967     0.041987
	   85 D(6,8,12,22)    =   -179.981240     0.000000     0.003322  -179.977918
	   86 D(6,10,5,7)     =      0.048417     0.000000     0.001439     0.049856
	   87 D(6,10,5,18)    =   -178.011820    -0.000000    -0.005398  -178.017218
	   88 D(7,5,10,9)     =    179.992237     0.000000     0.006682   179.998919
	   89 D(7,12,8,21)    =    179.375572    -0.000000    -0.002667   179.372905
	   90 D(8,6,10,9)     =   -179.894118     0.000000    -0.001307  -179.895425
	   91 D(8,12,7,20)    =    179.352529    -0.000000    -0.001363   179.351165
	   92 D(9,1,3,11)     =      0.877164     0.000000    -0.003371     0.873792
	   93 D(9,1,3,16)     =   -178.640419    -0.000000    -0.002110  -178.642529
	   94 D(9,2,4,11)     =      0.763698     0.000000     0.001944     0.765642
	   95 D(9,2,4,17)     =   -178.656464     0.000000     0.001037  -178.655426
	   96 D(9,10,5,18)    =      1.932000    -0.000000    -0.000155     1.931845
	   97 D(9,10,6,19)    =      1.989514    -0.000000    -0.007891     1.981623
	   98 D(10,5,7,12)    =     -0.102469    -0.000000    -0.005068    -0.107537
	   99 D(10,5,7,20)    =   -179.347543    -0.000000    -0.000006  -179.347549
	  100 D(10,6,8,12)    =     -0.094470    -0.000000    -0.005688    -0.100158
	  101 D(10,6,8,21)    =   -179.383544    -0.000000    -0.000755  -179.384299
	  102 D(10,9,1,14)    =      2.468849     0.000000     0.002939     2.471788
	  103 D(10,9,2,15)    =      2.578725     0.000000    -0.002212     2.576514
	  104 D(11,3,1,14)    =    177.901954    -0.000000    -0.004100   177.897854
	  105 D(11,4,2,15)    =    177.978248     0.000000     0.003265   177.981513
	  106 D(12,7,5,18)    =    178.008695    -0.000000     0.001681   178.010376
	  107 D(12,8,6,19)    =    178.071038    -0.000000     0.000835   178.071873
	  108 D(13,11,3,16)   =     -0.907373    -0.000000    -0.017958    -0.925331
	  109 D(13,11,4,17)   =     -0.957015     0.000000     0.016417    -0.940597
	  110 D(14,1,3,16)    =     -1.615629    -0.000000    -0.002838    -1.618467
	  111 D(15,2,4,17)    =     -1.441914    -0.000000     0.002358    -1.439556
	  112 D(18,5,7,20)    =     -1.236380     0.000000     0.006742    -1.229637
	  113 D(19,6,8,21)    =     -1.218036     0.000000     0.005768    -1.212268
	  114 D(20,7,12,22)   =     -0.626211    -0.000000    -0.002719    -0.628930
	  115 D(21,8,12,22)   =     -0.645688    -0.000000    -0.001312    -0.647000
	 ---------------------------------------------------------------------------
	Successfully symmetrized geometry.
	 Forces used to impose fixed constraints are not included.
	  Forces zeroed: 76 

  ==> Convergence Check <==

  Measures of convergence in internal coordinates in au.
  Criteria marked as inactive (o), active & met (*), and active & unmet ( ).
  ---------------------------------------------------------------------------------------------
   Step     Total Energy     Delta E     MAX Force     RMS Force      MAX Disp      RMS Disp   
  ---------------------------------------------------------------------------------------------
    Convergence Criteria    1.00e-06 *    3.00e-04 *             o    1.20e-03 *             o
  ---------------------------------------------------------------------------------------------
      7    -554.10228078   -1.67e-07 *    2.18e-05 *    6.02e-06 o    4.82e-04 *    1.16e-04 o  ~
  ---------------------------------------------------------------------------------------------


  **** Optimization is complete! (in 7 steps) ****

  ==> Optimization Summary <==

  Measures of convergence in internal coordinates in au.
  --------------------------------------------------------------------------------------------------------------- ~
   Step         Total Energy             Delta E       MAX Force       RMS Force        MAX Disp        RMS Disp  ~
  --------------------------------------------------------------------------------------------------------------- ~
      1    -554.098338124325   -554.098338124325      0.01445104      0.00453854      0.03295516      0.00930995  ~
      2    -554.101424715613     -0.003086591287      0.00556651      0.00154647      0.02342488      0.00932241  ~
      3    -554.102150645390     -0.000725929777      0.00162654      0.00036804      0.03739678      0.00932765  ~
      4    -554.102264801385     -0.000114155995      0.00049672      0.00011820      0.01847571      0.00369693  ~
      5    -554.102278467231     -0.000013665846      0.00015727      0.00005412      0.00791269      0.00156351  ~
      6    -554.102280612258     -0.000002145027      0.00007271      0.00001867      0.00153154      0.00035619  ~
      7    -554.102280778979     -0.000000166721      0.00002185      0.00000604      0.00048178      0.00011574  ~
  --------------------------------------------------------------------------------------------------------------- ~

	Writing optimization data to binary file.
	Final energy is   -554.1022807789791
	Final (previous) structure:
	Cartesian Geometry (in Angstrom)
	    C    -1.2723086322   0.7646652623  -0.5484122121
	    C    -0.3081328117   0.0800665311   1.5458512939
	    C    -2.3408028866   1.3209922096   0.1240395850
	    C    -1.3639462973   0.6485276297   2.2225218705
	    C     1.2627783952  -0.0125917259  -1.8270869991
	    C     1.6148139262  -1.5163625246  -0.0070372582
	    C     2.3209571307  -0.5861430000  -2.4840524180
	    C     2.6694013904  -2.0678183521  -0.6883115453
	    C    -0.2395178725   0.1296980645   0.1480941470
	    C     0.8716456406  -0.4624312148  -0.5578841554
	    C    -2.3911828992   1.2703066014   1.5154279959
	    N     2.9943705859  -1.5927163123  -1.9022787933
	    O    -3.3922840812   1.7957229158   2.2396449111
	    H    -1.2733463103   0.7865342489  -1.6275953881
	    H     0.4910126726  -0.3662075464   2.1178409398
	    H    -3.1418172494   1.7888581767  -0.4295950860
	    H    -1.4110641315   0.6319643415   3.2999273441
	    H     0.7590466887   0.8142339083  -2.2994684641
	    H     1.3534873718  -1.9348762909   0.9505894965
	    H     2.6630041943  -0.2671968651  -3.4544730450
	    H     3.2618227120  -2.8838319583  -0.3092942874
	    H     3.7740057489  -2.0074225658  -2.3956783076
	    H    -4.0506906806   2.2011980291   1.6641985802
	Saving final (previous) structure.
			--------------------------
			 OPTKING Finished Execution 
			--------------------------

    Final optimized geometry and variables:
    Molecular point group: c1
    Full point group: C1

    Geometry (in Angstrom), charge = 1, multiplicity = 1:

    C           -1.272308632216     0.764665262264    -0.548412212051
    C           -0.308132811679     0.080066531091     1.545851293895
    C           -2.340802886563     1.320992209639     0.124039584967
    C           -1.363946297252     0.648527629741     2.222521870528
    C            1.262778395227    -0.012591725914    -1.827086999088
    C            1.614813926246    -1.516362524631    -0.007037258213
    C            2.320957130699    -0.586142999986    -2.484052417982
    C            2.669401390353    -2.067818352080    -0.688311545340
    C           -0.239517872487     0.129698064528     0.148094146978
    C            0.871645640644    -0.462431214775    -0.557884155420
    C           -2.391182899157     1.270306601362     1.515427995938
    N            2.994370585911    -1.592716312299    -1.902278793277
    O           -3.392284081250     1.795722915772     2.239644911129
    H           -1.273346310251     0.786534248884    -1.627595388125
    H            0.491012672649    -0.366207546393     2.117840939766
    H           -3.141817249379     1.788858176701    -0.429595086036
    H           -1.411064131518     0.631964341466     3.299927344051
    H            0.759046688696     0.814233908316    -2.299468464111
    H            1.353487371843    -1.934876290900     0.950589496485
    H            2.663004194252    -0.267196865137    -3.454473044962
    H            3.261822711996    -2.883831958346    -0.309294287355
    H            3.774005748914    -2.007422565815    -2.395678307637
    H           -4.050690680601     2.201198029137     1.664198580169

	Cleaning optimization helper files.

*** Psi4 exiting successfully. Buy a developer a beer!
