
    -----------------------------------------------------------------------
          Psi4: An Open-Source Ab Initio Electronic Structure Package
                               Psi4 1.1 release

                         Git: Rev {HEAD} add49b9 


    R. M. Parrish, L. A. Burns, D. G. A. Smith, A. C. Simmonett,
    A. E. DePrince III, E. G. Hohenstein, U. Bozkaya, A. Yu. Sokolov,
    R. Di Remigio, R. M. Richard, J. F. Gonthier, A. M. James,
    H. R. McAlexander, A. Kumar, M. Saitow, X. Wang, B. P. Pritchard,
    P. Verma, H. F. Schaefer III, K. Patkowski, R. A. King, E. F. Valeev,
    F. A. Evangelista, J. M. Turney, T. D. Crawford, and C. D. Sherrill,
    J. Chem. Theory Comput. in press (2017).
    (doi: 10.1021/acs.jctc.7b00174)

    -----------------------------------------------------------------------


    Psi4 started on: Saturday, 11 November 2017 06:16PM

    Process ID:  26499
    PSIDATADIR: /cbio/jclab/home/chayas/anaconda/envs/py35/share/psi4
    Memory:     500.0 MiB
    Threads:    8
    
  ==> Input File <==

--------------------------------------------------------------------------

memory 5 Gb

molecule phepyrFOH_cation {
  symmetry C1
  1 1 
  C      1.885   -1.036   -0.112
  C      0.807   -0.463   0.561
  C      4.830   -1.443   -0.930
  C      4.321   -3.578   0.063
  C      1.800   -1.079   2.676
  C      5.894   -2.040   -1.592
  C      5.398   -4.120   -0.624
  C      2.921   -1.631   0.608
  C      4.038   -2.225   -0.095
  C      0.764   -0.484   1.955
  C      2.878   -1.652   2.002
  N      6.144   -3.345   -1.422
  O      -0.289   0.076   2.612
  F      3.866   -2.220   2.709
  H      1.904   -1.012   -1.199
  H      0.002   -0.002   -0.006
  H      4.632   -0.385   -1.072
  H      3.719   -4.212   0.708
  H      1.772   -1.099   3.762
  H      6.561   -1.511   -2.259
  H      5.691   -5.159   -0.561
  H      6.930   -3.764   -1.918
  H      -0.175   -0.018   3.571
  units Angstrom
}

dih_string = "2 10 13 23 180.001"
set optking fixed_dihedral = $dih_string

optimize('MP2/aug-cc-PVTZ')
--------------------------------------------------------------------------

  Memory set to   4.657 GiB by Python driver.
gradient() will perform analytic gradient computation.

*** tstart() called on gpu-2-5.local
*** at Sat Nov 11 18:16:22 2017

    SCF Algorithm Type (re)set to DF.

*** tstart() called on gpu-2-5.local
*** at Sat Nov 11 18:16:22 2017

   => Loading Basis Set <=

    Name: AUG-CC-PVTZ
    Role: ORBITAL
    Keyword: BASIS
    atoms 1-11  entry C          line   221 file /cbio/jclab/home/chayas/anaconda/envs/py35/share/psi4/basis/aug-cc-pvtz.gbs 
    atoms 12    entry N          line   267 file /cbio/jclab/home/chayas/anaconda/envs/py35/share/psi4/basis/aug-cc-pvtz.gbs 
    atoms 13    entry O          line   313 file /cbio/jclab/home/chayas/anaconda/envs/py35/share/psi4/basis/aug-cc-pvtz.gbs 
    atoms 14    entry F          line   359 file /cbio/jclab/home/chayas/anaconda/envs/py35/share/psi4/basis/aug-cc-pvtz.gbs 
    atoms 15-23 entry H          line    34 file /cbio/jclab/home/chayas/anaconda/envs/py35/share/psi4/basis/aug-cc-pvtz.gbs 


         ---------------------------------------------------------
                                   SCF
            by Justin Turney, Rob Parrish, and Andy Simmonett
                              RHF Reference
                        8 Threads,   4768 MiB Core
         ---------------------------------------------------------

  ==> Geometry <==

    Molecular point group: c1
    Full point group: C1

    Geometry (in Angstrom), charge = 1, multiplicity = 1:

       Center              X                  Y                   Z               Mass       
    ------------   -----------------  -----------------  -----------------  -----------------
           C         -1.337924706937     0.763942896639    -0.788136163608    12.000000000000
           C         -2.415924706937     1.336942896639    -0.115136163608    12.000000000000
           C          1.607075293063     0.356942896639    -1.606136163608    12.000000000000
           C          1.098075293063    -1.778057103361    -0.613136163608    12.000000000000
           C         -1.422924706937     0.720942896639     1.999863836392    12.000000000000
           C          2.671075293063    -0.240057103361    -2.268136163608    12.000000000000
           C          2.175075293063    -2.320057103361    -1.300136163608    12.000000000000
           C         -0.301924706937     0.168942896639    -0.068136163608    12.000000000000
           C          0.815075293063    -0.425057103361    -0.771136163608    12.000000000000
           C         -2.458924706937     1.315942896639     1.278863836392    12.000000000000
           C         -0.344924706937     0.147942896639     1.325863836392    12.000000000000
           N          2.921075293063    -1.545057103361    -2.098136163608    14.003074004780
           O         -3.511924706937     1.875942896639     1.935863836392    15.994914619560
           F          0.643075293063    -0.420057103361     2.032863836392    18.998403224000
           H         -1.318924706937     0.787942896639    -1.875136163608     1.007825032070
           H         -3.220924706937     1.797942896639    -0.682136163608     1.007825032070
           H          1.409075293063     1.414942896639    -1.748136163608     1.007825032070
           H          0.496075293063    -2.412057103360     0.031863836392     1.007825032070
           H         -1.450924706937     0.700942896639     3.085863836392     1.007825032070
           H          3.338075293063     0.288942896639    -2.935136163608     1.007825032070
           H          2.468075293063    -3.359057103361    -1.237136163608     1.007825032070
           H          3.707075293063    -1.964057103360    -2.594136163608     1.007825032070
           H         -3.397924706937     1.781942896639     2.894863836392     1.007825032070

  Running in c1 symmetry.

  Rotational constants: A =      0.06291  B =      0.01289  C =      0.01150 [cm^-1]
  Rotational constants: A =   1886.00830  B =    386.37885  C =    344.77968 [MHz]
  Nuclear repulsion =  829.464363116682080

  Charge       = 1
  Multiplicity = 1
  Electrons    = 98
  Nalpha       = 49
  Nbeta        = 49

  ==> Algorithm <==

  SCF Algorithm Type is DF.
  DIIS enabled.
  MOM disabled.
  Fractional occupation disabled.
  Guess Type is SAD.
  Energy threshold   = 1.00e-10
  Density threshold  = 1.00e-10
  Integral threshold = 0.00e+00

  ==> Primary Basis <==

  Basis Set: AUG-CC-PVTZ
    Blend: AUG-CC-PVTZ
    Number of shells: 277
    Number of basis function: 851
    Number of Cartesian functions: 995
    Spherical Harmonics?: true
    Max angular momentum: 3

   => Loading Basis Set <=

    Name: (AUG-CC-PVTZ AUX)
    Role: JKFIT
    Keyword: DF_BASIS_SCF
    atoms 1-11  entry C          line   161 file /cbio/jclab/home/chayas/anaconda/envs/py35/share/psi4/basis/aug-cc-pvtz-jkfit.gbs 
    atoms 12    entry N          line   223 file /cbio/jclab/home/chayas/anaconda/envs/py35/share/psi4/basis/aug-cc-pvtz-jkfit.gbs 
    atoms 13    entry O          line   285 file /cbio/jclab/home/chayas/anaconda/envs/py35/share/psi4/basis/aug-cc-pvtz-jkfit.gbs 
    atoms 14    entry F          line   347 file /cbio/jclab/home/chayas/anaconda/envs/py35/share/psi4/basis/aug-cc-pvtz-jkfit.gbs 
    atoms 15-23 entry H          line    69 file /cbio/jclab/home/chayas/anaconda/envs/py35/share/psi4/basis/aug-cc-pvtz-jkfit.gbs 

  ==> Pre-Iterations <==

   -------------------------------------------------------
    Irrep   Nso     Nmo     Nalpha   Nbeta   Ndocc  Nsocc
   -------------------------------------------------------
     A        851     851       0       0       0       0
   -------------------------------------------------------
    Total     851     851      49      49      49       0
   -------------------------------------------------------

  ==> Integral Setup <==

  ==> DFJK: Density-Fitted J/K Matrices <==

    J tasked:                  Yes
    K tasked:                  Yes
    wK tasked:                  No
    OpenMP threads:              8
    Integrals threads:           8
    Memory (MB):              3576
    Algorithm:                Disk
    Integral Cache:           NONE
    Schwarz Cutoff:          1E-12
    Fitting Condition:       1E-12

   => Auxiliary Basis Set <=

  Basis Set: (AUG-CC-PVTZ AUX)
    Blend: AUG-CC-PVTZ-JKFIT
    Number of shells: 546
    Number of basis function: 1870
    Number of Cartesian functions: 2329
    Spherical Harmonics?: true
    Max angular momentum: 4

  Minimum eigenvalue in the overlap matrix is 6.8855768437E-07.
  Using Symmetric Orthogonalization.

  SCF Guess: Superposition of Atomic Densities via on-the-fly atomic UHF.

  ==> Iterations <==

                           Total Energy        Delta E     RMS |[F,P]|

   @DF-RHF iter   0:  -653.99505460002797   -6.53995e+02   2.45163e-02 
   @DF-RHF iter   1:  -650.14128892468000    3.85377e+00   2.39536e-03 
   @DF-RHF iter   2:  -650.45946922108647   -3.18180e-01   1.35707e-03 DIIS
   @DF-RHF iter   3:  -650.53910662867429   -7.96374e-02   4.42167e-04 DIIS
   @DF-RHF iter   4:  -650.55660641148711   -1.74998e-02   1.60978e-04 DIIS
   @DF-RHF iter   5:  -650.55895687278667   -2.35046e-03   5.36659e-05 DIIS
   @DF-RHF iter   6:  -650.55945566180571   -4.98789e-04   2.30580e-05 DIIS
   @DF-RHF iter   7:  -650.55953211486542   -7.64531e-05   7.48119e-06 DIIS
   @DF-RHF iter   8:  -650.55953945599981   -7.34113e-06   2.44383e-06 DIIS
   @DF-RHF iter   9:  -650.55954046794318   -1.01194e-06   9.43076e-07 DIIS
   @DF-RHF iter  10:  -650.55954068306937   -2.15126e-07   3.06372e-07 DIIS
   @DF-RHF iter  11:  -650.55954073510566   -5.20363e-08   1.94760e-07 DIIS
   @DF-RHF iter  12:  -650.55954074339172   -8.28607e-09   8.98425e-08 DIIS
   @DF-RHF iter  13:  -650.55954074489443   -1.50271e-09   3.82740e-08 DIIS
   @DF-RHF iter  14:  -650.55954074519116   -2.96723e-10   1.03938e-08 DIIS
   @DF-RHF iter  15:  -650.55954074518331    7.84439e-12   4.57337e-09 DIIS
   @DF-RHF iter  16:  -650.55954074522037   -3.70619e-11   1.80983e-09 DIIS
   @DF-RHF iter  17:  -650.55954074520309    1.72804e-11   5.97922e-10 DIIS
   @DF-RHF iter  18:  -650.55954074522242   -1.93268e-11   3.29155e-10 DIIS
   @DF-RHF iter  19:  -650.55954074522072    1.70530e-12   1.50199e-10 DIIS
   @DF-RHF iter  20:  -650.55954074523015   -9.43601e-12   6.94531e-11 DIIS

  ==> Post-Iterations <==

    Orbital Energies (a.u.)
    -----------------------

    Doubly Occupied:                                                      

       1A    -26.444619     2A    -20.705319     3A    -15.843527  
       4A    -11.490134     5A    -11.488653     6A    -11.469438  
       7A    -11.451690     8A    -11.438238     9A    -11.421837  
      10A    -11.420672    11A    -11.384389    12A    -11.377899  
      13A    -11.361435    14A    -11.353918    15A     -1.762795  
      16A     -1.519945    17A     -1.518755    18A     -1.325261  
      19A     -1.270884    20A     -1.242812    21A     -1.163886  
      22A     -1.151933    23A     -1.072869    24A     -1.061484  
      25A     -0.991154    26A     -0.969267    27A     -0.963021  
      28A     -0.890173    29A     -0.873931    30A     -0.859447  
      31A     -0.856331    32A     -0.828849    33A     -0.821035  
      34A     -0.806921    35A     -0.798708    36A     -0.780759  
      37A     -0.757885    38A     -0.748439    39A     -0.727591  
      40A     -0.717114    41A     -0.705170    42A     -0.687587  
      43A     -0.653806    44A     -0.644862    45A     -0.619093  
      46A     -0.578239    47A     -0.540564    48A     -0.470599  
      49A     -0.446011  

    Virtual:                                                              

      50A     -0.105327    51A     -0.086705    52A     -0.067241  
      53A     -0.062988    54A     -0.058399    55A     -0.050453  
      56A     -0.041941    57A     -0.039929    58A     -0.034614  
      59A     -0.029923    60A     -0.024667    61A     -0.018384  
      62A     -0.013041    63A     -0.010751    64A     -0.006640  
      65A     -0.001893    66A      0.001255    67A      0.008253  
      68A      0.009170    69A      0.013074    70A      0.016452  
      71A      0.018782    72A      0.024442    73A      0.025914  
      74A      0.031087    75A      0.033041    76A      0.034331  
      77A      0.037938    78A      0.040520    79A      0.042068  
      80A      0.047378    81A      0.051594    82A      0.054955  
      83A      0.061181    84A      0.064919    85A      0.067065  
      86A      0.070325    87A      0.078065    88A      0.080218  
      89A      0.083068    90A      0.086777    91A      0.091931  
      92A      0.095601    93A      0.101426    94A      0.107050  
      95A      0.111347    96A      0.116606    97A      0.117727  
      98A      0.124035    99A      0.129395   100A      0.133012  
     101A      0.136171   102A      0.137449   103A      0.140742  
     104A      0.142821   105A      0.151332   106A      0.155829  
     107A      0.158373   108A      0.161246   109A      0.164552  
     110A      0.167156   111A      0.169081   112A      0.172845  
     113A      0.175796   114A      0.180062   115A      0.184321  
     116A      0.189323   117A      0.196362   118A      0.197642  
     119A      0.198843   120A      0.206722   121A      0.209276  
     122A      0.210268   123A      0.216037   124A      0.221104  
     125A      0.222925   126A      0.223853   127A      0.228571  
     128A      0.233241   129A      0.236443   130A      0.241183  
     131A      0.244470   132A      0.249261   133A      0.252661  
     134A      0.254413   135A      0.259964   136A      0.268429  
     137A      0.268986   138A      0.273650   139A      0.280140  
     140A      0.280835   141A      0.284382   142A      0.292674  
     143A      0.294210   144A      0.297288   145A      0.305262  
     146A      0.312564   147A      0.314857   148A      0.318640  
     149A      0.322253   150A      0.325248   151A      0.328105  
     152A      0.328629   153A      0.333136   154A      0.336048  
     155A      0.340834   156A      0.343816   157A      0.344679  
     158A      0.348968   159A      0.351127   160A      0.353922  
     161A      0.360473   162A      0.364008   163A      0.369879  
     164A      0.371156   165A      0.373898   166A      0.378606  
     167A      0.380555   168A      0.381521   169A      0.389234  
     170A      0.391094   171A      0.391362   172A      0.402290  
     173A      0.403537   174A      0.405603   175A      0.406839  
     176A      0.413004   177A      0.418942   178A      0.423772  
     179A      0.425283   180A      0.428159   181A      0.430233  
     182A      0.434420   183A      0.439534   184A      0.444490  
     185A      0.451991   186A      0.454470   187A      0.458995  
     188A      0.464750   189A      0.470764   190A      0.477310  
     191A      0.479979   192A      0.484365   193A      0.488684  
     194A      0.492552   195A      0.505450   196A      0.507752  
     197A      0.519149   198A      0.520550   199A      0.525894  
     200A      0.536558   201A      0.539998   202A      0.543625  
     203A      0.556342   204A      0.561477   205A      0.563306  
     206A      0.569457   207A      0.570950   208A      0.575460  
     209A      0.580613   210A      0.590270   211A      0.593179  
     212A      0.596004   213A      0.601497   214A      0.604598  
     215A      0.610317   216A      0.615638   217A      0.617411  
     218A      0.621054   219A      0.628510   220A      0.633781  
     221A      0.637782   222A      0.638625   223A      0.645942  
     224A      0.660144   225A      0.666522   226A      0.673468  
     227A      0.682154   228A      0.690911   229A      0.691645  
     230A      0.698784   231A      0.702060   232A      0.709336  
     233A      0.713319   234A      0.718044   235A      0.725538  
     236A      0.730129   237A      0.735357   238A      0.737976  
     239A      0.744867   240A      0.751390   241A      0.755926  
     242A      0.760764   243A      0.764195   244A      0.766988  
     245A      0.770506   246A      0.773664   247A      0.780086  
     248A      0.783058   249A      0.786354   250A      0.787717  
     251A      0.795875   252A      0.800974   253A      0.805128  
     254A      0.808264   255A      0.812829   256A      0.817185  
     257A      0.822711   258A      0.828392   259A      0.831465  
     260A      0.837039   261A      0.839585   262A      0.844313  
     263A      0.853895   264A      0.857444   265A      0.861564  
     266A      0.864153   267A      0.870043   268A      0.879365  
     269A      0.881166   270A      0.885464   271A      0.894467  
     272A      0.896336   273A      0.904084   274A      0.908567  
     275A      0.914166   276A      0.914785   277A      0.920271  
     278A      0.924694   279A      0.928560   280A      0.933234  
     281A      0.935476   282A      0.941380   283A      0.942944  
     284A      0.951777   285A      0.955038   286A      0.959676  
     287A      0.966671   288A      0.970634   289A      0.973460  
     290A      0.979505   291A      0.984132   292A      0.986343  
     293A      0.987306   294A      0.989283   295A      0.996162  
     296A      0.999127   297A      1.004217   298A      1.010717  
     299A      1.014127   300A      1.021052   301A      1.023997  
     302A      1.025840   303A      1.031581   304A      1.039148  
     305A      1.042378   306A      1.048627   307A      1.053414  
     308A      1.062680   309A      1.065543   310A      1.070128  
     311A      1.074087   312A      1.081925   313A      1.086624  
     314A      1.087249   315A      1.092499   316A      1.105295  
     317A      1.105900   318A      1.108105   319A      1.116205  
     320A      1.123459   321A      1.125524   322A      1.131572  
     323A      1.135483   324A      1.139666   325A      1.143719  
     326A      1.150793   327A      1.154305   328A      1.162889  
     329A      1.168307   330A      1.178286   331A      1.187093  
     332A      1.189163   333A      1.195170   334A      1.208211  
     335A      1.209313   336A      1.218683   337A      1.226674  
     338A      1.235467   339A      1.237507   340A      1.244873  
     341A      1.246805   342A      1.250974   343A      1.258990  
     344A      1.268985   345A      1.274565   346A      1.276864  
     347A      1.278551   348A      1.291037   349A      1.293170  
     350A      1.300913   351A      1.311620   352A      1.317980  
     353A      1.321560   354A      1.330411   355A      1.335351  
     356A      1.344478   357A      1.347482   358A      1.355635  
     359A      1.365730   360A      1.377953   361A      1.381375  
     362A      1.387577   363A      1.389077   364A      1.394057  
     365A      1.405245   366A      1.408368   367A      1.420316  
     368A      1.423201   369A      1.436440   370A      1.438883  
     371A      1.445252   372A      1.450504   373A      1.460442  
     374A      1.471570   375A      1.474376   376A      1.489858  
     377A      1.500202   378A      1.502586   379A      1.504637  
     380A      1.510183   381A      1.517011   382A      1.525013  
     383A      1.530308   384A      1.534071   385A      1.539280  
     386A      1.542960   387A      1.554189   388A      1.560552  
     389A      1.571046   390A      1.581111   391A      1.587870  
     392A      1.594069   393A      1.599522   394A      1.613210  
     395A      1.617385   396A      1.630314   397A      1.636463  
     398A      1.645588   399A      1.657089   400A      1.660308  
     401A      1.671861   402A      1.677418   403A      1.682217  
     404A      1.687492   405A      1.694155   406A      1.707670  
     407A      1.719854   408A      1.723804   409A      1.724830  
     410A      1.732315   411A      1.741295   412A      1.749641  
     413A      1.750883   414A      1.762143   415A      1.772737  
     416A      1.785629   417A      1.787643   418A      1.797916  
     419A      1.804960   420A      1.810740   421A      1.815298  
     422A      1.826239   423A      1.829017   424A      1.834056  
     425A      1.840492   426A      1.847234   427A      1.852546  
     428A      1.865878   429A      1.870476   430A      1.882751  
     431A      1.888198   432A      1.898197   433A      1.899586  
     434A      1.908780   435A      1.918787   436A      1.922001  
     437A      1.935551   438A      1.939019   439A      1.944224  
     440A      1.956689   441A      1.961345   442A      1.973929  
     443A      1.983169   444A      1.992401   445A      1.997375  
     446A      2.004193   447A      2.020489   448A      2.028499  
     449A      2.035662   450A      2.044855   451A      2.053745  
     452A      2.056715   453A      2.065588   454A      2.066022  
     455A      2.070960   456A      2.079187   457A      2.087704  
     458A      2.098287   459A      2.117218   460A      2.129766  
     461A      2.132623   462A      2.146028   463A      2.154941  
     464A      2.174049   465A      2.180772   466A      2.188752  
     467A      2.196223   468A      2.205582   469A      2.213495  
     470A      2.223192   471A      2.232711   472A      2.241980  
     473A      2.254693   474A      2.261813   475A      2.273858  
     476A      2.276502   477A      2.295611   478A      2.301315  
     479A      2.302534   480A      2.312978   481A      2.325515  
     482A      2.337153   483A      2.360235   484A      2.368482  
     485A      2.369195   486A      2.390554   487A      2.399121  
     488A      2.409192   489A      2.411716   490A      2.419142  
     491A      2.436200   492A      2.440957   493A      2.472373  
     494A      2.475258   495A      2.487117   496A      2.496463  
     497A      2.512208   498A      2.525470   499A      2.534876  
     500A      2.542692   501A      2.561226   502A      2.568294  
     503A      2.577035   504A      2.594396   505A      2.606476  
     506A      2.617781   507A      2.632867   508A      2.636682  
     509A      2.658535   510A      2.711412   511A      2.714888  
     512A      2.720517   513A      2.744413   514A      2.759580  
     515A      2.767386   516A      2.783605   517A      2.798720  
     518A      2.811555   519A      2.841116   520A      2.859419  
     521A      2.907772   522A      2.926505   523A      2.928038  
     524A      2.940122   525A      2.948363   526A      2.951959  
     527A      2.974083   528A      2.983797   529A      3.003337  
     530A      3.021694   531A      3.025746   532A      3.039097  
     533A      3.043799   534A      3.056843   535A      3.063369  
     536A      3.082773   537A      3.100437   538A      3.112344  
     539A      3.128411   540A      3.131865   541A      3.142143  
     542A      3.157828   543A      3.161183   544A      3.179707  
     545A      3.184393   546A      3.199204   547A      3.219271  
     548A      3.230847   549A      3.232260   550A      3.242221  
     551A      3.257610   552A      3.264219   553A      3.271145  
     554A      3.287300   555A      3.294428   556A      3.310208  
     557A      3.314857   558A      3.320553   559A      3.339279  
     560A      3.343092   561A      3.349820   562A      3.361484  
     563A      3.365209   564A      3.369531   565A      3.379747  
     566A      3.389067   567A      3.397663   568A      3.404786  
     569A      3.417393   570A      3.423298   571A      3.428499  
     572A      3.434635   573A      3.444090   574A      3.449285  
     575A      3.465887   576A      3.477000   577A      3.479504  
     578A      3.488045   579A      3.503866   580A      3.510313  
     581A      3.515599   582A      3.523684   583A      3.530201  
     584A      3.539946   585A      3.553564   586A      3.569611  
     587A      3.577670   588A      3.587741   589A      3.598351  
     590A      3.604482   591A      3.612173   592A      3.624393  
     593A      3.625926   594A      3.647637   595A      3.649546  
     596A      3.652827   597A      3.663157   598A      3.677525  
     599A      3.684976   600A      3.692901   601A      3.702236  
     602A      3.708288   603A      3.713223   604A      3.719307  
     605A      3.731519   606A      3.743054   607A      3.749767  
     608A      3.757415   609A      3.765770   610A      3.769611  
     611A      3.778793   612A      3.785210   613A      3.793539  
     614A      3.806820   615A      3.813252   616A      3.817701  
     617A      3.828698   618A      3.831682   619A      3.846571  
     620A      3.849889   621A      3.860632   622A      3.872449  
     623A      3.881757   624A      3.882894   625A      3.898864  
     626A      3.905592   627A      3.912597   628A      3.927395  
     629A      3.933359   630A      3.941217   631A      3.957434  
     632A      3.961620   633A      3.973489   634A      3.990041  
     635A      3.993387   636A      3.997988   637A      4.004101  
     638A      4.008874   639A      4.021564   640A      4.035635  
     641A      4.037733   642A      4.042951   643A      4.055644  
     644A      4.066676   645A      4.070692   646A      4.083767  
     647A      4.093421   648A      4.106964   649A      4.111747  
     650A      4.115016   651A      4.124698   652A      4.137326  
     653A      4.143247   654A      4.157483   655A      4.168889  
     656A      4.178848   657A      4.190771   658A      4.196954  
     659A      4.203729   660A      4.209020   661A      4.219726  
     662A      4.227071   663A      4.236336   664A      4.239413  
     665A      4.247460   666A      4.259049   667A      4.266590  
     668A      4.274713   669A      4.287621   670A      4.290279  
     671A      4.300498   672A      4.304288   673A      4.311397  
     674A      4.317318   675A      4.332853   676A      4.349335  
     677A      4.352191   678A      4.366349   679A      4.370826  
     680A      4.381886   681A      4.391031   682A      4.403867  
     683A      4.416955   684A      4.427013   685A      4.434935  
     686A      4.450199   687A      4.459148   688A      4.464717  
     689A      4.468423   690A      4.486119   691A      4.501653  
     692A      4.505388   693A      4.522272   694A      4.564662  
     695A      4.569866   696A      4.583623   697A      4.596848  
     698A      4.608375   699A      4.616031   700A      4.620462  
     701A      4.630228   702A      4.641315   703A      4.651437  
     704A      4.669627   705A      4.694075   706A      4.706848  
     707A      4.714323   708A      4.732318   709A      4.739160  
     710A      4.745438   711A      4.755389   712A      4.771022  
     713A      4.785398   714A      4.810791   715A      4.812893  
     716A      4.821018   717A      4.828089   718A      4.842549  
     719A      4.855074   720A      4.860888   721A      4.889680  
     722A      4.905698   723A      4.910530   724A      4.922033  
     725A      4.934873   726A      4.939225   727A      4.942127  
     728A      4.955907   729A      4.973104   730A      4.994077  
     731A      4.998923   732A      5.009325   733A      5.026590  
     734A      5.032034   735A      5.041174   736A      5.050120  
     737A      5.056127   738A      5.063776   739A      5.084766  
     740A      5.095303   741A      5.110160   742A      5.157296  
     743A      5.166608   744A      5.171851   745A      5.190993  
     746A      5.195129   747A      5.200392   748A      5.205658  
     749A      5.241385   750A      5.256182   751A      5.269537  
     752A      5.280494   753A      5.315999   754A      5.327657  
     755A      5.336400   756A      5.363223   757A      5.370545  
     758A      5.387294   759A      5.396701   760A      5.414109  
     761A      5.452687   762A      5.465165   763A      5.480122  
     764A      5.502432   765A      5.518204   766A      5.553528  
     767A      5.587427   768A      5.591756   769A      5.605692  
     770A      5.625815   771A      5.655367   772A      5.660512  
     773A      5.684226   774A      5.694038   775A      5.715920  
     776A      5.745953   777A      5.776585   778A      5.829965  
     779A      5.834395   780A      5.887975   781A      5.922910  
     782A      5.934239   783A      5.975373   784A      5.982404  
     785A      6.000706   786A      6.032854   787A      6.087070  
     788A      6.150965   789A      6.155106   790A      6.193480  
     791A      6.205186   792A      6.270258   793A      6.285835  
     794A      6.342452   795A      6.358721   796A      6.401693  
     797A      6.414585   798A      6.455831   799A      6.514047  
     800A      6.559100   801A      6.595208   802A      6.624687  
     803A      6.651832   804A      6.737764   805A      6.744442  
     806A      6.793064   807A      6.831964   808A      6.841851  
     809A      6.898507   810A      6.911516   811A      6.948568  
     812A      6.969139   813A      7.080117   814A      7.159767  
     815A      7.289595   816A      7.320734   817A      7.363063  
     818A      7.446669   819A      7.540062   820A      7.582666  
     821A      7.589004   822A      7.649096   823A      7.901012  
     824A      8.282248   825A      8.537294   826A      8.887216  
     827A      8.929948   828A      9.152991   829A      9.170986  
     830A      9.288621   831A      9.403238   832A      9.422591  
     833A      9.479247   834A      9.526276   835A      9.597193  
     836A      9.917044   837A      9.961165   838A     15.840144  
     839A     16.081866   840A     16.458482   841A     16.500191  
     842A     16.735392   843A     16.889248   844A     18.725169  
     845A     19.160696   846A     19.526015   847A     19.638663  
     848A     20.060434   849A     20.144387   850A     20.336926  
     851A     21.722253  

    Final Occupation by Irrep:
              A 
    DOCC [    49 ]

  Energy converged.

  @DF-RHF Final Energy:  -650.55954074523015

   => Energetics <=

    Nuclear Repulsion Energy =            829.4643631166820796
    One-Electron Energy =               -2519.0899078245392957
    Two-Electron Energy =                1039.0660039626270645
    DFT Exchange-Correlation Energy =       0.0000000000000000
    Empirical Dispersion Energy =           0.0000000000000000
    PCM Polarization Energy =               0.0000000000000000
    EFP Energy =                            0.0000000000000000
    Total Energy =                       -650.5595407452301515



Properties will be evaluated at   0.000000,   0.000000,   0.000000 Bohr

Properties computed using the SCF density matrix

  Nuclear Dipole Moment: (a.u.)
     X:     1.2708      Y:    -0.4926      Z:    -6.6452

  Electronic Dipole Moment: (a.u.)
     X:     1.7275      Y:    -1.0959      Z:     4.2834

  Dipole Moment: (a.u.)
     X:     2.9983      Y:    -1.5885      Z:    -2.3618     Total:     4.1341

  Dipole Moment: (Debye)
     X:     7.6208      Y:    -4.0376      Z:    -6.0030     Total:    10.5079


*** tstop() called on gpu-2-5.local at Sat Nov 11 18:26:05 2017
Module time:
	user time   =    1646.56 seconds =      27.44 minutes
	system time =      56.11 seconds =       0.94 minutes
	total time  =        583 seconds =       9.72 minutes
Total time:
	user time   =    1646.56 seconds =      27.44 minutes
	system time =      56.11 seconds =       0.94 minutes
	total time  =        583 seconds =       9.72 minutes

  //>>>>>>>>>>>>>>>>>>>>>>>>>>>>>>>>>>>//
  //               DFMP2               //
  //<<<<<<<<<<<<<<<<<<<<<<<<<<<<<<<<<<<//

   => Loading Basis Set <=

    Name: (AUG-CC-PVTZ AUX)
    Role: RIFIT
    Keyword: DF_BASIS_MP2
    atoms 1-11  entry C          line   147 file /cbio/jclab/home/chayas/anaconda/envs/py35/share/psi4/basis/aug-cc-pvtz-ri.gbs 
    atoms 12    entry N          line   205 file /cbio/jclab/home/chayas/anaconda/envs/py35/share/psi4/basis/aug-cc-pvtz-ri.gbs 
    atoms 13    entry O          line   263 file /cbio/jclab/home/chayas/anaconda/envs/py35/share/psi4/basis/aug-cc-pvtz-ri.gbs 
    atoms 14    entry F          line   321 file /cbio/jclab/home/chayas/anaconda/envs/py35/share/psi4/basis/aug-cc-pvtz-ri.gbs 
    atoms 15-23 entry H          line    29 file /cbio/jclab/home/chayas/anaconda/envs/py35/share/psi4/basis/aug-cc-pvtz-ri.gbs 

	 --------------------------------------------------------
	                          DF-MP2                         
	      2nd-Order Density-Fitted Moller-Plesset Theory     
	              RMP2 Wavefunction,   8 Threads             
	                                                         
	        Rob Parrish, Justin Turney, Andy Simmonett,      
	           Ed Hohenstein, and C. David Sherrill          
	 --------------------------------------------------------

   => Auxiliary Basis Set <=

  Basis Set: (AUG-CC-PVTZ AUX)
    Blend: AUG-CC-PVTZ-RI
    Number of shells: 518
    Number of basis function: 1898
    Number of Cartesian functions: 2399
    Spherical Harmonics?: true
    Max angular momentum: 4

	 --------------------------------------------------------
	                 NBF =   851, NAUX =  1898
	 --------------------------------------------------------
	   CLASS    FOCC     OCC    AOCC    AVIR     VIR    FVIR
	   PAIRS       0      49      49     802     802       0
	 --------------------------------------------------------


         ------------------------------------------------------------
                                     CPHF                           
                                  Rob Parrish                       
         ------------------------------------------------------------

  ==> Geometry <==

    Molecular point group: c1
    Full point group: C1

    Geometry (in Angstrom), charge = 1, multiplicity = 1:

       Center              X                  Y                   Z               Mass       
    ------------   -----------------  -----------------  -----------------  -----------------
           C         -1.337924706937     0.763942896639    -0.788136163608    12.000000000000
           C         -2.415924706937     1.336942896639    -0.115136163608    12.000000000000
           C          1.607075293063     0.356942896639    -1.606136163608    12.000000000000
           C          1.098075293063    -1.778057103361    -0.613136163608    12.000000000000
           C         -1.422924706937     0.720942896639     1.999863836392    12.000000000000
           C          2.671075293063    -0.240057103361    -2.268136163608    12.000000000000
           C          2.175075293063    -2.320057103361    -1.300136163608    12.000000000000
           C         -0.301924706937     0.168942896639    -0.068136163608    12.000000000000
           C          0.815075293063    -0.425057103361    -0.771136163608    12.000000000000
           C         -2.458924706937     1.315942896639     1.278863836392    12.000000000000
           C         -0.344924706937     0.147942896639     1.325863836392    12.000000000000
           N          2.921075293063    -1.545057103361    -2.098136163608    14.003074004780
           O         -3.511924706937     1.875942896639     1.935863836392    15.994914619560
           F          0.643075293063    -0.420057103361     2.032863836392    18.998403224000
           H         -1.318924706937     0.787942896639    -1.875136163608     1.007825032070
           H         -3.220924706937     1.797942896639    -0.682136163608     1.007825032070
           H          1.409075293063     1.414942896639    -1.748136163608     1.007825032070
           H          0.496075293063    -2.412057103360     0.031863836392     1.007825032070
           H         -1.450924706937     0.700942896639     3.085863836392     1.007825032070
           H          3.338075293063     0.288942896639    -2.935136163608     1.007825032070
           H          2.468075293063    -3.359057103361    -1.237136163608     1.007825032070
           H          3.707075293063    -1.964057103360    -2.594136163608     1.007825032070
           H         -3.397924706937     1.781942896639     2.894863836392     1.007825032070

  Nuclear repulsion =  829.464363116682080
  Reference energy  = -650.559540745230152

  ==> Basis Set <==

  Basis Set: AUG-CC-PVTZ
    Blend: AUG-CC-PVTZ
    Number of shells: 277
    Number of basis function: 851
    Number of Cartesian functions: 995
    Spherical Harmonics?: true
    Max angular momentum: 3

  ==> CGRSolver (by Rob Parrish) <==

   Number of roots    =         1
   Preconditioning    =    JACOBI
   Convergence cutoff =     1E-06
   Maximum iterations =       100

  ==> CPHFRHamiltonian (by Rob Parrish) <== 

  ==> DFJK: Density-Fitted J/K Matrices <==

    J tasked:                  Yes
    K tasked:                  Yes
    wK tasked:                  No
    OpenMP threads:              8
    Integrals threads:           8
    Memory (MB):              3576
    Algorithm:                Disk
    Integral Cache:           NONE
    Schwarz Cutoff:          1E-12
    Fitting Condition:       1E-12

   => Auxiliary Basis Set <=

  Basis Set: (AUG-CC-PVTZ AUX)
    Blend: AUG-CC-PVTZ-JKFIT
    Number of shells: 546
    Number of basis function: 1870
    Number of Cartesian functions: 2329
    Spherical Harmonics?: true
    Max angular momentum: 4

  ==> CPHF Iterations <==

  => Iterations <=

             Iter  Converged  Remaining    Residual
  CGR           1          0          1   1.205E-01
  CGR           2          0          1   4.756E-02
  CGR           3          0          1   2.782E-02
  CGR           4          0          1   9.100E-03
  CGR           5          0          1   3.825E-03
  CGR           6          0          1   1.611E-03
  CGR           7          0          1   5.226E-04
  CGR           8          0          1   2.233E-04
  CGR           9          0          1   1.002E-04
  CGR          10          0          1   4.047E-05
  CGR          11          0          1   1.674E-05
  CGR          12          0          1   5.677E-06
  CGR          13          0          1   2.094E-06
  CGR          14          1          0   7.345E-07

    CGRSolver converged.

  ==> DFCorrGrad: Density-Fitted Correlated Gradients <==

    OpenMP threads:              8
    Integrals threads:           8
    Memory (MB):              3576
    Schwarz Cutoff:          0E+00
    Fitting Condition:       1E-12

   => Auxiliary Basis Set <=

  Basis Set: (AUG-CC-PVTZ AUX)
    Blend: AUG-CC-PVTZ-JKFIT
    Number of shells: 546
    Number of basis function: 1870
    Number of Cartesian functions: 2329
    Spherical Harmonics?: true
    Max angular momentum: 4

	-----------------------------------------------------------
	 ==================> DF-MP2 Energies <==================== 
	-----------------------------------------------------------
	 Reference Energy          =    -650.5595407452301515 [Eh]
	 Singles Energy            =      -0.0000000000000004 [Eh]
	 Same-Spin Energy          =      -0.6691329689911167 [Eh]
	 Opposite-Spin Energy      =      -2.0141326239396231 [Eh]
	 Correlation Energy        =      -2.6832655929307401 [Eh]
	 Total Energy              =    -653.2428063381609036 [Eh]
	-----------------------------------------------------------
	 ================> DF-SCS-MP2 Energies <================== 
	-----------------------------------------------------------
	 SCS Same-Spin Scale       =       0.3333333333333333 [-]
	 SCS Opposite-Spin Scale   =       1.2000000000000000 [-]
	 SCS Same-Spin Energy      =      -0.2230443229970389 [Eh]
	 SCS Opposite-Spin Energy  =      -2.4169591487275475 [Eh]
	 SCS Correlation Energy    =      -2.6400034717245870 [Eh]
	 SCS Total Energy          =    -653.1995442169547914 [Eh]
	-----------------------------------------------------------


  -Total Gradient:
     Atom            X                  Y                   Z
    ------   -----------------  -----------------  -----------------
       1        0.009589564464    -0.010254518807    -0.011080395484
       2        0.001699002932    -0.000833140232     0.007283244513
       3       -0.010564403321     0.008005879150     0.010397690529
       4       -0.014472111455     0.006739360839     0.005409029165
       5       -0.010953874977     0.005640764391     0.002143492909
       6        0.002192875947    -0.011592770404     0.003237518035
       7        0.006180874178     0.007798393980    -0.007935654986
       8       -0.003744227485     0.001810966744    -0.002766748010
       9        0.003614403804    -0.002161349660    -0.004587439936
      10       -0.000357422527     0.000630047847    -0.011567033112
      11        0.024965194874    -0.008520626567    -0.000374854777
      12        0.000934801751    -0.001005352754    -0.000632939938
      13       -0.006408808121     0.003377288485     0.007759908270
      14        0.000044928027    -0.000372035154     0.004489071905
      15       -0.001264283834     0.001418246056    -0.005668768853
      16       -0.003387918224     0.002522243038    -0.005095724437
      17       -0.001256114789     0.005405146565    -0.001538307150
      18       -0.003382864462    -0.003956518451     0.003796812036
      19       -0.001864141279     0.000327177710     0.004717671299
      20        0.002098959230     0.000178654194    -0.002137766378
      21        0.001877783597    -0.002248970494    -0.000381190326
      22        0.004509781554    -0.002594469493    -0.002991671340
      23       -0.000051999890    -0.000314416983     0.007524056064


*** tstop() called on gpu-2-5.local at Sat Nov 11 19:08:12 2017
Module time:
	user time   =    7852.97 seconds =     130.88 minutes
	system time =     120.11 seconds =       2.00 minutes
	total time  =       3110 seconds =      51.83 minutes
Total time:
	user time   =    7852.97 seconds =     130.88 minutes
	system time =     120.11 seconds =       2.00 minutes
	total time  =       3110 seconds =      51.83 minutes

			-----------------------------------------
			 OPTKING 2.0: for geometry optimizations 
			  - R.A. King,  Bethel University        
			-----------------------------------------

	Internal coordinates to be generated automatically.
	Detected frag 1 with atoms:  1 2 3 4 5 6 7 8 9 10 11 12 13 14 15 16 17 18 19 20
	 21 22 23
	---Fragment 1 Bond Connectivity---
	 1 : 2 8 15
	 2 : 1 10 16
	 3 : 6 9 17
	 4 : 7 9 18
	 5 : 10 11 19
	 6 : 3 12 20
	 7 : 4 12 21
	 8 : 1 9 11
	 9 : 3 4 8
	 10 : 2 5 13
	 11 : 5 8 14
	 12 : 6 7 22
	 13 : 10 23
	 14 : 11
	 15 : 1
	 16 : 2
	 17 : 3
	 18 : 4
	 19 : 5
	 20 : 6
	 21 : 7
	 22 : 12
	 23 : 13

	Assuming in current code that numbering for constraints corresponds to unified fragment.
	Fixed dihedral atom list: 
	     2    10    13    23
	---Fragment 1 Geometry and Gradient---
	 C          -2.5283112825        1.4436428558       -1.4893615046
	 C          -4.5654360538        2.5264559300       -0.2175758172
	 C           3.0369321788        0.6745243197       -3.0351574813
	 C           2.0750615772       -3.3600409740       -1.1586594314
	 C          -2.6889380038        1.3623846321        3.7791949538
	 C           5.0476007842       -0.4536421816       -4.2861561813
	 C           4.1102966223       -4.3842725380       -2.4569012847
	 C          -0.5705550089        0.3192558067       -0.1287586890
	 C           1.5402690816       -0.8032415162       -1.4572361604
	 C          -4.6466942775        2.4867716812        2.4167024120
	 C          -0.6518132326        0.2795715580        2.5055195403
	 N           5.5200323174       -2.9197347850       -3.9649027387
	 O          -6.6365758954        3.5450183156        3.6582524813
	 F           1.2152361867       -0.7937928855        3.8415559162
	 H          -2.4924064860        1.4889962830       -3.5434938111
	 H          -6.0866655908        3.3976196772       -1.2890505346
	 H           2.6627664045        2.6738545683       -3.3034985922
	 H           0.9374464452       -4.5581273422        0.0602139243
	 H          -2.7418503355        1.3245901094        5.8314375342
	 H           6.3080481148        0.5460229427       -5.5466035119
	 H           4.6639863792       -6.3476979901       -2.3378485383
	 H           7.0053570579       -3.7115300347       -4.9022069006
	 H          -6.4211471163        3.3673840591        5.4704998428
	             0.0095895645       -0.0102545188       -0.0110803955
	             0.0016990029       -0.0008331402        0.0072832445
	            -0.0105644033        0.0080058792        0.0103976905
	            -0.0144721115        0.0067393608        0.0054090292
	            -0.0109538750        0.0056407644        0.0021434929
	             0.0021928759       -0.0115927704        0.0032375180
	             0.0061808742        0.0077983940       -0.0079356550
	            -0.0037442275        0.0018109667       -0.0027667480
	             0.0036144038       -0.0021613497       -0.0045874399
	            -0.0003574225        0.0006300478       -0.0115670331
	             0.0249651949       -0.0085206266       -0.0003748548
	             0.0009348018       -0.0010053528       -0.0006329399
	            -0.0064088081        0.0033772885        0.0077599083
	             0.0000449280       -0.0003720352        0.0044890719
	            -0.0012642838        0.0014182461       -0.0056687689
	            -0.0033879182        0.0025222430       -0.0050957244
	            -0.0012561148        0.0054051466       -0.0015383071
	            -0.0033828645       -0.0039565185        0.0037968120
	            -0.0018641413        0.0003271777        0.0047176713
	             0.0020989592        0.0001786542       -0.0021377664
	             0.0018777836       -0.0022489705       -0.0003811903
	             0.0045097816       -0.0025944695       -0.0029916713
	            -0.0000519999       -0.0003144170        0.0075240561

	Previous optimization step data not found.  Starting new optimization.

	---Fragment 1 Intrafragment Coordinates---
	 - Coordinate -           - BOHR/RAD -       - ANG/DEG -
	 R(1,2)           =         2.634350	       1.394038
	 R(1,8)           =         2.635962	       1.394891
	 R(1,15)          =         2.054947	       1.087431
	 R(2,10)          =         2.635830	       1.394821
	 R(2,16)          =         2.054537	       1.087214
	 R(3,6)           =         2.623079	       1.388074
	 R(3,9)           =         2.629378	       1.391407
	 R(3,17)          =         2.051665	       1.085694
	 R(4,7)           =         2.622339	       1.387682
	 R(4,9)           =         2.629140	       1.391281
	 R(4,18)          =         2.053103	       1.086455
	 R(5,10)          =         2.636938	       1.395407
	 R(5,11)          =         2.635263	       1.394521
	 R(5,19)          =         2.053272	       1.086545
	 R(6,12)          =         2.531404	       1.339561
	 R(6,20)          =         2.043719	       1.081489
	 R(7,12)          =         2.531066	       1.339382
	 R(7,21)          =         2.043474	       1.081360
	 R(8,9)           =         2.735038	       1.447320
	 R(8,11)          =         2.635830	       1.394821
	 R(10,13)         =         2.573123	       1.361638
	 R(11,14)         =         2.534359	       1.341125
	 R(12,22)         =         1.926569	       1.019496
	 R(13,23)         =         1.833631	       0.970316
	 B(1,2,10)        =         2.094553	     120.009056
	 B(1,2,16)        =         2.088723	     119.675016
	 B(1,8,9)         =         2.091569	     119.838095
	 B(1,8,11)        =         2.093692	     119.959722
	 B(2,1,8)         =         2.094940	     120.031219
	 B(2,1,15)        =         2.079469	     119.144799
	 B(2,10,5)        =         2.094306	     119.994870
	 B(2,10,13)       =         2.094247	     119.991510
	 B(3,6,12)        =         2.096160	     120.101096
	 B(3,6,20)        =         2.160978	     123.814942
	 B(3,9,4)         =         2.093156	     119.928982
	 B(3,9,8)         =         2.094542	     120.008404
	 B(4,7,12)        =         2.095824	     120.081885
	 B(4,7,21)        =         2.161239	     123.829863
	 B(4,9,8)         =         2.095488	     120.062613
	 B(5,10,13)       =         2.094633	     120.013619
	 B(5,11,8)        =         2.095181	     120.045019
	 B(5,11,14)       =         2.081414	     119.256220
	 B(6,3,9)         =         2.072362	     118.737620
	 B(6,3,17)        =         2.090402	     119.771194
	 B(6,12,7)        =         2.135730	     122.368334
	 B(6,12,22)       =         2.074333	     118.850498
	 B(7,4,9)         =         2.073138	     118.782073
	 B(7,4,18)        =         2.089816	     119.737652
	 B(7,12,22)       =         2.073122	     118.781161
	 B(8,1,15)        =         2.108776	     120.823969
	 B(8,11,14)       =         2.106591	     120.698759
	 B(9,3,17)        =         2.120421	     121.491171
	 B(9,4,18)        =         2.120230	     121.480258
	 B(9,8,11)        =         2.097924	     120.202184
	 B(10,2,16)       =         2.099909	     120.315896
	 B(10,5,11)       =         2.093699	     119.960108
	 B(10,5,19)       =         2.100355	     120.341451
	 B(10,13,23)      =         1.924294	     110.253909
	 B(11,5,19)       =         2.089132	     119.698439
	 B(12,6,20)       =         2.026047	     116.083959
	 B(12,7,21)       =         2.026122	     116.088250
	 D(1,2,10,5)      =        -0.000325	      -0.018609
	 D(1,2,10,13)     =         3.141388	     179.988267
	 D(1,8,9,3)       =         1.047203	      60.000294
	 D(1,8,9,4)       =        -2.094232	    -119.990639
	 D(1,8,11,5)      =         0.000325	       0.018608
	 D(1,8,11,14)     =        -3.141528	    -179.996269
	 D(2,1,8,9)       =         3.141277	     179.981897
	 D(2,1,8,11)      =        -0.000348	      -0.019945
	 D(2,10,5,11)     =         0.000301	       0.017261
	 D(2,10,5,19)     =        -3.141029	    -179.967685
	 D(2,10,13,23)    =         3.141285	     179.982383
	 D(3,6,12,7)      =        -0.000167	      -0.009589
	 D(3,6,12,22)     =         3.140892	     179.959844
	 D(3,9,4,7)       =        -0.000213	      -0.012204
	 D(3,9,4,18)      =        -3.140964	    -179.964007
	 D(3,9,8,11)      =        -2.094358	    -119.997860
	 D(4,7,12,6)      =         0.000492	       0.028196
	 D(4,7,12,22)     =        -3.140567	    -179.941258
	 D(4,9,3,6)       =         0.000525	       0.030092
	 D(4,9,3,17)      =         3.141327	     179.984799
	 D(4,9,8,11)      =         1.047393	      60.011207
	 D(5,10,2,16)     =         3.140149	     179.917291
	 D(5,10,13,23)    =        -0.000187	      -0.010740
	 D(5,11,8,9)      =        -3.141300	    -179.983240
	 D(6,3,9,8)       =        -3.140909	    -179.960854
	 D(6,12,7,21)     =        -3.140902	    -179.960420
	 D(7,4,9,8)       =         3.141222	     179.978736
	 D(7,12,6,20)     =         3.141065	     179.969740
	 D(8,1,2,10)      =         0.000348	       0.019955
	 D(8,1,2,16)      =        -3.140133	    -179.916358
	 D(8,9,3,17)      =        -0.000107	      -0.006146
	 D(8,9,4,18)      =         0.000470	       0.026933
	 D(8,11,5,10)     =        -0.000301	      -0.017270
	 D(8,11,5,19)     =         3.141030	     179.967774
	 D(9,3,6,12)      =        -0.000344	      -0.019721
	 D(9,3,6,20)      =        -3.141547	    -179.997375
	 D(9,4,7,12)      =        -0.000293	      -0.016764
	 D(9,4,7,21)      =         3.141085	     179.970928
	 D(9,8,1,15)      =         0.000403	       0.023110
	 D(9,8,11,14)     =         0.000033	       0.001883
	 D(10,2,1,15)     =         3.141234	     179.979432
	 D(10,5,11,14)    =         3.141547	     179.997392
	 D(11,5,10,13)    =        -3.141411	    -179.989616
	 D(11,8,1,15)     =        -3.141221	    -179.978731
	 D(12,6,3,17)     =        -3.141160	    -179.975226
	 D(12,7,4,18)     =         3.140474	     179.935898
	 D(13,10,2,16)    =        -0.001324	      -0.075833
	 D(13,10,5,19)    =         0.000444	       0.025437
	 D(14,11,5,19)    =        -0.000307	      -0.017564
	 D(15,1,2,16)     =         0.000753	       0.043120
	 D(17,3,6,20)     =         0.000822	       0.047120
	 D(18,4,7,21)     =        -0.001334	      -0.076410
	 D(20,6,12,22)    =        -0.001062	      -0.060827
	 D(21,7,12,22)    =         0.001224	       0.070126
	 R(4,14)          =         5.685691	       3.008738

	Current energy   :      -653.2428063382

	Generating empirical Hessian (Schlegel '84) for each fragment.
	Adding user-defined constraint: Fragment 1; Coordinate 72:
		Value =     3.141285; Fixed value    =    -3.141575
		Force =    -3.141430; Force constant =     0.500000
	Removing off-diagonal coupling between coordinate 72 and others.
	Taking RFO optimization step.
	Going to follow RFO solution 1.
	Using RFO vector 1.

	Determining step-restricting scale parameter for RS-RFO.
	Maximum step size allowed    0.10000

	 Iter      |step|        alpha        rfo_root  
	------------------------------------------------
	    0     0.93971       1.00000           1
	    1     0.56564       2.90551           1
	    2     0.34864       7.87031           1
	    3     0.22413      19.35058           1
	    4     0.15449      41.09237           1
	    5     0.11833      70.36419           1
	    6     0.10340      92.32883           1
	    7     0.10016      98.43959           1
	    8     0.10000      98.75467           1
	------------------------------------------------
	Norm of target step-size    0.10000
	Projected energy change by RFO approximation:        -0.2390616794

	Back-transformation to cartesian coordinates...
	Could not converge backtransformation.
	Using first guess instead.

	--- Internal Coordinate Step in ANG or DEG, aJ/ANG or AJ/DEG ---
	 ---------------------------------------------------------------------------
	   Coordinate                Previous        Force       Change         New 
	   ----------                --------       ------       ------       ------
	    1 R(1,2)          =      1.394038    -0.095207    -0.000249     1.393789
	    2 R(1,8)          =      1.394891    -0.003319    -0.000008     1.394883
	    3 R(1,15)         =      1.087431    -0.046760    -0.000115     1.087316
	    4 R(2,10)         =      1.394821    -0.062954    -0.000135     1.394686
	    5 R(2,16)         =      1.087214    -0.051372    -0.000130     1.087084
	    6 R(3,6)          =      1.388074    -0.094322    -0.000246     1.387828
	    7 R(3,9)          =      1.391407     0.030125     0.000084     1.391491
	    8 R(3,17)         =      1.085694    -0.046941    -0.000123     1.085571
	    9 R(4,7)          =      1.387682    -0.096178    -0.000251     1.387432
	   10 R(4,9)          =      1.391281     0.050953     0.000136     1.391417
	   11 R(4,18)         =      1.086455    -0.053034    -0.000138     1.086317
	   12 R(5,10)         =      1.395407    -0.031778    -0.000067     1.395340
	   13 R(5,11)         =      1.394521    -0.129837    -0.000340     1.394181
	   14 R(5,19)         =      1.086545    -0.039195    -0.000103     1.086442
	   15 R(6,12)         =      1.339561     0.014224     0.000039     1.339601
	   16 R(6,20)         =      1.081489    -0.022248    -0.000056     1.081433
	   17 R(7,12)         =      1.339382     0.019321     0.000054     1.339436
	   18 R(7,21)         =      1.081360    -0.021811    -0.000056     1.081303
	   19 R(8,9)          =      1.447320     0.110986     0.000298     1.447617
	   20 R(8,11)         =      1.394821    -0.017564    -0.000046     1.394776
	   21 R(10,13)        =      1.361638    -0.112299    -0.000243     1.361395
	   22 R(11,14)        =      1.341125    -0.013905    -0.000034     1.341092
	   23 R(12,22)        =      1.019496    -0.049421    -0.000128     1.019368
	   24 R(13,23)        =      0.970316    -0.061468     0.001768     0.972084
	   25 B(1,2,10)       =    120.009056    -0.000152    -0.004667   120.004390
	   26 B(1,2,16)       =    119.675016     0.000242     0.006883   119.681899
	   27 B(1,8,9)        =    119.838095    -0.000057    -0.001956   119.836139
	   28 B(1,8,11)       =    119.959722    -0.000798    -0.024903   119.934818
	   29 B(2,1,8)        =    120.031219     0.000457     0.014136   120.045355
	   30 B(2,1,15)       =    119.144799    -0.000084    -0.002396   119.142404
	   31 B(2,10,5)       =    119.994870     0.000077    -0.000888   119.993982
	   32 B(2,10,13)      =    119.991510    -0.000943    -0.035420   119.956091
	   33 B(3,6,12)       =    120.101096    -0.000304    -0.009554   120.091543
	   34 B(3,6,20)       =    123.814942     0.000054     0.001732   123.816673
	   35 B(3,9,4)        =    119.928982    -0.000631    -0.019718   119.909264
	   36 B(3,9,8)        =    120.008404    -0.000048    -0.001398   120.007007
	   37 B(4,7,12)       =    120.081885    -0.000315    -0.009800   120.072085
	   38 B(4,7,21)       =    123.829863     0.000059     0.001806   123.831670
	   39 B(4,9,8)        =    120.062613     0.000678     0.021115   120.083728
	   40 B(5,10,13)      =    120.013619     0.000862     0.022416   120.036034
	   41 B(5,11,8)       =    120.045019     0.000556     0.017464   120.062483
	   42 B(5,11,14)      =    119.256220    -0.000401    -0.012367   119.243853
	   43 B(6,3,9)        =    118.737620     0.000484     0.015195   118.752815
	   44 B(6,3,17)       =    119.771194    -0.000217    -0.006850   119.764343
	   45 B(6,12,7)       =    122.368334     0.000314     0.009814   122.378148
	   46 B(6,12,22)      =    118.850498    -0.000165    -0.005205   118.845293
	   47 B(7,4,9)        =    118.782073     0.000450     0.014062   118.796135
	   48 B(7,4,18)       =    119.737652    -0.000204    -0.006322   119.731330
	   49 B(7,12,22)      =    118.781161    -0.000149    -0.004609   118.776552
	   50 B(8,1,15)       =    120.823969    -0.000375    -0.011852   120.812117
	   51 B(8,11,14)      =    120.698759    -0.000156    -0.005167   120.693592
	   52 B(9,3,17)       =    121.491171    -0.000267    -0.008344   121.482827
	   53 B(9,4,18)       =    121.480258    -0.000246    -0.007740   121.472518
	   54 B(9,8,11)       =    120.202184     0.000856     0.026759   120.228943
	   55 B(10,2,16)      =    120.315896    -0.000087    -0.002190   120.313707
	   56 B(10,5,11)      =    119.960108    -0.000145    -0.004361   119.955747
	   57 B(10,5,19)      =    120.341451     0.000209     0.006610   120.348061
	   58 B(10,13,23)     =    110.253909    -0.000143    -0.013328   110.240581
	   59 B(11,5,19)      =    119.698439    -0.000063    -0.002287   119.696152
	   60 B(12,6,20)      =    116.083959     0.000250     0.007821   116.091780
	   61 B(12,7,21)      =    116.088250     0.000256     0.007994   116.096244
	   62 D(1,2,10,5)     =     -0.018609    -0.004639    -0.630564    -0.649173
	   63 D(1,2,10,13)    =    179.988267     0.005283     0.717768   180.706035
	   64 D(1,8,9,3)      =     60.000294     0.000397     0.053998    60.054292
	   65 D(1,8,9,4)      =   -119.990639     0.000420     0.057102  -119.933537
	   66 D(1,8,11,5)     =      0.018608    -0.000762    -0.103618    -0.085010
	   67 D(1,8,11,14)    =   -179.996269    -0.001377    -0.187111  -180.183380
	   68 D(2,1,8,9)      =    179.981897    -0.000104    -0.014039   179.967857
	   69 D(2,1,8,11)     =     -0.019945     0.000753     0.102379     0.082435
	   70 D(2,10,5,11)    =      0.017261     0.004628     0.629036     0.646298
	   71 D(2,10,5,19)    =   -179.967685     0.003980     0.540966  -179.426720
	   72 D(2,10,13,23)   =    179.982383    -0.032375    -4.396967   175.585416
	   73 D(3,6,12,7)     =     -0.009589     0.000005     0.000645    -0.008944
	   74 D(3,6,12,22)    =    179.959844     0.000003     0.000398   179.960243
	   75 D(3,9,4,7)      =     -0.012204     0.000011     0.001452    -0.010752
	   76 D(3,9,4,18)     =   -179.964007     0.000010     0.001310  -179.962697
	   77 D(3,9,8,11)     =   -119.997860    -0.000462    -0.062766  -120.060626
	   78 D(4,7,12,6)     =      0.028196    -0.000001    -0.000209     0.027987
	   79 D(4,7,12,22)    =   -179.941258     0.000000     0.000037  -179.941220
	   80 D(4,9,3,6)      =      0.030092    -0.000008    -0.001026     0.029066
	   81 D(4,9,3,17)     =    179.984799    -0.000002    -0.000261   179.984538
	   82 D(4,9,8,11)     =     60.011207    -0.000439    -0.059663    59.951544
	   83 D(5,10,2,16)    =    179.917291    -0.003990    -0.542491   179.374800
	   84 D(5,10,13,23)   =     -0.010740    -0.022452    -3.048062    -3.058802
	   85 D(5,11,8,9)     =   -179.983240     0.000098     0.013263  -179.969978
	   86 D(6,3,9,8)      =   -179.960854     0.000015     0.002068  -179.958785
	   87 D(6,12,7,21)    =   -179.960420    -0.000007    -0.000907  -179.961328
	   88 D(7,4,9,8)      =    179.978736    -0.000012    -0.001647   179.977090
	   89 D(7,12,6,20)    =    179.969740    -0.000001    -0.000141   179.969600
	   90 D(8,1,2,10)     =      0.019955     0.001948     0.264755     0.284710
	   91 D(8,1,2,16)     =   -179.916358     0.001304     0.177247  -179.739111
	   92 D(8,9,3,17)     =     -0.006146     0.000021     0.002833    -0.003313
	   93 D(8,9,4,18)     =      0.026933    -0.000013    -0.001789     0.025145
	   94 D(8,11,5,10)    =     -0.017270    -0.001928    -0.262000    -0.279270
	   95 D(8,11,5,19)    =    179.967774    -0.001284    -0.174505   179.793268
	   96 D(9,3,6,12)     =     -0.019721    -0.000000    -0.000019    -0.019740
	   97 D(9,3,6,20)     =   -179.997375     0.000006     0.000829  -179.996546
	   98 D(9,4,7,12)     =     -0.016764    -0.000006    -0.000839    -0.017604
	   99 D(9,4,7,21)     =    179.970928    -0.000001    -0.000084   179.970844
	  100 D(9,8,1,15)     =      0.023110     0.000548     0.074484     0.097594
	  101 D(9,8,11,14)    =      0.001883    -0.000517    -0.070230    -0.068347
	  102 D(10,2,1,15)    =    179.979432     0.001307     0.177703   180.157136
	  103 D(10,5,11,14)   =    179.997392    -0.001322    -0.179718   179.817675
	  104 D(11,5,10,13)   =   -179.989616    -0.005296    -0.720386  -180.710002
	  105 D(11,8,1,15)    =   -179.978731     0.001404     0.190903  -179.787829
	  106 D(12,6,3,17)    =   -179.975226    -0.000006    -0.000770  -179.975996
	  107 D(12,7,4,18)    =    179.935898    -0.000005    -0.000701   179.935197
	  108 D(13,10,2,16)   =     -0.075833     0.005931     0.805841     0.730008
	  109 D(13,10,5,19)   =      0.025437    -0.005944    -0.808457    -0.783020
	  110 D(14,11,5,19)   =     -0.017564    -0.000678    -0.092223    -0.109787
	  111 D(15,1,2,16)    =      0.043120     0.000663     0.090195     0.133314
	  112 D(17,3,6,20)    =      0.047120     0.000001     0.000078     0.047198
	  113 D(18,4,7,21)    =     -0.076410     0.000000     0.000055    -0.076355
	  114 D(20,6,12,22)   =     -0.060827    -0.000003    -0.000387    -0.061214
	  115 D(21,7,12,22)   =      0.070126    -0.000005    -0.000661     0.069466
	  116 R(4,14)         =      3.008738    -0.044481    -0.000118     3.008620
	 ---------------------------------------------------------------------------
	Successfully symmetrized geometry.
	 Forces used to impose fixed constraints are not included.
	  Forces zeroed: 72 

  ==> Convergence Check <==

  Measures of convergence in internal coordinates in au.
  Criteria marked as inactive (o), active & met (*), and active & unmet ( ).
  --------------------------------------------------------------------------------------------- ~
   Step     Total Energy     Delta E     MAX Force     RMS Force      MAX Disp      RMS Disp    ~
  --------------------------------------------------------------------------------------------- ~
    Convergence Criteria    1.00e-06 *    3.00e-04 *             o    1.20e-03 *             o  ~
  --------------------------------------------------------------------------------------------- ~
      1    -653.24280634   -6.53e+02      1.29e+00      1.43e-01 o    7.67e-02      9.28e-03 o  ~
  ---------------------------------------------------------------------------------------------

	Writing optimization data to binary file.
	Structure for next step:
	Cartesian Geometry (in Angstrom)
	    C    -1.3358129533   0.7678222274  -0.7872807177
	    C    -2.4122882698   1.3432293745  -0.1144089784
	    C     1.6083860371   0.3562051644  -1.6082996969
	    C     1.0979161878  -1.7765610087  -0.6113814878
	    C    -1.4181190982   0.7295087091   2.0004916847
	    C     2.6706037165  -0.2429805701  -2.2706708356
	    C     2.1731234080  -2.3210126557  -1.2987447834
	    C    -0.2992590514   0.1735762482  -0.0674715152
	    C     0.8162648712  -0.4233260655  -0.7709699529
	    C    -2.4507557617   1.3304051746   1.2796875432
	    C    -0.3417953304   0.1541568664   1.3265199889
	    N     2.9190638243  -1.5480827932  -2.0988962716
	    O    -3.5096087572   1.8799474801   1.9356070009
	    F     0.6446859667  -0.4162791058   2.0336157992
	    H    -1.3188986805   0.7879848030  -1.8742777163
	    H    -3.2189845537   1.8009838727  -0.6813779314
	    H     1.4116251425   1.4141236352  -1.7516822047
	    H     0.4960109542  -2.4087341616   0.0352655086
	    H    -1.4468297347   0.7080382249   3.0863421820
	    H     3.3373699553   0.2841515286  -2.9392902971
	    H     2.4648018900  -3.3602490411  -1.2344907237
	    H     3.7037926560  -1.9688005863  -2.5951909014
	    H    -3.4255606783   1.7325793016   2.8927725435
			--------------------------
			 OPTKING Finished Execution 
			--------------------------

    Structure for next step:
    Molecular point group: c1
    Full point group: C1

    Geometry (in Angstrom), charge = 1, multiplicity = 1:

    C           -1.337423683710     0.764889050000    -0.787451381546
    C           -2.413899000209     1.340296197130    -0.114579642317
    C            1.606775306678     0.353271987029    -1.608470360779
    C            1.096305457375    -1.779494186022    -0.611552151661
    C           -1.419729828601     0.726575531695     2.000321020828
    C            2.668992986102    -0.245913747467    -2.270841499425
    C            2.171512677618    -2.323945833055    -1.298915447261
    C           -0.300869781787     0.170643070841    -0.067642179106
    C            0.814654140784    -0.426259242817    -0.771140616799
    C           -2.452366492118     1.327471997267     1.279516879293
    C           -0.343406060860     0.151223689000     1.326349325004
    N            2.917453093905    -1.551015970535    -2.099066935426
    O           -3.511219487631     1.877014302702     1.935436337073
    F            0.643075236271    -0.419212283175     2.033445135341
    H           -1.320509410923     0.785051625662    -1.874448380121
    H           -3.220595284122     1.798050695337    -0.681548595251
    H            1.410014412119     1.411190457808    -1.751852868565
    H            0.494400223820    -2.411667339002     0.035094844781
    H           -1.448440465162     0.705105047580     3.086171518168
    H            3.335759224849     0.281218351262    -2.939460960993
    H            2.463191159569    -3.363182218447    -1.234661387520
    H            3.702181925553    -1.971733763665    -2.595361565306
    H           -3.427171408725     1.729646124285     2.892601879642

gradient() will perform analytic gradient computation.

*** tstart() called on gpu-2-5.local
*** at Sat Nov 11 19:08:15 2017

    SCF Algorithm Type (re)set to DF.

*** tstart() called on gpu-2-5.local
*** at Sat Nov 11 19:08:15 2017

   => Loading Basis Set <=

    Name: AUG-CC-PVTZ
    Role: ORBITAL
    Keyword: BASIS
    atoms 1-11  entry C          line   221 file /cbio/jclab/home/chayas/anaconda/envs/py35/share/psi4/basis/aug-cc-pvtz.gbs 
    atoms 12    entry N          line   267 file /cbio/jclab/home/chayas/anaconda/envs/py35/share/psi4/basis/aug-cc-pvtz.gbs 
    atoms 13    entry O          line   313 file /cbio/jclab/home/chayas/anaconda/envs/py35/share/psi4/basis/aug-cc-pvtz.gbs 
    atoms 14    entry F          line   359 file /cbio/jclab/home/chayas/anaconda/envs/py35/share/psi4/basis/aug-cc-pvtz.gbs 
    atoms 15-23 entry H          line    34 file /cbio/jclab/home/chayas/anaconda/envs/py35/share/psi4/basis/aug-cc-pvtz.gbs 


         ---------------------------------------------------------
                                   SCF
            by Justin Turney, Rob Parrish, and Andy Simmonett
                              RHF Reference
                        8 Threads,   4768 MiB Core
         ---------------------------------------------------------

  ==> Geometry <==

    Molecular point group: c1
    Full point group: C1

    Geometry (in Angstrom), charge = 1, multiplicity = 1:

       Center              X                  Y                   Z               Mass       
    ------------   -----------------  -----------------  -----------------  -----------------
           C         -1.337423683710     0.764889050000    -0.787451381546    12.000000000000
           C         -2.413899000209     1.340296197130    -0.114579642317    12.000000000000
           C          1.606775306678     0.353271987029    -1.608470360779    12.000000000000
           C          1.096305457375    -1.779494186022    -0.611552151661    12.000000000000
           C         -1.419729828601     0.726575531695     2.000321020828    12.000000000000
           C          2.668992986102    -0.245913747467    -2.270841499425    12.000000000000
           C          2.171512677618    -2.323945833055    -1.298915447261    12.000000000000
           C         -0.300869781787     0.170643070841    -0.067642179106    12.000000000000
           C          0.814654140784    -0.426259242817    -0.771140616799    12.000000000000
           C         -2.452366492118     1.327471997267     1.279516879293    12.000000000000
           C         -0.343406060860     0.151223689000     1.326349325004    12.000000000000
           N          2.917453093905    -1.551015970535    -2.099066935426    14.003074004780
           O         -3.511219487631     1.877014302702     1.935436337073    15.994914619560
           F          0.643075236271    -0.419212283175     2.033445135341    18.998403224000
           H         -1.320509410923     0.785051625662    -1.874448380121     1.007825032070
           H         -3.220595284122     1.798050695337    -0.681548595251     1.007825032070
           H          1.410014412119     1.411190457808    -1.751852868565     1.007825032070
           H          0.494400223820    -2.411667339002     0.035094844781     1.007825032070
           H         -1.448440465162     0.705105047580     3.086171518168     1.007825032070
           H          3.335759224849     0.281218351262    -2.939460960993     1.007825032070
           H          2.463191159569    -3.363182218447    -1.234661387520     1.007825032070
           H          3.702181925553    -1.971733763665    -2.595361565306     1.007825032070
           H         -3.427171408725     1.729646124285     2.892601879642     1.007825032070

  Running in c1 symmetry.

  Rotational constants: A =      0.06291  B =      0.01289  C =      0.01150 [cm^-1]
  Rotational constants: A =   1885.94254  B =    386.37266  C =    344.74256 [MHz]
  Nuclear repulsion =  829.466011433212657

  Charge       = 1
  Multiplicity = 1
  Electrons    = 98
  Nalpha       = 49
  Nbeta        = 49

  ==> Algorithm <==

  SCF Algorithm Type is DF.
  DIIS enabled.
  MOM disabled.
  Fractional occupation disabled.
  Guess Type is READ.
  Energy threshold   = 1.00e-10
  Density threshold  = 1.00e-10
  Integral threshold = 0.00e+00

  ==> Primary Basis <==

  Basis Set: AUG-CC-PVTZ
    Blend: AUG-CC-PVTZ
    Number of shells: 277
    Number of basis function: 851
    Number of Cartesian functions: 995
    Spherical Harmonics?: true
    Max angular momentum: 3

   => Loading Basis Set <=

    Name: (AUG-CC-PVTZ AUX)
    Role: JKFIT
    Keyword: DF_BASIS_SCF
    atoms 1-11  entry C          line   161 file /cbio/jclab/home/chayas/anaconda/envs/py35/share/psi4/basis/aug-cc-pvtz-jkfit.gbs 
    atoms 12    entry N          line   223 file /cbio/jclab/home/chayas/anaconda/envs/py35/share/psi4/basis/aug-cc-pvtz-jkfit.gbs 
    atoms 13    entry O          line   285 file /cbio/jclab/home/chayas/anaconda/envs/py35/share/psi4/basis/aug-cc-pvtz-jkfit.gbs 
    atoms 14    entry F          line   347 file /cbio/jclab/home/chayas/anaconda/envs/py35/share/psi4/basis/aug-cc-pvtz-jkfit.gbs 
    atoms 15-23 entry H          line    69 file /cbio/jclab/home/chayas/anaconda/envs/py35/share/psi4/basis/aug-cc-pvtz-jkfit.gbs 

  Reading orbitals from file 180, no projection.

  ==> Pre-Iterations <==

   -------------------------------------------------------
    Irrep   Nso     Nmo     Nalpha   Nbeta   Ndocc  Nsocc
   -------------------------------------------------------
     A        851     851       0       0       0       0
   -------------------------------------------------------
    Total     851     851      49      49      49       0
   -------------------------------------------------------

  ==> Integral Setup <==

  ==> DFJK: Density-Fitted J/K Matrices <==

    J tasked:                  Yes
    K tasked:                  Yes
    wK tasked:                  No
    OpenMP threads:              8
    Integrals threads:           8
    Memory (MB):              3576
    Algorithm:                Disk
    Integral Cache:           NONE
    Schwarz Cutoff:          1E-12
    Fitting Condition:       1E-12

   => Auxiliary Basis Set <=

  Basis Set: (AUG-CC-PVTZ AUX)
    Blend: AUG-CC-PVTZ-JKFIT
    Number of shells: 546
    Number of basis function: 1870
    Number of Cartesian functions: 2329
    Spherical Harmonics?: true
    Max angular momentum: 4

  Minimum eigenvalue in the overlap matrix is 6.8799766653E-07.
  Using Symmetric Orthogonalization.

  SCF Guess: Orbitals guess was supplied from a previous computation.

  ==> Iterations <==

                           Total Energy        Delta E     RMS |[F,P]|

   @DF-RHF iter   0:  -650.55778036829838   -6.50558e+02   1.30516e-04 
   @DF-RHF iter   1:  -650.55942955012415   -1.64918e-03   2.81932e-05 
   @DF-RHF iter   2:  -650.55949420622881   -6.46561e-05   1.05470e-05 DIIS
   @DF-RHF iter   3:  -650.55950580813999   -1.16019e-05   6.54761e-06 DIIS
   @DF-RHF iter   4:  -650.55950979232489   -3.98418e-06   1.45623e-06 DIIS
   @DF-RHF iter   5:  -650.55951014979109   -3.57466e-07   8.29669e-07 DIIS
   @DF-RHF iter   6:  -650.55951020516557   -5.53745e-08   1.94064e-07 DIIS
   @DF-RHF iter   7:  -650.55951020918144   -4.01587e-09   4.57726e-08 DIIS
   @DF-RHF iter   8:  -650.55951020940802   -2.26578e-10   1.92057e-08 DIIS
   @DF-RHF iter   9:  -650.55951020943655   -2.85354e-11   5.97175e-09 DIIS
   @DF-RHF iter  10:  -650.55951020943655    0.00000e+00   2.42631e-09 DIIS
   @DF-RHF iter  11:  -650.55951020947145   -3.49019e-11   1.12571e-09 DIIS
   @DF-RHF iter  12:  -650.55951020945554    1.59162e-11   4.61487e-10 DIIS
   @DF-RHF iter  13:  -650.55951020945679   -1.25056e-12   1.82470e-10 DIIS
   @DF-RHF iter  14:  -650.55951020947441   -1.76215e-11   5.59317e-11 DIIS

  ==> Post-Iterations <==

    Orbital Energies (a.u.)
    -----------------------

    Doubly Occupied:                                                      

       1A    -26.444573     2A    -20.705393     3A    -15.843495  
       4A    -11.490105     5A    -11.488624     6A    -11.469367  
       7A    -11.451770     8A    -11.438136     9A    -11.421785  
      10A    -11.420651    11A    -11.384298    12A    -11.377904  
      13A    -11.361334    14A    -11.353799    15A     -1.762777  
      16A     -1.519659    17A     -1.518737    18A     -1.325207  
      19A     -1.270922    20A     -1.242877    21A     -1.163857  
      22A     -1.151970    23A     -1.072832    24A     -1.061484  
      25A     -0.991097    26A     -0.969294    27A     -0.963004  
      28A     -0.890074    29A     -0.873935    30A     -0.859300  
      31A     -0.856324    32A     -0.828857    33A     -0.820999  
      34A     -0.806840    35A     -0.798760    36A     -0.780754  
      37A     -0.757898    38A     -0.748425    39A     -0.727683  
      40A     -0.717006    41A     -0.705573    42A     -0.686932  
      43A     -0.653846    44A     -0.645018    45A     -0.618920  
      46A     -0.578209    47A     -0.540626    48A     -0.470629  
      49A     -0.446017  

    Virtual:                                                              

      50A     -0.105371    51A     -0.086697    52A     -0.067204  
      53A     -0.062972    54A     -0.058422    55A     -0.050445  
      56A     -0.042052    57A     -0.039854    58A     -0.034508  
      59A     -0.029942    60A     -0.024737    61A     -0.018542  
      62A     -0.013130    63A     -0.010551    64A     -0.006633  
      65A     -0.001798    66A      0.001273    67A      0.008232  
      68A      0.009148    69A      0.013289    70A      0.016432  
      71A      0.018708    72A      0.023978    73A      0.025684  
      74A      0.031288    75A      0.033054    76A      0.034512  
      77A      0.037989    78A      0.040379    79A      0.042477  
      80A      0.047186    81A      0.051563    82A      0.055006  
      83A      0.060732    84A      0.065226    85A      0.067028  
      86A      0.070031    87A      0.078069    88A      0.080108  
      89A      0.083595    90A      0.086384    91A      0.091999  
      92A      0.095901    93A      0.101403    94A      0.107170  
      95A      0.111387    96A      0.116697    97A      0.117721  
      98A      0.124001    99A      0.129064   100A      0.133016  
     101A      0.136201   102A      0.137611   103A      0.140689  
     104A      0.142871   105A      0.150546   106A      0.155537  
     107A      0.158525   108A      0.160915   109A      0.164628  
     110A      0.167019   111A      0.169066   112A      0.173682  
     113A      0.175260   114A      0.180192   115A      0.184615  
     116A      0.189152   117A      0.196215   118A      0.197599  
     119A      0.198771   120A      0.206436   121A      0.209153  
     122A      0.210320   123A      0.216918   124A      0.221095  
     125A      0.222399   126A      0.223707   127A      0.228604  
     128A      0.233264   129A      0.236042   130A      0.241490  
     131A      0.244683   132A      0.249078   133A      0.252985  
     134A      0.254398   135A      0.260117   136A      0.267990  
     137A      0.268436   138A      0.274136   139A      0.280126  
     140A      0.281980   141A      0.284115   142A      0.292619  
     143A      0.294513   144A      0.296941   145A      0.305213  
     146A      0.312855   147A      0.315141   148A      0.318253  
     149A      0.322292   150A      0.324820   151A      0.328382  
     152A      0.328683   153A      0.332783   154A      0.336184  
     155A      0.341437   156A      0.343681   157A      0.344913  
     158A      0.349254   159A      0.351286   160A      0.353989  
     161A      0.360671   162A      0.363709   163A      0.369561  
     164A      0.371430   165A      0.373576   166A      0.378455  
     167A      0.380151   168A      0.380820   169A      0.389293  
     170A      0.391081   171A      0.391517   172A      0.402136  
     173A      0.403068   174A      0.405750   175A      0.407097  
     176A      0.413380   177A      0.418694   178A      0.423885  
     179A      0.424535   180A      0.428135   181A      0.430355  
     182A      0.434886   183A      0.439289   184A      0.444418  
     185A      0.452136   186A      0.454816   187A      0.459425  
     188A      0.465207   189A      0.470715   190A      0.476880  
     191A      0.480543   192A      0.482860   193A      0.488352  
     194A      0.492111   195A      0.506321   196A      0.507688  
[...]
     128A      0.232380   129A      0.235623   130A      0.242748  
     131A      0.244003   132A      0.249384   133A      0.251977  
     134A      0.257044   135A      0.257132   136A      0.265358  
     137A      0.265860   138A      0.271079   139A      0.274458  
     140A      0.280103   141A      0.283461   142A      0.286697  
     143A      0.287770   144A      0.297255   145A      0.304096  
     146A      0.306733   147A      0.315047   148A      0.318057  
     149A      0.319817   150A      0.320516   151A      0.326226  
     152A      0.327004   153A      0.332298   154A      0.333443  
     155A      0.338730   156A      0.339496   157A      0.345478  
     158A      0.351417   159A      0.352402   160A      0.353600  
     161A      0.358934   162A      0.364995   163A      0.367076  
     164A      0.370180   165A      0.373467   166A      0.378188  
     167A      0.380687   168A      0.386881   169A      0.387978  
     170A      0.390962   171A      0.395227   172A      0.399395  
     173A      0.399650   174A      0.405436   175A      0.409197  
     176A      0.413567   177A      0.415682   178A      0.420756  
     179A      0.423671   180A      0.425686   181A      0.430366  
     182A      0.433744   183A      0.436366   184A      0.446192  
     185A      0.447744   186A      0.453655   187A      0.460344  
     188A      0.466207   189A      0.470344   190A      0.472685  
     191A      0.476469   192A      0.486027   193A      0.488367  
     194A      0.496593   195A      0.501539   196A      0.506836  
     197A      0.515548   198A      0.518686   199A      0.522405  
     200A      0.524900   201A      0.532256   202A      0.536346  
     203A      0.545501   204A      0.558117   205A      0.559994  
     206A      0.564740   207A      0.566777   208A      0.571585  
     209A      0.580564   210A      0.580891   211A      0.582964  
     212A      0.594753   213A      0.598220   214A      0.604070  
     215A      0.607172   216A      0.609545   217A      0.611827  
     218A      0.619915   219A      0.625253   220A      0.628421  
     221A      0.634440   222A      0.642661   223A      0.645845  
     224A      0.660449   225A      0.661803   226A      0.668164  
     227A      0.675694   228A      0.683751   229A      0.685407  
     230A      0.696498   231A      0.701191   232A      0.706039  
     233A      0.708667   234A      0.714611   235A      0.727052  
     236A      0.731601   237A      0.735844   238A      0.740708  
     239A      0.744831   240A      0.750948   241A      0.752962  
     242A      0.756463   243A      0.765326   244A      0.769488  
     245A      0.773048   246A      0.774883   247A      0.783120  
     248A      0.785219   249A      0.789281   250A      0.793148  
     251A      0.796748   252A      0.800472   253A      0.805666  
     254A      0.809099   255A      0.815111   256A      0.819291  
     257A      0.825201   258A      0.833375   259A      0.838020  
     260A      0.843400   261A      0.846745   262A      0.846957  
     263A      0.852952   264A      0.856083   265A      0.862359  
     266A      0.867741   267A      0.873608   268A      0.874066  
     269A      0.876538   270A      0.881562   271A      0.882918  
     272A      0.893786   273A      0.898323   274A      0.903347  
     275A      0.911392   276A      0.915175   277A      0.917229  
     278A      0.921998   279A      0.925395   280A      0.930342  
     281A      0.933700   282A      0.941974   283A      0.943846  
     284A      0.951170   285A      0.959085   286A      0.962184  
     287A      0.968296   288A      0.969866   289A      0.973027  
     290A      0.978936   291A      0.980231   292A      0.987493  
     293A      0.988147   294A      0.991386   295A      0.996565  
     296A      1.000067   297A      1.004878   298A      1.010005  
     299A      1.014502   300A      1.021041   301A      1.024384  
     302A      1.026004   303A      1.035725   304A      1.038298  
     305A      1.045172   306A      1.049399   307A      1.052440  
     308A      1.059862   309A      1.066376   310A      1.071636  
     311A      1.074332   312A      1.075224   313A      1.079220  
     314A      1.083856   315A      1.089362   316A      1.095852  
     317A      1.103676   318A      1.104509   319A      1.109828  
     320A      1.123486   321A      1.125786   322A      1.130076  
     323A      1.134574   324A      1.142109   325A      1.144626  
     326A      1.148381   327A      1.154220   328A      1.164021  
     329A      1.165362   330A      1.170558   331A      1.183415  
     332A      1.192132   333A      1.196311   334A      1.200981  
     335A      1.212586   336A      1.215793   337A      1.218615  
     338A      1.228173   339A      1.233520   340A      1.242482  
     341A      1.245446   342A      1.250826   343A      1.252545  
     344A      1.255006   345A      1.267040   346A      1.272757  
     347A      1.275178   348A      1.282644   349A      1.287087  
     350A      1.289903   351A      1.297554   352A      1.307617  
     353A      1.316824   354A      1.325591   355A      1.333746  
     356A      1.339206   357A      1.346503   358A      1.356479  
     359A      1.361963   360A      1.368176   361A      1.380423  
     362A      1.387314   363A      1.390277   364A      1.396527  
     365A      1.406438   366A      1.411392   367A      1.417907  
     368A      1.422762   369A      1.430952   370A      1.441773  
     371A      1.447077   372A      1.452470   373A      1.460389  
     374A      1.476319   375A      1.478240   376A      1.489382  
     377A      1.500812   378A      1.502075   379A      1.506423  
     380A      1.510376   381A      1.517845   382A      1.521515  
     383A      1.529204   384A      1.531840   385A      1.536730  
     386A      1.539380   387A      1.550885   388A      1.557175  
     389A      1.562621   390A      1.574897   391A      1.583298  
     392A      1.598666   393A      1.601497   394A      1.609161  
     395A      1.620074   396A      1.625501   397A      1.633619  
     398A      1.648315   399A      1.649611   400A      1.658903  
     401A      1.669572   402A      1.675921   403A      1.681391  
     404A      1.689395   405A      1.696333   406A      1.702806  
     407A      1.704693   408A      1.716210   409A      1.722305  
     410A      1.731212   411A      1.743235   412A      1.748417  
     413A      1.754151   414A      1.766812   415A      1.772537  
     416A      1.780520   417A      1.786011   418A      1.798022  
     419A      1.800126   420A      1.811525   421A      1.815564  
     422A      1.822842   423A      1.828260   424A      1.833244  
     425A      1.846749   426A      1.848108   427A      1.857470  
     428A      1.868259   429A      1.870230   430A      1.879001  
     431A      1.887735   432A      1.896005   433A      1.899283  
     434A      1.911672   435A      1.920655   436A      1.924099  
     437A      1.925618   438A      1.928922   439A      1.937099  
     440A      1.944500   441A      1.957580   442A      1.966382  
     443A      1.971385   444A      1.984168   445A      1.994483  
     446A      2.003287   447A      2.009556   448A      2.016952  
     449A      2.022214   450A      2.032300   451A      2.043247  
     452A      2.047280   453A      2.060034   454A      2.071412  
     455A      2.074356   456A      2.082129   457A      2.092157  
     458A      2.100276   459A      2.125355   460A      2.128407  
     461A      2.131246   462A      2.141733   463A      2.151020  
     464A      2.168247   465A      2.175620   466A      2.180322  
     467A      2.190385   468A      2.195190   469A      2.203615  
     470A      2.211706   471A      2.222906   472A      2.232801  
     473A      2.242092   474A      2.253607   475A      2.265554  
     476A      2.267108   477A      2.281223   478A      2.291951  
     479A      2.308103   480A      2.314330   481A      2.320022  
     482A      2.332503   483A      2.344434   484A      2.369295  
     485A      2.377425   486A      2.381708   487A      2.393324  
     488A      2.396868   489A      2.407730   490A      2.418497  
     491A      2.433913   492A      2.445485   493A      2.447553  
     494A      2.469486   495A      2.500493   496A      2.502969  
     497A      2.520378   498A      2.529443   499A      2.540826  
     500A      2.547145   501A      2.557981   502A      2.567159  
     503A      2.574334   504A      2.584686   505A      2.595071  
     506A      2.604334   507A      2.632482   508A      2.642394  
     509A      2.643826   510A      2.664544   511A      2.698890  
     512A      2.704213   513A      2.726935   514A      2.747855  
     515A      2.767180   516A      2.775417   517A      2.811037  
     518A      2.827717   519A      2.854344   520A      2.863708  
     521A      2.883615   522A      2.883821   523A      2.917848  
     524A      2.933085   525A      2.940036   526A      2.959419  
     527A      2.969591   528A      2.984762   529A      2.993654  
     530A      3.013932   531A      3.022662   532A      3.031188  
     533A      3.042155   534A      3.053897   535A      3.068331  
     536A      3.084635   537A      3.087581   538A      3.110732  
     539A      3.115368   540A      3.126861   541A      3.133049  
     542A      3.142627   543A      3.149921   544A      3.162562  
     545A      3.190390   546A      3.197543   547A      3.204762  
     548A      3.227139   549A      3.237528   550A      3.246284  
     551A      3.255187   552A      3.264073   553A      3.273532  
     554A      3.290780   555A      3.297682   556A      3.312046  
     557A      3.314407   558A      3.322253   559A      3.334584  
     560A      3.343993   561A      3.357642   562A      3.363345  
     563A      3.370368   564A      3.376180   565A      3.382503  
     566A      3.391558   567A      3.405623   568A      3.408994  
     569A      3.415787   570A      3.424974   571A      3.433397  
     572A      3.438155   573A      3.448071   574A      3.459534  
     575A      3.462943   576A      3.475167   577A      3.484249  
     578A      3.495970   579A      3.499550   580A      3.511546  
     581A      3.520352   582A      3.534626   583A      3.538530  
     584A      3.545139   585A      3.560509   586A      3.561345  
     587A      3.571950   588A      3.582934   589A      3.594005  
     590A      3.604982   591A      3.615283   592A      3.619549  
     593A      3.635988   594A      3.638794   595A      3.649727  
     596A      3.651159   597A      3.658979   598A      3.664763  
     599A      3.671949   600A      3.682871   601A      3.694482  
     602A      3.706607   603A      3.711997   604A      3.720527  
     605A      3.732375   606A      3.733938   607A      3.744247  
     608A      3.753968   609A      3.758610   610A      3.767457  
     611A      3.772880   612A      3.779239   613A      3.794017  
     614A      3.799370   615A      3.803717   616A      3.820582  
     617A      3.829571   618A      3.841118   619A      3.850756  
     620A      3.856316   621A      3.860303   622A      3.862714  
     623A      3.868090   624A      3.883048   625A      3.896209  
     626A      3.902724   627A      3.907077   628A      3.913390  
     629A      3.920602   630A      3.931701   631A      3.948242  
     632A      3.954548   633A      3.956011   634A      3.974096  
     635A      3.978412   636A      3.987481   637A      4.000001  
     638A      4.004700   639A      4.018670   640A      4.026352  
     641A      4.036204   642A      4.037668   643A      4.049505  
     644A      4.064868   645A      4.068424   646A      4.085631  
     647A      4.098899   648A      4.101773   649A      4.102955  
     650A      4.119435   651A      4.122394   652A      4.130424  
     653A      4.144903   654A      4.156668   655A      4.163179  
     656A      4.168700   657A      4.185380   658A      4.201649  
     659A      4.204721   660A      4.208191   661A      4.221412  
     662A      4.231860   663A      4.237445   664A      4.241578  
     665A      4.242715   666A      4.261427   667A      4.265563  
     668A      4.269229   669A      4.280101   670A      4.293380  
     671A      4.300510   672A      4.310443   673A      4.318090  
     674A      4.324867   675A      4.332921   676A      4.342175  
     677A      4.355512   678A      4.366489   679A      4.373329  
     680A      4.387379   681A      4.393247   682A      4.402777  
     683A      4.420112   684A      4.429407   685A      4.438499  
     686A      4.446392   687A      4.456502   688A      4.457648  
     689A      4.477147   690A      4.490737   691A      4.506526  
     692A      4.518998   693A      4.534946   694A      4.555691  
     695A      4.566033   696A      4.574456   697A      4.598204  
     698A      4.609827   699A      4.631156   700A      4.635397  
     701A      4.641179   702A      4.652531   703A      4.664350  
     704A      4.673564   705A      4.690103   706A      4.700027  
     707A      4.703767   708A      4.729674   709A      4.744578  
     710A      4.764940   711A      4.772129   712A      4.787995  
     713A      4.790674   714A      4.811586   715A      4.815040  
     716A      4.827478   717A      4.830852   718A      4.835239  
     719A      4.842250   720A      4.877993   721A      4.885040  
     722A      4.890331   723A      4.906588   724A      4.920501  
     725A      4.927160   726A      4.934185   727A      4.944174  
     728A      4.957579   729A      4.964506   730A      4.987398  
     731A      4.997681   732A      5.012215   733A      5.019099  
     734A      5.021929   735A      5.032714   736A      5.045335  
     737A      5.056892   738A      5.070878   739A      5.082650  
     740A      5.097195   741A      5.099705   742A      5.132389  
     743A      5.143182   744A      5.163896   745A      5.173797  
     746A      5.188792   747A      5.204323   748A      5.220449  
     749A      5.235858   750A      5.254348   751A      5.262717  
     752A      5.269829   753A      5.303296   754A      5.330015  
     755A      5.335747   756A      5.369179   757A      5.374623  
     758A      5.387008   759A      5.402796   760A      5.423217  
     761A      5.451152   762A      5.459905   763A      5.480056  
     764A      5.510030   765A      5.532814   766A      5.561782  
     767A      5.584593   768A      5.603410   769A      5.609957  
     770A      5.617183   771A      5.634982   772A      5.656045  
     773A      5.662945   774A      5.692409   775A      5.696416  
     776A      5.731770   777A      5.775335   778A      5.829571  
     779A      5.838767   780A      5.856325   781A      5.895840  
     782A      5.927609   783A      5.970167   784A      5.981035  
     785A      6.005791   786A      6.030934   787A      6.090751  
     788A      6.140653   789A      6.159817   790A      6.171851  
     791A      6.187437   792A      6.209300   793A      6.271426  
     794A      6.342617   795A      6.360279   796A      6.408589  
     797A      6.418613   798A      6.464551   799A      6.515510  
     800A      6.548473   801A      6.567836   802A      6.615574  
     803A      6.631127   804A      6.671345   805A      6.748756  
     806A      6.793992   807A      6.803074   808A      6.832589  
     809A      6.864567   810A      6.913817   811A      6.945284  
     812A      6.968023   813A      7.120911   814A      7.176087  
     815A      7.299234   816A      7.337818   817A      7.356724  
     818A      7.444650   819A      7.466747   820A      7.501237  
     821A      7.539222   822A      7.771941   823A      7.813616  
     824A      8.030435   825A      8.361556   826A      8.894151  
     827A      8.932198   828A      9.154781   829A      9.177825  
     830A      9.298025   831A      9.401265   832A      9.429119  
     833A      9.472728   834A      9.525260   835A      9.606815  
     836A      9.921082   837A      9.968414   838A     15.793759  
     839A     16.199027   840A     16.412664   841A     16.503767  
     842A     16.689731   843A     16.754476   844A     18.671665  
     845A     19.200538   846A     19.409645   847A     19.579620  
     848A     20.118272   849A     20.156306   850A     20.403707  
     851A     21.702569  

    Final Occupation by Irrep:
              A 
    DOCC [    49 ]

  Energy converged.

  @DF-RHF Final Energy:  -650.53836651486836

   => Energetics <=

    Nuclear Repulsion Energy =            829.2986748586773729
    One-Electron Energy =               -2518.8227252359783961
    Two-Electron Energy =                1038.9856838624327793
    DFT Exchange-Correlation Energy =       0.0000000000000000
    Empirical Dispersion Energy =           0.0000000000000000
    PCM Polarization Energy =               0.0000000000000000
    EFP Energy =                            0.0000000000000000
    Total Energy =                       -650.5383665148683576



Properties will be evaluated at   0.000000,   0.000000,   0.000000 Bohr

Properties computed using the SCF density matrix

  Nuclear Dipole Moment: (a.u.)
     X:     0.5091      Y:    -1.4756      Z:    -7.2998

  Electronic Dipole Moment: (a.u.)
     X:     2.1535      Y:    -0.7353      Z:     4.4006

  Dipole Moment: (a.u.)
     X:     2.6626      Y:    -2.2109      Z:    -2.8992     Total:     4.5148

  Dipole Moment: (Debye)
     X:     6.7677      Y:    -5.6196      Z:    -7.3691     Total:    11.4754


*** tstop() called on gpu-2-5.local at Sun Nov 12 18:10:31 2017
Module time:
	user time   =     972.93 seconds =      16.22 minutes
	system time =      40.33 seconds =       0.67 minutes
	total time  =        421 seconds =       7.02 minutes
Total time:
	user time   =  183523.75 seconds =    3058.73 minutes
	system time =    3140.85 seconds =      52.35 minutes
	total time  =      86049 seconds =    1434.15 minutes

  //>>>>>>>>>>>>>>>>>>>>>>>>>>>>>>>>>>>//
  //               DFMP2               //
  //<<<<<<<<<<<<<<<<<<<<<<<<<<<<<<<<<<<//

   => Loading Basis Set <=

    Name: (AUG-CC-PVTZ AUX)
    Role: RIFIT
    Keyword: DF_BASIS_MP2
    atoms 1-11  entry C          line   147 file /cbio/jclab/home/chayas/anaconda/envs/py35/share/psi4/basis/aug-cc-pvtz-ri.gbs 
    atoms 12    entry N          line   205 file /cbio/jclab/home/chayas/anaconda/envs/py35/share/psi4/basis/aug-cc-pvtz-ri.gbs 
    atoms 13    entry O          line   263 file /cbio/jclab/home/chayas/anaconda/envs/py35/share/psi4/basis/aug-cc-pvtz-ri.gbs 
    atoms 14    entry F          line   321 file /cbio/jclab/home/chayas/anaconda/envs/py35/share/psi4/basis/aug-cc-pvtz-ri.gbs 
    atoms 15-23 entry H          line    29 file /cbio/jclab/home/chayas/anaconda/envs/py35/share/psi4/basis/aug-cc-pvtz-ri.gbs 

	 --------------------------------------------------------
	                          DF-MP2                         
	      2nd-Order Density-Fitted Moller-Plesset Theory     
	              RMP2 Wavefunction,   8 Threads             
	                                                         
	        Rob Parrish, Justin Turney, Andy Simmonett,      
	           Ed Hohenstein, and C. David Sherrill          
	 --------------------------------------------------------

   => Auxiliary Basis Set <=

  Basis Set: (AUG-CC-PVTZ AUX)
    Blend: AUG-CC-PVTZ-RI
    Number of shells: 518
    Number of basis function: 1898
    Number of Cartesian functions: 2399
    Spherical Harmonics?: true
    Max angular momentum: 4

	 --------------------------------------------------------
	                 NBF =   851, NAUX =  1898
	 --------------------------------------------------------
	   CLASS    FOCC     OCC    AOCC    AVIR     VIR    FVIR
	   PAIRS       0      49      49     802     802       0
	 --------------------------------------------------------

