
    -----------------------------------------------------------------------
          Psi4: An Open-Source Ab Initio Electronic Structure Package
                               Psi4 1.1 release

                         Git: Rev {HEAD} add49b9 


    R. M. Parrish, L. A. Burns, D. G. A. Smith, A. C. Simmonett,
    A. E. DePrince III, E. G. Hohenstein, U. Bozkaya, A. Yu. Sokolov,
    R. Di Remigio, R. M. Richard, J. F. Gonthier, A. M. James,
    H. R. McAlexander, A. Kumar, M. Saitow, X. Wang, B. P. Pritchard,
    P. Verma, H. F. Schaefer III, K. Patkowski, R. A. King, E. F. Valeev,
    F. A. Evangelista, J. M. Turney, T. D. Crawford, and C. D. Sherrill,
    J. Chem. Theory Comput. in press (2017).
    (doi: 10.1021/acs.jctc.7b00174)

    -----------------------------------------------------------------------


    Psi4 started on: Sunday, 12 November 2017 12:16AM

    Process ID:  21461
    PSIDATADIR: /cbio/jclab/home/chayas/anaconda/envs/py35/share/psi4
    Memory:     500.0 MiB
    Threads:    8
    
  ==> Input File <==

--------------------------------------------------------------------------

memory 5 Gb

molecule phepyrFOH_neutral {
  symmetry C1
  0 1 
  C      1.885   -1.036   -0.112
  C      0.807   -0.463   0.561
  C      3.825   -3.269   -0.988
  C      5.328   -1.753   0.119
  C      1.800   -1.079   2.676
  C      4.927   -3.802   -1.637
  C      6.363   -2.354   -0.579
  C      2.921   -1.631   0.608
  C      4.038   -2.225   -0.095
  C      0.764   -0.484   1.955
  C      2.878   -1.652   2.002
  N      6.195   -3.370   -1.455
  O      -0.289   0.076   2.612
  F      3.866   -2.220   2.709
  H      1.904   -1.012   -1.199
  H      0.002   -0.002   -0.006
  H      2.833   -3.663   -1.183
  H      5.532   -0.940   0.809
  H      1.772   -1.099   3.762
  H      4.814   -4.616   -2.345
  H      7.387   -2.023   -0.446
  H      -1.117   -0.360   2.354
  units Angstrom
}

dih_string = "2 10 13 22 60"
set optking fixed_dihedral = $dih_string

optimize('MP2/aug-cc-PVTZ')
--------------------------------------------------------------------------

  Memory set to   4.657 GiB by Python driver.
gradient() will perform analytic gradient computation.

*** tstart() called on gpu-3-8.local
*** at Sun Nov 12 00:16:07 2017

    SCF Algorithm Type (re)set to DF.

*** tstart() called on gpu-3-8.local
*** at Sun Nov 12 00:16:07 2017

   => Loading Basis Set <=

    Name: AUG-CC-PVTZ
    Role: ORBITAL
    Keyword: BASIS
    atoms 1-11  entry C          line   221 file /cbio/jclab/home/chayas/anaconda/envs/py35/share/psi4/basis/aug-cc-pvtz.gbs 
    atoms 12    entry N          line   267 file /cbio/jclab/home/chayas/anaconda/envs/py35/share/psi4/basis/aug-cc-pvtz.gbs 
    atoms 13    entry O          line   313 file /cbio/jclab/home/chayas/anaconda/envs/py35/share/psi4/basis/aug-cc-pvtz.gbs 
    atoms 14    entry F          line   359 file /cbio/jclab/home/chayas/anaconda/envs/py35/share/psi4/basis/aug-cc-pvtz.gbs 
    atoms 15-22 entry H          line    34 file /cbio/jclab/home/chayas/anaconda/envs/py35/share/psi4/basis/aug-cc-pvtz.gbs 


         ---------------------------------------------------------
                                   SCF
            by Justin Turney, Rob Parrish, and Andy Simmonett
                              RHF Reference
                        8 Threads,   4768 MiB Core
         ---------------------------------------------------------

  ==> Geometry <==

    Molecular point group: c1
    Full point group: C1

    Geometry (in Angstrom), charge = 0, multiplicity = 1:

       Center              X                  Y                   Z               Mass       
    ------------   -----------------  -----------------  -----------------  -----------------
           C         -1.316721868798     0.756824121103    -0.793007444902    12.000000000000
           C         -2.394721868798     1.329824121103    -0.120007444902    12.000000000000
           C          0.623278131202    -1.476175878897    -1.669007444902    12.000000000000
           C          2.126278131202     0.039824121103    -0.562007444902    12.000000000000
           C         -1.401721868798     0.713824121103     1.994992555098    12.000000000000
           C          1.725278131202    -2.009175878897    -2.318007444902    12.000000000000
           C          3.161278131202    -0.561175878897    -1.260007444902    12.000000000000
           C         -0.280721868798     0.161824121103    -0.073007444902    12.000000000000
           C          0.836278131202    -0.432175878897    -0.776007444902    12.000000000000
           C         -2.437721868798     1.308824121103     1.273992555098    12.000000000000
           C         -0.323721868798     0.140824121103     1.320992555098    12.000000000000
           N          2.993278131202    -1.577175878897    -2.136007444902    14.003074004780
           O         -3.490721868798     1.868824121103     1.930992555098    15.994914619560
           F          0.664278131202    -0.427175878897     2.027992555098    18.998403224000
           H         -1.297721868798     0.780824121103    -1.880007444902     1.007825032070
           H         -3.199721868798     1.790824121103    -0.687007444902     1.007825032070
           H         -0.368721868798    -1.870175878897    -1.864007444902     1.007825032070
           H          2.330278131202     0.852824121103     0.127992555098     1.007825032070
           H         -1.429721868798     0.693824121103     3.080992555098     1.007825032070
           H          1.612278131202    -2.823175878897    -3.026007444902     1.007825032070
           H          4.185278131202    -0.230175878897    -1.127007444902     1.007825032070
           H         -4.318721868798     1.432824121103     1.672992555098     1.007825032070

  Running in c1 symmetry.

  Rotational constants: A =      0.06308  B =      0.01307  C =      0.01165 [cm^-1]
  Rotational constants: A =   1890.99139  B =    391.92266  C =    349.16388 [MHz]
  Nuclear repulsion =  813.830187686584509

  Charge       = 0
  Multiplicity = 1
  Electrons    = 98
  Nalpha       = 49
  Nbeta        = 49

  ==> Algorithm <==

  SCF Algorithm Type is DF.
  DIIS enabled.
  MOM disabled.
  Fractional occupation disabled.
  Guess Type is SAD.
  Energy threshold   = 1.00e-10
  Density threshold  = 1.00e-10
  Integral threshold = 0.00e+00

  ==> Primary Basis <==

  Basis Set: AUG-CC-PVTZ
    Blend: AUG-CC-PVTZ
    Number of shells: 268
    Number of basis function: 828
    Number of Cartesian functions: 970
    Spherical Harmonics?: true
    Max angular momentum: 3

   => Loading Basis Set <=

    Name: (AUG-CC-PVTZ AUX)
    Role: JKFIT
    Keyword: DF_BASIS_SCF
    atoms 1-11  entry C          line   161 file /cbio/jclab/home/chayas/anaconda/envs/py35/share/psi4/basis/aug-cc-pvtz-jkfit.gbs 
    atoms 12    entry N          line   223 file /cbio/jclab/home/chayas/anaconda/envs/py35/share/psi4/basis/aug-cc-pvtz-jkfit.gbs 
    atoms 13    entry O          line   285 file /cbio/jclab/home/chayas/anaconda/envs/py35/share/psi4/basis/aug-cc-pvtz-jkfit.gbs 
    atoms 14    entry F          line   347 file /cbio/jclab/home/chayas/anaconda/envs/py35/share/psi4/basis/aug-cc-pvtz-jkfit.gbs 
    atoms 15-22 entry H          line    69 file /cbio/jclab/home/chayas/anaconda/envs/py35/share/psi4/basis/aug-cc-pvtz-jkfit.gbs 

  ==> Pre-Iterations <==

   -------------------------------------------------------
    Irrep   Nso     Nmo     Nalpha   Nbeta   Ndocc  Nsocc
   -------------------------------------------------------
     A        828     828       0       0       0       0
   -------------------------------------------------------
    Total     828     828      49      49      49       0
   -------------------------------------------------------

  ==> Integral Setup <==

  ==> DFJK: Density-Fitted J/K Matrices <==

    J tasked:                  Yes
    K tasked:                  Yes
    wK tasked:                  No
    OpenMP threads:              8
    Integrals threads:           8
    Memory (MB):              3576
    Algorithm:                Disk
    Integral Cache:           NONE
    Schwarz Cutoff:          1E-12
    Fitting Condition:       1E-12

   => Auxiliary Basis Set <=

  Basis Set: (AUG-CC-PVTZ AUX)
    Blend: AUG-CC-PVTZ-JKFIT
    Number of shells: 532
    Number of basis function: 1824
    Number of Cartesian functions: 2274
    Spherical Harmonics?: true
    Max angular momentum: 4

  Minimum eigenvalue in the overlap matrix is 7.6603322592E-07.
  Using Symmetric Orthogonalization.

  SCF Guess: Superposition of Atomic Densities via on-the-fly atomic UHF.

  ==> Iterations <==

                           Total Energy        Delta E     RMS |[F,P]|

   @DF-RHF iter   0:  -657.91273063904339   -6.57913e+02   2.37920e-02 
   @DF-RHF iter   1:  -649.76631552355673    8.14642e+00   2.37715e-03 
   @DF-RHF iter   2:  -650.09191753978200   -3.25602e-01   7.52366e-04 DIIS
   @DF-RHF iter   3:  -650.15337334330002   -6.14558e-02   3.78806e-04 DIIS
   @DF-RHF iter   4:  -650.16837205148056   -1.49987e-02   1.39322e-04 DIIS
   @DF-RHF iter   5:  -650.17013514055736   -1.76309e-03   5.68069e-05 DIIS
   @DF-RHF iter   6:  -650.17045678253180   -3.21642e-04   1.62451e-05 DIIS
   @DF-RHF iter   7:  -650.17050965589488   -5.28734e-05   6.93529e-06 DIIS
   @DF-RHF iter   8:  -650.17051631240304   -6.65651e-06   2.54851e-06 DIIS
   @DF-RHF iter   9:  -650.17051766378006   -1.35138e-06   1.17756e-06 DIIS
   @DF-RHF iter  10:  -650.17051806572977   -4.01950e-07   6.12271e-07 DIIS
   @DF-RHF iter  11:  -650.17051818335415   -1.17624e-07   2.54099e-07 DIIS
   @DF-RHF iter  12:  -650.17051820067002   -1.73159e-08   9.82148e-08 DIIS
   @DF-RHF iter  13:  -650.17051820231745   -1.64744e-09   2.64423e-08 DIIS
   @DF-RHF iter  14:  -650.17051820246047   -1.43018e-10   8.42120e-09 DIIS
   @DF-RHF iter  15:  -650.17051820246206   -1.59162e-12   4.63792e-09 DIIS
   @DF-RHF iter  16:  -650.17051820246616   -4.09273e-12   2.18130e-09 DIIS
   @DF-RHF iter  17:  -650.17051820247457   -8.41283e-12   7.20795e-10 DIIS
   @DF-RHF iter  18:  -650.17051820245501    1.95541e-11   3.81255e-10 DIIS
   @DF-RHF iter  19:  -650.17051820247048   -1.54614e-11   2.17746e-10 DIIS
   @DF-RHF iter  20:  -650.17051820248003   -9.54969e-12   6.93395e-11 DIIS

  ==> Post-Iterations <==

    Orbital Energies (a.u.)
    -----------------------

    Doubly Occupied:                                                      

       1A    -26.325430     2A    -20.599042     3A    -15.566418  
       4A    -11.346688     5A    -11.320713     6A    -11.275967  
       7A    -11.275029     8A    -11.266530     9A    -11.264120  
      10A    -11.256625    11A    -11.252223    12A    -11.248291  
      13A    -11.241039    14A    -11.239447    15A     -1.643675  
      16A     -1.416343    17A     -1.251506    18A     -1.181788  
      19A     -1.110435    20A     -1.040662    21A     -1.035246  
      22A     -1.018782    23A     -0.889681    24A     -0.874677  
      25A     -0.852872    26A     -0.826681    27A     -0.776401  
      28A     -0.733498    29A     -0.724403    30A     -0.710538  
      31A     -0.699163    32A     -0.664989    33A     -0.662125  
      34A     -0.651390    35A     -0.631151    36A     -0.626370  
      37A     -0.604103    38A     -0.600058    39A     -0.562631  
      40A     -0.541078    41A     -0.535643    42A     -0.523409  
      43A     -0.513024    44A     -0.495830    45A     -0.420445  
      46A     -0.389660    47A     -0.358155    48A     -0.349991  
      49A     -0.331608  

    Virtual:                                                              

      50A      0.020303    51A      0.030911    52A      0.033736  
      53A      0.035374    54A      0.042342    55A      0.047771  
      56A      0.052034    57A      0.055289    58A      0.074033  
      59A      0.082370    60A      0.083725    61A      0.083896  
      62A      0.089159    63A      0.093212    64A      0.097667  
      65A      0.100852    66A      0.104795    67A      0.107682  
      68A      0.110249    69A      0.111517    70A      0.116957  
      71A      0.118650    72A      0.119514    73A      0.125299  
      74A      0.126551    75A      0.130849    76A      0.133016  
      77A      0.134757    78A      0.140851    79A      0.144497  
      80A      0.147662    81A      0.149309    82A      0.151838  
      83A      0.155830    84A      0.156480    85A      0.165439  
      86A      0.171788    87A      0.173482    88A      0.178538  
      89A      0.185194    90A      0.195191    91A      0.199042  
      92A      0.210020    93A      0.214415    94A      0.216534  
      95A      0.222537    96A      0.233156    97A      0.233452  
      98A      0.235228    99A      0.238899   100A      0.240586  
     101A      0.244494   102A      0.250632   103A      0.252355  
     104A      0.256641   105A      0.258395   106A      0.265222  
     107A      0.267598   108A      0.269412   109A      0.275384  
     110A      0.277490   111A      0.280743   112A      0.283927  
     113A      0.292297   114A      0.297275   115A      0.300579  
     116A      0.306656   117A      0.308869   118A      0.311398  
     119A      0.312649   120A      0.316897   121A      0.320127  
     122A      0.323366   123A      0.328329   124A      0.330653  
     125A      0.338045   126A      0.342098   127A      0.345741  
     128A      0.351738   129A      0.355321   130A      0.361794  
     131A      0.363646   132A      0.373193   133A      0.378626  
     134A      0.383199   135A      0.385529   136A      0.392337  
     137A      0.398708   138A      0.402333   139A      0.409636  
     140A      0.412235   141A      0.417866   142A      0.420355  
     143A      0.425121   144A      0.427044   145A      0.430231  
     146A      0.433635   147A      0.439368   148A      0.442239  
     149A      0.450493   150A      0.455876   151A      0.460493  
     152A      0.464164   153A      0.469568   154A      0.470949  
     155A      0.476591   156A      0.477019   157A      0.480813  
     158A      0.481928   159A      0.483332   160A      0.490934  
     161A      0.493677   162A      0.497964   163A      0.498394  
     164A      0.503974   165A      0.507149   166A      0.511894  
     167A      0.512708   168A      0.514851   169A      0.519077  
     170A      0.521611   171A      0.526057   172A      0.530444  
     173A      0.536203   174A      0.539898   175A      0.542404  
     176A      0.548229   177A      0.549586   178A      0.554731  
     179A      0.561051   180A      0.567750   181A      0.570752  
     182A      0.577235   183A      0.584551   184A      0.586100  
     185A      0.589560   186A      0.597684   187A      0.600382  
     188A      0.605905   189A      0.616332   190A      0.620124  
     191A      0.626774   192A      0.632987   193A      0.637652  
     194A      0.641941   195A      0.645617   196A      0.655453  
     197A      0.660793   198A      0.668228   199A      0.674041  
     200A      0.676276   201A      0.682608   202A      0.690670  
     203A      0.699890   204A      0.702280   205A      0.707258  
     206A      0.712696   207A      0.720149   208A      0.723125  
     209A      0.725771   210A      0.732741   211A      0.737060  
     212A      0.738777   213A      0.742752   214A      0.758193  
     215A      0.763193   216A      0.764063   217A      0.772421  
     218A      0.777459   219A      0.786607   220A      0.796058  
     221A      0.799852   222A      0.805031   223A      0.808524  
     224A      0.820158   225A      0.823980   226A      0.831237  
     227A      0.836973   228A      0.840992   229A      0.848378  
     230A      0.849537   231A      0.852689   232A      0.858072  
     233A      0.865363   234A      0.871919   235A      0.874971  
     236A      0.882017   237A      0.883608   238A      0.895605  
     239A      0.896968   240A      0.901439   241A      0.906583  
     242A      0.911867   243A      0.918164   244A      0.924696  
     245A      0.927837   246A      0.931147   247A      0.934172  
     248A      0.946243   249A      0.949703   250A      0.951995  
     251A      0.954861   252A      0.958262   253A      0.960222  
     254A      0.965555   255A      0.968336   256A      0.972808  
     257A      0.975876   258A      0.983076   259A      0.987079  
     260A      0.991140   261A      0.994583   262A      1.001049  
     263A      1.007531   264A      1.015167   265A      1.016433  
     266A      1.025195   267A      1.026882   268A      1.029497  
     269A      1.031401   270A      1.035479   271A      1.039996  
     272A      1.048622   273A      1.049220   274A      1.061587  
     275A      1.067269   276A      1.067661   277A      1.068729  
     278A      1.077933   279A      1.080945   280A      1.083568  
     281A      1.089829   282A      1.092289   283A      1.098622  
     284A      1.101183   285A      1.108073   286A      1.110622  
     287A      1.114462   288A      1.121653   289A      1.132542  
     290A      1.137082   291A      1.139623   292A      1.141788  
     293A      1.147425   294A      1.149587   295A      1.154770  
     296A      1.157266   297A      1.161493   298A      1.166956  
     299A      1.176705   300A      1.180668   301A      1.183038  
     302A      1.189971   303A      1.196614   304A      1.200367  
     305A      1.203628   306A      1.204255   307A      1.216293  
     308A      1.216937   309A      1.222991   310A      1.232454  
     311A      1.237177   312A      1.245820   313A      1.252763  
     314A      1.254735   315A      1.263355   316A      1.270160  
     317A      1.271644   318A      1.276755   319A      1.282649  
     320A      1.291749   321A      1.304202   322A      1.306367  
     323A      1.310595   324A      1.314429   325A      1.321895  
     326A      1.332002   327A      1.344177   328A      1.348725  
     329A      1.353410   330A      1.358439   331A      1.363622  
     332A      1.366552   333A      1.370751   334A      1.381278  
     335A      1.394107   336A      1.398110   337A      1.404661  
     338A      1.407119   339A      1.414913   340A      1.424033  
     341A      1.431040   342A      1.435483   343A      1.448559  
     344A      1.452967   345A      1.465810   346A      1.476806  
     347A      1.481046   348A      1.487193   349A      1.491875  
     350A      1.497130   351A      1.507726   352A      1.515961  
     353A      1.525999   354A      1.529658   355A      1.546309  
     356A      1.556172   357A      1.561721   358A      1.572545  
     359A      1.573191   360A      1.579576   361A      1.583071  
     362A      1.590491   363A      1.603259   364A      1.609634  
     365A      1.624743   366A      1.628619   367A      1.635164  
     368A      1.640923   369A      1.647190   370A      1.654820  
     371A      1.661903   372A      1.666296   373A      1.674750  
     374A      1.685331   375A      1.689567   376A      1.692859  
     377A      1.700454   378A      1.708464   379A      1.716976  
     380A      1.726636   381A      1.733710   382A      1.738532  
     383A      1.741303   384A      1.744940   385A      1.757746  
     386A      1.766188   387A      1.772479   388A      1.785726  
     389A      1.790349   390A      1.797021   391A      1.808760  
     392A      1.813398   393A      1.825376   394A      1.834064  
     395A      1.844615   396A      1.855859   397A      1.862663  
     398A      1.870957   399A      1.878333   400A      1.883038  
     401A      1.888739   402A      1.896336   403A      1.899315  
     404A      1.903714   405A      1.909691   406A      1.919255  
     407A      1.937094   408A      1.941655   409A      1.944462  
     410A      1.953385   411A      1.955655   412A      1.966845  
     413A      1.970154   414A      1.990466   415A      1.991128  
     416A      1.998908   417A      2.007361   418A      2.014315  
     419A      2.025097   420A      2.032195   421A      2.036116  
     422A      2.040379   423A      2.049847   424A      2.060894  
     425A      2.076659   426A      2.078604   427A      2.082693  
     428A      2.091463   429A      2.096711   430A      2.098951  
     431A      2.103998   432A      2.116641   433A      2.125191  
     434A      2.127058   435A      2.141025   436A      2.148790  
     437A      2.160113   438A      2.179972   439A      2.182024  
     440A      2.188612   441A      2.191875   442A      2.200760  
     443A      2.208137   444A      2.217260   445A      2.223898  
     446A      2.228748   447A      2.245031   448A      2.256575  
     449A      2.259865   450A      2.265046   451A      2.276305  
     452A      2.282811   453A      2.295748   454A      2.300958  
     455A      2.311239   456A      2.323724   457A      2.328053  
     458A      2.342874   459A      2.354428   460A      2.357398  
     461A      2.379953   462A      2.383543   463A      2.391527  
     464A      2.413562   465A      2.419533   466A      2.425337  
     467A      2.444781   468A      2.459156   469A      2.466033  
     470A      2.470958   471A      2.474726   472A      2.494433  
     473A      2.511817   474A      2.529755   475A      2.541258  
     476A      2.558636   477A      2.565207   478A      2.567662  
     479A      2.582463   480A      2.584736   481A      2.596844  
     482A      2.607875   483A      2.626818   484A      2.642688  
     485A      2.654144   486A      2.678368   487A      2.690038  
     488A      2.702414   489A      2.707133   490A      2.729313  
     491A      2.732846   492A      2.755643   493A      2.761699  
     494A      2.775737   495A      2.791782   496A      2.826297  
     497A      2.833220   498A      2.837629   499A      2.845752  
     500A      2.873245   501A      2.885876   502A      2.913454  
     503A      2.924205   504A      2.954208   505A      2.966805  
     506A      2.976565   507A      3.005177   508A      3.015182  
     509A      3.043834   510A      3.061133   511A      3.082666  
     512A      3.087179   513A      3.101316   514A      3.118352  
     515A      3.121605   516A      3.147161   517A      3.163327  
     518A      3.178341   519A      3.187110   520A      3.191143  
     521A      3.197888   522A      3.214020   523A      3.233233  
     524A      3.233693   525A      3.258795   526A      3.268473  
     527A      3.283193   528A      3.295629   529A      3.306464  
     530A      3.323857   531A      3.334285   532A      3.341586  
     533A      3.352535   534A      3.360849   535A      3.378320  
     536A      3.397854   537A      3.400078   538A      3.410350  
     539A      3.425143   540A      3.429494   541A      3.437086  
     542A      3.439689   543A      3.445192   544A      3.451359  
     545A      3.456392   546A      3.473298   547A      3.483412  
     548A      3.499744   549A      3.504912   550A      3.512385  
     551A      3.524970   552A      3.531848   553A      3.541662  
     554A      3.548794   555A      3.560093   556A      3.561964  
     557A      3.571482   558A      3.581165   559A      3.586263  
     560A      3.590087   561A      3.597931   562A      3.607957  
     563A      3.621163   564A      3.622886   565A      3.636746  
     566A      3.640109   567A      3.655020   568A      3.659321  
     569A      3.663295   570A      3.676190   571A      3.689167  
     572A      3.697004   573A      3.702591   574A      3.709731  
     575A      3.728062   576A      3.742243   577A      3.744242  
     578A      3.752772   579A      3.761784   580A      3.770765  
     581A      3.783561   582A      3.796570   583A      3.800696  
     584A      3.815819   585A      3.820263   586A      3.822885  
     587A      3.834206   588A      3.849592   589A      3.857371  
     590A      3.863930   591A      3.865606   592A      3.871554  
     593A      3.888242   594A      3.899945   595A      3.905968  
     596A      3.917289   597A      3.927312   598A      3.930914  
     599A      3.937289   600A      3.943580   601A      3.951098  
     602A      3.954189   603A      3.959289   604A      3.970260  
     605A      3.977727   606A      3.987421   607A      3.996361  
     608A      4.008901   609A      4.018186   610A      4.022547  
     611A      4.032261   612A      4.039164   613A      4.046142  
     614A      4.060167   615A      4.073643   616A      4.082207  
     617A      4.092965   618A      4.097682   619A      4.102471  
     620A      4.117139   621A      4.130455   622A      4.133795  
     623A      4.145608   624A      4.155105   625A      4.158502  
     626A      4.174223   627A      4.187489   628A      4.189543  
     629A      4.197305   630A      4.211181   631A      4.220949  
     632A      4.223441   633A      4.234202   634A      4.241461  
     635A      4.255623   636A      4.258125   637A      4.283488  
     638A      4.285651   639A      4.299624   640A      4.304393  
     641A      4.314737   642A      4.324582   643A      4.331841  
     644A      4.347087   645A      4.350825   646A      4.353923  
     647A      4.364657   648A      4.371429   649A      4.379782  
     650A      4.387471   651A      4.406519   652A      4.413777  
     653A      4.425893   654A      4.437137   655A      4.440101  
     656A      4.442570   657A      4.458012   658A      4.467906  
     659A      4.477581   660A      4.487039   661A      4.496385  
     662A      4.510878   663A      4.525154   664A      4.535147  
     665A      4.549865   666A      4.559595   667A      4.580485  
     668A      4.584914   669A      4.593306   670A      4.605658  
     671A      4.615069   672A      4.622353   673A      4.630898  
     674A      4.643321   675A      4.654596   676A      4.679436  
     677A      4.702370   678A      4.714886   679A      4.726662  
     680A      4.734167   681A      4.751588   682A      4.755023  
     683A      4.756153   684A      4.772154   685A      4.792908  
     686A      4.808933   687A      4.819157   688A      4.855711  
     689A      4.864140   690A      4.881334   691A      4.897631  
     692A      4.904051   693A      4.921687   694A      4.944537  
     695A      4.953399   696A      4.967920   697A      4.970164  
     698A      4.981767   699A      4.995613   700A      5.009594  
     701A      5.014413   702A      5.026449   703A      5.037093  
     704A      5.042164   705A      5.056698   706A      5.058116  
     707A      5.071050   708A      5.085272   709A      5.096633  
     710A      5.106498   711A      5.134873   712A      5.140627  
     713A      5.159025   714A      5.164200   715A      5.171909  
     716A      5.176509   717A      5.185907   718A      5.190625  
     719A      5.193606   720A      5.199230   721A      5.222501  
     722A      5.236173   723A      5.283638   724A      5.302570  
     725A      5.310405   726A      5.320242   727A      5.331292  
     728A      5.343657   729A      5.369045   730A      5.381176  
     731A      5.390746   732A      5.395836   733A      5.442868  
     734A      5.455344   735A      5.462530   736A      5.465398  
     737A      5.503296   738A      5.504662   739A      5.543923  
     740A      5.556794   741A      5.576238   742A      5.593519  
     743A      5.617050   744A      5.636137   745A      5.647486  
     746A      5.705724   747A      5.724960   748A      5.739466  
     749A      5.758243   750A      5.779680   751A      5.788869  
     752A      5.804210   753A      5.828738   754A      5.843967  
     755A      5.872133   756A      5.881972   757A      5.908606  
     758A      5.952200   759A      6.008085   760A      6.026823  
     761A      6.080390   762A      6.113386   763A      6.167685  
     764A      6.182541   765A      6.221552   766A      6.247013  
     767A      6.269409   768A      6.290794   769A      6.310126  
     770A      6.337419   771A      6.360587   772A      6.453185  
     773A      6.485013   774A      6.511615   775A      6.555052  
     776A      6.572420   777A      6.676009   778A      6.698488  
     779A      6.704884   780A      6.726196   781A      6.737069  
     782A      6.807846   783A      6.870061   784A      6.899465  
     785A      6.911521   786A      6.927556   787A      6.955334  
     788A      7.052009   789A      7.072405   790A      7.124912  
     791A      7.276133   792A      7.305645   793A      7.406741  
     794A      7.416034   795A      7.435639   796A      7.532671  
     797A      7.597852   798A      7.653787   799A      7.815560  
     800A      7.931180   801A      8.217627   802A      8.601438  
     803A      9.005024   804A      9.047199   805A      9.268882  
     806A      9.290178   807A      9.406129   808A      9.518070  
     809A      9.540077   810A      9.587006   811A      9.640121  
     812A      9.717718   813A     10.028596   814A     10.075492  
     815A     15.524831   816A     16.114354   817A     16.561698  
     818A     16.604418   819A     16.696702   820A     17.004488  
     821A     18.459150   822A     18.701575   823A     19.167776  
     824A     19.795331   825A     20.161666   826A     20.238400  
     827A     20.466993   828A     21.771451  

    Final Occupation by Irrep:
              A 
    DOCC [    49 ]

  Energy converged.

  @DF-RHF Final Energy:  -650.17051820248003

   => Energetics <=

    Nuclear Repulsion Energy =            813.8301876865845088
    One-Electron Energy =               -2502.5502618865543809
    Two-Electron Energy =                1038.5495559974899606
    DFT Exchange-Correlation Energy =       0.0000000000000000
    Empirical Dispersion Energy =           0.0000000000000000
    PCM Polarization Energy =               0.0000000000000000
    EFP Energy =                            0.0000000000000000
    Total Energy =                       -650.1705182024800251



Properties will be evaluated at   0.000000,   0.000000,   0.000000 Bohr

Properties computed using the SCF density matrix

  Nuclear Dipole Moment: (a.u.)
     X:    -2.9834      Y:     1.0049      Z:    -5.3682

  Electronic Dipole Moment: (a.u.)
     X:     1.4970      Y:    -0.7351      Z:     5.2467

  Dipole Moment: (a.u.)
     X:    -1.4864      Y:     0.2698      Z:    -0.1215     Total:     1.5156

  Dipole Moment: (Debye)
     X:    -3.7781      Y:     0.6857      Z:    -0.3088     Total:     3.8522


*** tstop() called on gpu-3-8.local at Sun Nov 12 00:24:40 2017
Module time:
	user time   =    1261.58 seconds =      21.03 minutes
	system time =      51.30 seconds =       0.85 minutes
	total time  =        513 seconds =       8.55 minutes
Total time:
	user time   =    1261.58 seconds =      21.03 minutes
	system time =      51.30 seconds =       0.85 minutes
	total time  =        513 seconds =       8.55 minutes

  //>>>>>>>>>>>>>>>>>>>>>>>>>>>>>>>>>>>//
  //               DFMP2               //
  //<<<<<<<<<<<<<<<<<<<<<<<<<<<<<<<<<<<//

   => Loading Basis Set <=

    Name: (AUG-CC-PVTZ AUX)
    Role: RIFIT
    Keyword: DF_BASIS_MP2
    atoms 1-11  entry C          line   147 file /cbio/jclab/home/chayas/anaconda/envs/py35/share/psi4/basis/aug-cc-pvtz-ri.gbs 
    atoms 12    entry N          line   205 file /cbio/jclab/home/chayas/anaconda/envs/py35/share/psi4/basis/aug-cc-pvtz-ri.gbs 
    atoms 13    entry O          line   263 file /cbio/jclab/home/chayas/anaconda/envs/py35/share/psi4/basis/aug-cc-pvtz-ri.gbs 
    atoms 14    entry F          line   321 file /cbio/jclab/home/chayas/anaconda/envs/py35/share/psi4/basis/aug-cc-pvtz-ri.gbs 
    atoms 15-22 entry H          line    29 file /cbio/jclab/home/chayas/anaconda/envs/py35/share/psi4/basis/aug-cc-pvtz-ri.gbs 

	 --------------------------------------------------------
	                          DF-MP2                         
	      2nd-Order Density-Fitted Moller-Plesset Theory     
	              RMP2 Wavefunction,   8 Threads             
	                                                         
	        Rob Parrish, Justin Turney, Andy Simmonett,      
	           Ed Hohenstein, and C. David Sherrill          
	 --------------------------------------------------------

   => Auxiliary Basis Set <=

  Basis Set: (AUG-CC-PVTZ AUX)
    Blend: AUG-CC-PVTZ-RI
    Number of shells: 504
    Number of basis function: 1852
    Number of Cartesian functions: 2344
    Spherical Harmonics?: true
    Max angular momentum: 4

	 --------------------------------------------------------
	                 NBF =   828, NAUX =  1852
	 --------------------------------------------------------
	   CLASS    FOCC     OCC    AOCC    AVIR     VIR    FVIR
	   PAIRS       0      49      49     779     779       0
	 --------------------------------------------------------


         ------------------------------------------------------------
                                     CPHF                           
                                  Rob Parrish                       
         ------------------------------------------------------------

  ==> Geometry <==

    Molecular point group: c1
    Full point group: C1

    Geometry (in Angstrom), charge = 0, multiplicity = 1:

       Center              X                  Y                   Z               Mass       
    ------------   -----------------  -----------------  -----------------  -----------------
           C         -1.316721868798     0.756824121103    -0.793007444902    12.000000000000
           C         -2.394721868798     1.329824121103    -0.120007444902    12.000000000000
           C          0.623278131202    -1.476175878897    -1.669007444902    12.000000000000
           C          2.126278131202     0.039824121103    -0.562007444902    12.000000000000
           C         -1.401721868798     0.713824121103     1.994992555098    12.000000000000
           C          1.725278131202    -2.009175878897    -2.318007444902    12.000000000000
           C          3.161278131202    -0.561175878897    -1.260007444902    12.000000000000
           C         -0.280721868798     0.161824121103    -0.073007444902    12.000000000000
           C          0.836278131202    -0.432175878897    -0.776007444902    12.000000000000
           C         -2.437721868798     1.308824121103     1.273992555098    12.000000000000
           C         -0.323721868798     0.140824121103     1.320992555098    12.000000000000
           N          2.993278131202    -1.577175878897    -2.136007444902    14.003074004780
           O         -3.490721868798     1.868824121103     1.930992555098    15.994914619560
           F          0.664278131202    -0.427175878897     2.027992555098    18.998403224000
           H         -1.297721868798     0.780824121103    -1.880007444902     1.007825032070
           H         -3.199721868798     1.790824121103    -0.687007444902     1.007825032070
           H         -0.368721868798    -1.870175878897    -1.864007444902     1.007825032070
           H          2.330278131202     0.852824121103     0.127992555098     1.007825032070
           H         -1.429721868798     0.693824121103     3.080992555098     1.007825032070
           H          1.612278131202    -2.823175878897    -3.026007444902     1.007825032070
           H          4.185278131202    -0.230175878897    -1.127007444902     1.007825032070
           H         -4.318721868798     1.432824121103     1.672992555098     1.007825032070

  Nuclear repulsion =  813.830187686584509
  Reference energy  = -650.170518202480025

  ==> Basis Set <==

  Basis Set: AUG-CC-PVTZ
    Blend: AUG-CC-PVTZ
    Number of shells: 268
    Number of basis function: 828
    Number of Cartesian functions: 970
    Spherical Harmonics?: true
    Max angular momentum: 3

  ==> CGRSolver (by Rob Parrish) <==

   Number of roots    =         1
   Preconditioning    =    JACOBI
   Convergence cutoff =     1E-06
   Maximum iterations =       100

  ==> CPHFRHamiltonian (by Rob Parrish) <== 

  ==> DFJK: Density-Fitted J/K Matrices <==

    J tasked:                  Yes
    K tasked:                  Yes
    wK tasked:                  No
    OpenMP threads:              8
    Integrals threads:           8
    Memory (MB):              3576
    Algorithm:                Disk
    Integral Cache:           NONE
    Schwarz Cutoff:          1E-12
    Fitting Condition:       1E-12

   => Auxiliary Basis Set <=

  Basis Set: (AUG-CC-PVTZ AUX)
    Blend: AUG-CC-PVTZ-JKFIT
    Number of shells: 532
    Number of basis function: 1824
    Number of Cartesian functions: 2274
    Spherical Harmonics?: true
    Max angular momentum: 4

  ==> CPHF Iterations <==

  => Iterations <=

             Iter  Converged  Remaining    Residual
  CGR           1          0          1   9.873E-02
  CGR           2          0          1   3.181E-02
  CGR           3          0          1   2.090E-02
  CGR           4          0          1   9.511E-03
  CGR           5          0          1   3.903E-03
  CGR           6          0          1   1.405E-03
  CGR           7          0          1   4.016E-04
  CGR           8          0          1   1.265E-04
  CGR           9          0          1   4.469E-05
  CGR          10          0          1   1.345E-05
  CGR          11          0          1   6.101E-06
  CGR          12          0          1   2.452E-06
  CGR          13          0          1   1.239E-06
  CGR          14          1          0   4.983E-07

    CGRSolver converged.

  ==> DFCorrGrad: Density-Fitted Correlated Gradients <==

    OpenMP threads:              8
    Integrals threads:           8
    Memory (MB):              3576
    Schwarz Cutoff:          0E+00
    Fitting Condition:       1E-12

   => Auxiliary Basis Set <=

  Basis Set: (AUG-CC-PVTZ AUX)
    Blend: AUG-CC-PVTZ-JKFIT
    Number of shells: 532
    Number of basis function: 1824
    Number of Cartesian functions: 2274
    Spherical Harmonics?: true
    Max angular momentum: 4

	-----------------------------------------------------------
	 ==================> DF-MP2 Energies <==================== 
	-----------------------------------------------------------
	 Reference Energy          =    -650.1705182024800251 [Eh]
	 Singles Energy            =      -0.0000000000000002 [Eh]
	 Same-Spin Energy          =      -0.6771769734598353 [Eh]
	 Opposite-Spin Energy      =      -2.0188593111906141 [Eh]
	 Correlation Energy        =      -2.6960362846504493 [Eh]
	 Total Energy              =    -652.8665544871304292 [Eh]
	-----------------------------------------------------------
	 ================> DF-SCS-MP2 Energies <================== 
	-----------------------------------------------------------
	 SCS Same-Spin Scale       =       0.3333333333333333 [-]
	 SCS Opposite-Spin Scale   =       1.2000000000000000 [-]
	 SCS Same-Spin Energy      =      -0.2257256578199451 [Eh]
	 SCS Opposite-Spin Energy  =      -2.4226311734287367 [Eh]
	 SCS Correlation Energy    =      -2.6483568312486816 [Eh]
	 SCS Total Energy          =    -652.8188750337286592 [Eh]
	-----------------------------------------------------------


  -Total Gradient:
     Atom            X                  Y                   Z
    ------   -----------------  -----------------  -----------------
       1        0.010367648024    -0.001998127338    -0.010962385758
       2       -0.003433694406     0.001853223761     0.004456160106
       3       -0.007143621463    -0.001040915138     0.002905201475
       4       -0.003692278241     0.005773443318     0.003603117345
       5       -0.004381571236     0.000535218388    -0.004491180866
       6       -0.014054725289    -0.000984623133     0.002591002111
       7       -0.003126663096     0.009486698351     0.008773983313
       8       -0.000681830260     0.000410218521    -0.002560951749
       9       -0.001793860860     0.001105107477    -0.000549170229
      10       -0.006528586174     0.011117467781     0.013439148286
      11        0.020781032310    -0.016666926865     0.005640256353
      12        0.013591875025    -0.006725793077    -0.008453577662
      13        0.010631393500     0.000237364013    -0.010384686730
      14        0.002069281338    -0.000377481951     0.002716369690
      15       -0.003333620161     0.001531226244    -0.006006121284
      16       -0.003416340861     0.001089269575    -0.004802807708
      17       -0.003129327898    -0.002570831074    -0.002735083205
      18        0.002863716755     0.003647223955     0.002775707908
      19        0.001048808512     0.000030989176     0.005572276620
      20        0.000396756912    -0.001771297633    -0.001989057296
      21        0.002525921088     0.000176347835     0.000073754441
      22       -0.009560313511    -0.004857802182     0.000388044843


*** tstop() called on gpu-3-8.local at Sun Nov 12 01:02:35 2017
Module time:
	user time   =    6600.59 seconds =     110.01 minutes
	system time =     114.14 seconds =       1.90 minutes
	total time  =       2788 seconds =      46.47 minutes
Total time:
	user time   =    6600.59 seconds =     110.01 minutes
	system time =     114.14 seconds =       1.90 minutes
	total time  =       2788 seconds =      46.47 minutes

			-----------------------------------------
			 OPTKING 2.0: for geometry optimizations 
			  - R.A. King,  Bethel University        
			-----------------------------------------

	Internal coordinates to be generated automatically.
	Detected frag 1 with atoms:  1 2 3 4 5 6 7 8 9 10 11 12 13 14 15 16 17 18 19 20
	 21 22
	---Fragment 1 Bond Connectivity---
	 1 : 2 8 15
	 2 : 1 10 16
	 3 : 6 9 17
	 4 : 7 9 18
	 5 : 10 11 19
	 6 : 3 12 20
	 7 : 4 12 21
	 8 : 1 9 11
	 9 : 3 4 8
	 10 : 2 5 13
	 11 : 5 8 14
	 12 : 6 7
	 13 : 10 22
	 14 : 11
	 15 : 1
	 16 : 2
	 17 : 3
	 18 : 4
	 19 : 5
	 20 : 6
	 21 : 7
	 22 : 13

	Assuming in current code that numbering for constraints corresponds to unified fragment.
	Fixed dihedral atom list: 
	     2    10    13    22
	---Fragment 1 Geometry and Gradient---
	 C          -2.4882437252        1.4301903196       -1.4985668922
	 C          -4.5253684965        2.5130033938       -0.2267812048
	 C           1.1778249726       -2.7895681351       -3.1539669846
	 C           4.0180833503        0.0752566824       -1.0620401555
	 C          -2.6488704465        1.3489320959        3.7699895663
	 C           3.2603031710       -3.7967921639       -4.3803992449
	 C           5.9739498979       -1.0604687235       -2.3810689963
	 C          -0.5304874515        0.3058032706       -0.1379640765
	 C           1.5803366389       -0.8166940524       -1.4664415479
	 C          -4.6066267202        2.4733191450        2.4074970245
	 C          -0.6117456753        0.2661190218        2.4963141527
	 N           5.6564759075       -2.9804304745       -4.0364690887
	 O          -6.5965083381        3.5315657794        3.6490470938
	 F           1.2553037440       -0.8072454217        3.8323505287
	 H          -2.4523389287        1.4755437468       -3.5526991987
	 H          -6.0465980334        3.3841671411       -1.2982559221
	 H          -0.6967833512       -3.5341202314       -3.5224635805
	 H           4.4035874814        1.6116040284        0.2418708762
	 H          -2.7017827782        1.3111375733        5.8222321466
	 H           3.0467641180       -5.3350292361       -5.7183253469
	 H           7.9090294579       -0.4349693735       -2.1297354206
	 H          -8.1612015761        2.7076451855        3.1614977515
	             0.0103676480       -0.0019981273       -0.0109623858
	            -0.0034336944        0.0018532238        0.0044561601
	            -0.0071436215       -0.0010409151        0.0029052015
	            -0.0036922782        0.0057734433        0.0036031173
	            -0.0043815712        0.0005352184       -0.0044911809
	            -0.0140547253       -0.0009846231        0.0025910021
	            -0.0031266631        0.0094866984        0.0087739833
	            -0.0006818303        0.0004102185       -0.0025609517
	            -0.0017938609        0.0011051075       -0.0005491702
	            -0.0065285862        0.0111174678        0.0134391483
	             0.0207810323       -0.0166669269        0.0056402564
	             0.0135918750       -0.0067257931       -0.0084535777
	             0.0106313935        0.0002373640       -0.0103846867
	             0.0020692813       -0.0003774820        0.0027163697
	            -0.0033336202        0.0015312262       -0.0060061213
	            -0.0034163409        0.0010892696       -0.0048028077
	            -0.0031293279       -0.0025708311       -0.0027350832
	             0.0028637168        0.0036472240        0.0027757079
	             0.0010488085        0.0000309892        0.0055722766
	             0.0003967569       -0.0017712976       -0.0019890573
	             0.0025259211        0.0001763478        0.0000737544
	            -0.0095603135       -0.0048578022        0.0003880448

	Previous optimization step data not found.  Starting new optimization.

	---Fragment 1 Intrafragment Coordinates---
	 - Coordinate -           - BOHR/RAD -       - ANG/DEG -
	 R(1,2)           =         2.634350	       1.394038
	 R(1,8)           =         2.635962	       1.394891
	 R(1,15)          =         2.054947	       1.087431
	 R(2,10)          =         2.635830	       1.394821
	 R(2,16)          =         2.054537	       1.087214
	 R(3,6)           =         2.618273	       1.385530
	 R(3,9)           =         2.627164	       1.390235
	 R(3,17)          =         2.050440	       1.085046
	 R(4,7)           =         2.618229	       1.385507
	 R(4,9)           =         2.627114	       1.390209
	 R(4,18)          =         2.051624	       1.085673
	 R(5,10)          =         2.636938	       1.395407
	 R(5,11)          =         2.635263	       1.394521
	 R(5,19)          =         2.053272	       1.086545
	 R(6,12)          =         2.554678	       1.351877
	 R(6,20)          =         2.049834	       1.084725
	 R(7,12)          =         2.554876	       1.351982
	 R(7,21)          =         2.049134	       1.084355
	 R(8,9)           =         2.735038	       1.447320
	 R(8,11)          =         2.635830	       1.394821
	 R(10,13)         =         2.573123	       1.361638
	 R(11,14)         =         2.534359	       1.341125
	 R(13,22)         =         1.834343	       0.970693
	 B(1,2,10)        =         2.094553	     120.009056
	 B(1,2,16)        =         2.088723	     119.675016
	 B(1,8,9)         =         2.091569	     119.838095
	 B(1,8,11)        =         2.093692	     119.959722
	 B(2,1,8)         =         2.094940	     120.031219
	 B(2,1,15)        =         2.079469	     119.144799
	 B(2,10,5)        =         2.094306	     119.994870
	 B(2,10,13)       =         2.094247	     119.991510
	 B(3,6,12)        =         2.165211	     124.057445
	 B(3,6,20)        =         2.107791	     120.767548
	 B(3,9,4)         =         2.089790	     119.736135
	 B(3,9,8)         =         2.096656	     120.129524
	 B(4,7,12)        =         2.164668	     124.026364
	 B(4,7,21)        =         2.107421	     120.746344
	 B(4,9,8)         =         2.096739	     120.134309
	 B(5,10,13)       =         2.094633	     120.013619
	 B(5,11,8)        =         2.095181	     120.045019
	 B(5,11,14)       =         2.081414	     119.256220
	 B(6,3,9)         =         2.057714	     117.898335
	 B(6,3,17)        =         2.098197	     120.217854
	 B(6,12,7)        =         2.030771	     116.354583
	 B(7,4,9)         =         2.058217	     117.927126
	 B(7,4,18)        =         2.099769	     120.307895
	 B(8,1,15)        =         2.108776	     120.823969
	 B(8,11,14)       =         2.106591	     120.698759
	 B(9,3,17)        =         2.127271	     121.883627
	 B(9,4,18)        =         2.125200	     121.764971
	 B(9,8,11)        =         2.097924	     120.202184
	 B(10,2,16)       =         2.099909	     120.315896
	 B(10,5,11)       =         2.093699	     119.960108
	 B(10,5,19)       =         2.100355	     120.341451
	 B(10,13,22)      =         1.924826	     110.284383
	 B(11,5,19)       =         2.089132	     119.698439
	 B(12,6,20)       =         2.010181	     115.174900
	 B(12,7,21)       =         2.011095	     115.227270
	 D(1,2,10,5)      =        -0.000325	      -0.018609
	 D(1,2,10,13)     =         3.141388	     179.988267
	 D(1,8,9,3)       =        -1.047732	     -60.030615
	 D(1,8,9,4)       =         2.092736	     119.904915
	 D(1,8,11,5)      =         0.000325	       0.018608
	 D(1,8,11,14)     =        -3.141528	    -179.996269
	 D(2,1,8,9)       =         3.141277	     179.981897
	 D(2,1,8,11)      =        -0.000348	      -0.019945
	 D(2,10,5,11)     =         0.000301	       0.017261
	 D(2,10,5,19)     =        -3.141029	    -179.967685
	 D(2,10,13,22)    =         1.047658	      60.026370
	 D(3,6,12,7)      =         0.000000	       0.000000
	 D(3,9,4,7)       =        -0.000043	      -0.002444
	 D(3,9,4,18)      =        -3.141070	    -179.970061
	 D(3,9,8,11)      =         2.093893	     119.971231
	 D(4,7,12,6)      =        -0.000490	      -0.028079
	 D(4,9,3,6)       =        -0.000394	      -0.022595
	 D(4,9,3,17)      =        -3.139269	    -179.866889
	 D(4,9,8,11)      =        -1.048825	     -60.093239
	 D(5,10,2,16)     =         3.140149	     179.917291
	 D(5,10,13,22)    =        -2.093815	    -119.966753
	 D(5,11,8,9)      =        -3.141300	    -179.983240
	 D(6,3,9,8)       =         3.140078	     179.913192
	 D(6,12,7,21)     =         3.140154	     179.917593
	 D(7,4,9,8)       =        -3.140515	    -179.938228
	 D(7,12,6,20)     =         3.139530	     179.881843
	 D(8,1,2,10)      =         0.000348	       0.019955
	 D(8,1,2,16)      =        -3.140133	    -179.916358
	 D(8,9,3,17)      =         0.001202	       0.068898
	 D(8,9,4,18)      =         0.001643	       0.094154
	 D(8,11,5,10)     =        -0.000301	      -0.017270
	 D(8,11,5,19)     =         3.141030	     179.967774
	 D(9,3,6,12)      =         0.000430	       0.024638
	 D(9,3,6,20)      =        -3.138988	    -179.850775
	 D(9,4,7,12)      =         0.000513	       0.029399
	 D(9,4,7,21)      =        -3.140081	    -179.913416
	 D(9,8,1,15)      =         0.000403	       0.023110
	 D(9,8,11,14)     =         0.000033	       0.001883
	 D(10,2,1,15)     =         3.141234	     179.979432
	 D(10,5,11,14)    =         3.141547	     179.997392
	 D(11,5,10,13)    =        -3.141411	    -179.989616
	 D(11,8,1,15)     =        -3.141221	    -179.978731
	 D(12,6,3,17)     =         3.139352	     179.871634
	 D(12,7,4,18)     =         3.141549	     179.997508
	 D(13,10,2,16)    =        -0.001324	      -0.075833
	 D(13,10,5,19)    =         0.000444	       0.025437
	 D(14,11,5,19)    =        -0.000307	      -0.017564
	 D(15,1,2,16)     =         0.000753	       0.043120
	 D(17,3,6,20)     =        -0.000066	      -0.003779
	 D(18,4,7,21)     =         0.000955	       0.054693
	 R(4,14)          =         5.689185	       3.010587

	Current energy   :      -652.8665544871

	Generating empirical Hessian (Schlegel '84) for each fragment.
	Adding user-defined constraint: Fragment 1; Coordinate 69:
		Value =     1.047658; Fixed value    =     1.047198
		Force =    -0.000230; Force constant =     0.500000
	Removing off-diagonal coupling between coordinate 69 and others.
	Taking RFO optimization step.
	Going to follow RFO solution 1.
	Using RFO vector 1.

	Determining step-restricting scale parameter for RS-RFO.
	Maximum step size allowed    0.10000

	 Iter      |step|        alpha        rfo_root  
	------------------------------------------------
	    0     0.27303       1.00000           1
	    1     0.19009       3.81473           1
	    2     0.14465      10.02318           1
	    3     0.11751      21.31882           1
	    4     0.10391      32.57780           1
	    5     0.10026      36.68270           1
	    6     0.10000      36.99357           1
	------------------------------------------------
	Norm of target step-size    0.10000
	Projected energy change by RFO approximation:        -0.0046442207

	Back-transformation to cartesian coordinates...
	The INTCO_EXCEPTion handler:
	TORS::compute_val: unable to compute torsion value
	Dynamic level is 0.
	exc.g_really_quit() is 0.

  **** Optimization has failed! (in 1 steps) ****
			--------------------------
			 OPTKING Finished Execution 
			--------------------------
	Cleaning optimization helper files.

*** Psi4 exiting successfully. Buy a developer a beer!
