
    -----------------------------------------------------------------------
          Psi4: An Open-Source Ab Initio Electronic Structure Package
                               Psi4 1.1 release

                         Git: Rev {HEAD} add49b9 


    R. M. Parrish, L. A. Burns, D. G. A. Smith, A. C. Simmonett,
    A. E. DePrince III, E. G. Hohenstein, U. Bozkaya, A. Yu. Sokolov,
    R. Di Remigio, R. M. Richard, J. F. Gonthier, A. M. James,
    H. R. McAlexander, A. Kumar, M. Saitow, X. Wang, B. P. Pritchard,
    P. Verma, H. F. Schaefer III, K. Patkowski, R. A. King, E. F. Valeev,
    F. A. Evangelista, J. M. Turney, T. D. Crawford, and C. D. Sherrill,
    J. Chem. Theory Comput. in press (2017).
    (doi: 10.1021/acs.jctc.7b00174)

    -----------------------------------------------------------------------


    Psi4 started on: Sunday, 12 November 2017 08:43AM

    Process ID:  13393
    PSIDATADIR: /cbio/jclab/home/chayas/anaconda/envs/py35/share/psi4
    Memory:     500.0 MiB
    Threads:    8
    
  ==> Input File <==

--------------------------------------------------------------------------

memory 5 Gb

molecule phepyrOH_cation {
  symmetry C1
  1 1 
  C      1.885   -1.036   -0.112
  C      2.878   -1.652   2.002
  C      0.807   -0.463   0.561
  C      1.800   -1.079   2.676
  C      4.440   -1.719   -1.322
  C      4.716   -3.305   0.469
  C      5.516   -2.309   -1.970
  C      5.786   -3.855   -0.224
  C      2.921   -1.631   0.608
  C      4.040   -2.225   -0.090
  C      0.764   -0.484   1.955
  N      6.150   -3.348   -1.409
  O      -0.288   0.076   2.612
  H      1.904   -1.012   -1.199
  H      3.678   -2.112   2.578
  H      0.003   -0.001   -0.006
  H      1.772   -1.098   3.762
  H      3.931   -0.877   -1.782
  H      4.425   -3.721   1.429
  H      5.897   -1.982   -2.928
  H      6.368   -4.693   0.134
  H      6.938   -3.767   -1.902
  H      -0.877   -0.615   2.956
  units Angstrom
}

dih_string = "3 11 13 23 105"
set optking fixed_dihedral = $dih_string

optimize('MP2/aug-cc-PVTZ')
--------------------------------------------------------------------------

  Memory set to   4.657 GiB by Python driver.
gradient() will perform analytic gradient computation.

*** tstart() called on gpu-1-8.local
*** at Sun Nov 12 08:43:58 2017

    SCF Algorithm Type (re)set to DF.

*** tstart() called on gpu-1-8.local
*** at Sun Nov 12 08:43:58 2017

   => Loading Basis Set <=

    Name: AUG-CC-PVTZ
    Role: ORBITAL
    Keyword: BASIS
    atoms 1-11  entry C          line   221 file /cbio/jclab/home/chayas/anaconda/envs/py35/share/psi4/basis/aug-cc-pvtz.gbs 
    atoms 12    entry N          line   267 file /cbio/jclab/home/chayas/anaconda/envs/py35/share/psi4/basis/aug-cc-pvtz.gbs 
    atoms 13    entry O          line   313 file /cbio/jclab/home/chayas/anaconda/envs/py35/share/psi4/basis/aug-cc-pvtz.gbs 
    atoms 14-23 entry H          line    34 file /cbio/jclab/home/chayas/anaconda/envs/py35/share/psi4/basis/aug-cc-pvtz.gbs 


         ---------------------------------------------------------
                                   SCF
            by Justin Turney, Rob Parrish, and Andy Simmonett
                              RHF Reference
                        8 Threads,   4768 MiB Core
         ---------------------------------------------------------

  ==> Geometry <==

    Molecular point group: c1
    Full point group: C1

    Geometry (in Angstrom), charge = 1, multiplicity = 1:

       Center              X                  Y                   Z               Mass       
    ------------   -----------------  -----------------  -----------------  -----------------
           C         -1.267403430661     0.723663194063    -0.575458464400    12.000000000000
           C         -0.274403430661     0.107663194063     1.538541535600    12.000000000000
           C         -2.345403430661     1.296663194063     0.097541535600    12.000000000000
           C         -1.352403430661     0.680663194063     2.212541535600    12.000000000000
           C          1.287596569339     0.040663194063    -1.785458464400    12.000000000000
           C          1.563596569339    -1.545336805937     0.005541535600    12.000000000000
           C          2.363596569339    -0.549336805937    -2.433458464400    12.000000000000
           C          2.633596569339    -2.095336805937    -0.687458464400    12.000000000000
           C         -0.231403430661     0.128663194063     0.144541535600    12.000000000000
           C          0.887596569339    -0.465336805937    -0.553458464400    12.000000000000
           C         -2.388403430661     1.275663194063     1.491541535600    12.000000000000
           N          2.997596569339    -1.588336805937    -1.872458464400    14.003074004780
           O         -3.440403430661     1.835663194063     2.148541535600    15.994914619560
           H         -1.248403430661     0.747663194063    -1.662458464400     1.007825032070
           H          0.525596569339    -0.352336805937     2.114541535600     1.007825032070
           H         -3.149403430661     1.758663194063    -0.469458464400     1.007825032070
           H         -1.380403430661     0.661663194063     3.298541535600     1.007825032070
           H          0.778596569339     0.882663194063    -2.245458464400     1.007825032070
           H          1.272596569339    -1.961336805937     0.965541535600     1.007825032070
           H          2.744596569339    -0.222336805937    -3.391458464400     1.007825032070
           H          3.215596569339    -2.933336805937    -0.329458464400     1.007825032070
           H          3.785596569339    -2.007336805937    -2.365458464400     1.007825032070
           H         -4.029403430661     1.144663194063     2.492541535600     1.007825032070

  Running in c1 symmetry.

  Rotational constants: A =      0.09612  B =      0.01335  C =      0.01193 [cm^-1]
  Rotational constants: A =   2881.72061  B =    400.24235  C =    357.55118 [MHz]
  Nuclear repulsion =  713.145070657670090

  Charge       = 1
  Multiplicity = 1
  Electrons    = 90
  Nalpha       = 45
  Nbeta        = 45

  ==> Algorithm <==

  SCF Algorithm Type is DF.
  DIIS enabled.
  MOM disabled.
  Fractional occupation disabled.
  Guess Type is SAD.
  Energy threshold   = 1.00e-10
  Density threshold  = 1.00e-10
  Integral threshold = 0.00e+00

  ==> Primary Basis <==

  Basis Set: AUG-CC-PVTZ
    Blend: AUG-CC-PVTZ
    Number of shells: 272
    Number of basis function: 828
    Number of Cartesian functions: 965
    Spherical Harmonics?: true
    Max angular momentum: 3

   => Loading Basis Set <=

    Name: (AUG-CC-PVTZ AUX)
    Role: JKFIT
    Keyword: DF_BASIS_SCF
    atoms 1-11  entry C          line   161 file /cbio/jclab/home/chayas/anaconda/envs/py35/share/psi4/basis/aug-cc-pvtz-jkfit.gbs 
    atoms 12    entry N          line   223 file /cbio/jclab/home/chayas/anaconda/envs/py35/share/psi4/basis/aug-cc-pvtz-jkfit.gbs 
    atoms 13    entry O          line   285 file /cbio/jclab/home/chayas/anaconda/envs/py35/share/psi4/basis/aug-cc-pvtz-jkfit.gbs 
    atoms 14-23 entry H          line    69 file /cbio/jclab/home/chayas/anaconda/envs/py35/share/psi4/basis/aug-cc-pvtz-jkfit.gbs 

  ==> Pre-Iterations <==

   -------------------------------------------------------
    Irrep   Nso     Nmo     Nalpha   Nbeta   Ndocc  Nsocc
   -------------------------------------------------------
     A        828     828       0       0       0       0
   -------------------------------------------------------
    Total     828     828      45      45      45       0
   -------------------------------------------------------

  ==> Integral Setup <==

  ==> DFJK: Density-Fitted J/K Matrices <==

    J tasked:                  Yes
    K tasked:                  Yes
    wK tasked:                  No
    OpenMP threads:              8
    Integrals threads:           8
    Memory (MB):              3576
    Algorithm:                Disk
    Integral Cache:           NONE
    Schwarz Cutoff:          1E-12
    Fitting Condition:       1E-12

   => Auxiliary Basis Set <=

  Basis Set: (AUG-CC-PVTZ AUX)
    Blend: AUG-CC-PVTZ-JKFIT
    Number of shells: 530
    Number of basis function: 1812
    Number of Cartesian functions: 2253
    Spherical Harmonics?: true
    Max angular momentum: 4

  Minimum eigenvalue in the overlap matrix is 6.0331679843E-07.
  Using Symmetric Orthogonalization.

  SCF Guess: Superposition of Atomic Densities via on-the-fly atomic UHF.

  ==> Iterations <==

                           Total Energy        Delta E     RMS |[F,P]|

   @DF-RHF iter   0:  -555.69112354833851   -5.55691e+02   2.18666e-02 
   @DF-RHF iter   1:  -551.33033474421825    4.36079e+00   1.96729e-03 
   @DF-RHF iter   2:  -551.60641526977304   -2.76081e-01   6.24417e-04 DIIS
   @DF-RHF iter   3:  -551.65390778218830   -4.74925e-02   3.89976e-04 DIIS
   @DF-RHF iter   4:  -551.66814328966416   -1.42355e-02   1.45326e-04 DIIS
   @DF-RHF iter   5:  -551.67019397677007   -2.05069e-03   4.93787e-05 DIIS
   @DF-RHF iter   6:  -551.67057080894551   -3.76832e-04   1.14328e-05 DIIS
   @DF-RHF iter   7:  -551.67060316203879   -3.23531e-05   5.17357e-06 DIIS
   @DF-RHF iter   8:  -551.67060637330724   -3.21127e-06   1.55937e-06 DIIS
   @DF-RHF iter   9:  -551.67060684018520   -4.66878e-07   6.99548e-07 DIIS
   @DF-RHF iter  10:  -551.67060696584076   -1.25656e-07   3.26118e-07 DIIS
   @DF-RHF iter  11:  -551.67060699812271   -3.22819e-08   1.43191e-07 DIIS
   @DF-RHF iter  12:  -551.67060700392585   -5.80314e-09   4.32652e-08 DIIS
   @DF-RHF iter  13:  -551.67060700489765   -9.71795e-10   1.79799e-08 DIIS
   @DF-RHF iter  14:  -551.67060700502736   -1.29717e-10   8.76280e-09 DIIS
   @DF-RHF iter  15:  -551.67060700504726   -1.98952e-11   3.86716e-09 DIIS
   @DF-RHF iter  16:  -551.67060700506022   -1.29603e-11   1.89867e-09 DIIS
   @DF-RHF iter  17:  -551.67060700506033   -1.13687e-13   8.82301e-10 DIIS
   @DF-RHF iter  18:  -551.67060700506238   -2.04636e-12   3.64912e-10 DIIS
   @DF-RHF iter  19:  -551.67060700507113   -8.75389e-12   1.69360e-10 DIIS
   @DF-RHF iter  20:  -551.67060700507830   -7.16227e-12   6.08883e-11 DIIS

  ==> Post-Iterations <==

    Orbital Energies (a.u.)
    -----------------------

    Doubly Occupied:                                                      

       1A    -20.687418     2A    -15.835379     3A    -11.485651  
       4A    -11.485587     5A    -11.447306     6A    -11.424585  
       7A    -11.416307     8A    -11.416023     9A    -11.377121  
      10A    -11.376542    11A    -11.375054    12A    -11.355792  
      13A    -11.355077    14A     -1.512937    15A     -1.506999  
      16A     -1.322207    17A     -1.263548    18A     -1.238620  
      19A     -1.153794    20A     -1.149910    21A     -1.069804  
      22A     -1.054467    23A     -0.969479    24A     -0.963680  
      25A     -0.949799    26A     -0.868415    27A     -0.859310  
      28A     -0.853479    29A     -0.820531    30A     -0.800244  
      31A     -0.780884    32A     -0.770822    33A     -0.756264  
      34A     -0.746713    35A     -0.725274    36A     -0.706341  
      37A     -0.705785    38A     -0.655306    39A     -0.650850  
      40A     -0.641212    41A     -0.591654    42A     -0.575727  
      43A     -0.538624    44A     -0.467214    45A     -0.448554  

    Virtual:                                                              

      46A     -0.107949    47A     -0.085338    48A     -0.065098  
      49A     -0.063373    50A     -0.059973    51A     -0.049750  
      52A     -0.043206    53A     -0.040149    54A     -0.035022  
      55A     -0.029792    56A     -0.026409    57A     -0.023944  
      58A     -0.017403    59A     -0.009640    60A     -0.007711  
      61A     -0.005689    62A      0.004262    63A      0.005441  
      64A      0.008335    65A      0.013111    66A      0.016064  
      67A      0.018383    68A      0.023713    69A      0.025673  
      70A      0.028199    71A      0.032898    72A      0.037229  
      73A      0.037531    74A      0.042851    75A      0.046442  
      76A      0.051119    77A      0.054532    78A      0.056897  
      79A      0.059942    80A      0.062778    81A      0.068156  
      82A      0.070270    83A      0.073349    84A      0.077686  
      85A      0.082871    86A      0.086722    87A      0.088427  
      88A      0.094471    89A      0.096992    90A      0.108713  
      91A      0.109289    92A      0.113697    93A      0.116462  
      94A      0.122865    95A      0.126374    96A      0.128777  
      97A      0.132859    98A      0.136860    99A      0.138867  
     100A      0.143681   101A      0.152096   102A      0.156203  
     103A      0.159116   104A      0.163379   105A      0.166489  
     106A      0.167959   107A      0.170712   108A      0.174172  
     109A      0.180089   110A      0.183164   111A      0.188092  
     112A      0.191641   113A      0.195380   114A      0.197707  
     115A      0.201919   116A      0.205773   117A      0.211148  
     118A      0.213250   119A      0.215509   120A      0.221645  
     121A      0.225843   122A      0.227171   123A      0.229384  
     124A      0.232453   125A      0.233787   126A      0.237101  
     127A      0.240973   128A      0.246521   129A      0.252001  
     130A      0.257790   131A      0.259060   132A      0.270985  
     133A      0.273492   134A      0.276823   135A      0.280279  
     136A      0.282959   137A      0.287763   138A      0.291110  
     139A      0.294349   140A      0.300357   141A      0.304321  
     142A      0.311365   143A      0.311699   144A      0.319765  
     145A      0.323059   146A      0.325861   147A      0.327207  
     148A      0.333431   149A      0.336235   150A      0.338273  
     151A      0.340172   152A      0.346112   153A      0.351752  
     154A      0.354489   155A      0.358139   156A      0.361533  
     157A      0.363946   158A      0.367997   159A      0.371295  
     160A      0.375417   161A      0.376471   162A      0.379593  
     163A      0.385111   164A      0.386477   165A      0.394335  
     166A      0.396874   167A      0.398887   168A      0.404738  
     169A      0.405428   170A      0.406758   171A      0.407928  
     172A      0.414473   173A      0.417254   174A      0.420978  
     175A      0.425863   176A      0.427905   177A      0.431610  
     178A      0.433514   179A      0.438871   180A      0.446299  
     181A      0.448294   182A      0.450153   183A      0.459657  
     184A      0.463419   185A      0.471316   186A      0.473698  
     187A      0.483830   188A      0.488677   189A      0.497624  
     190A      0.503528   191A      0.508382   192A      0.512686  
     193A      0.514096   194A      0.523487   195A      0.530861  
     196A      0.534411   197A      0.537121   198A      0.546208  
     199A      0.553454   200A      0.559658   201A      0.566380  
     202A      0.571048   203A      0.575108   204A      0.579579  
     205A      0.585666   206A      0.586742   207A      0.588546  
     208A      0.599699   209A      0.607530   210A      0.611386  
     211A      0.617261   212A      0.620826   213A      0.623732  
     214A      0.626838   215A      0.631321   216A      0.639303  
     217A      0.648278   218A      0.651511   219A      0.655739  
     220A      0.660384   221A      0.664107   222A      0.669154  
     223A      0.674245   224A      0.677449   225A      0.697550  
     226A      0.702042   227A      0.711069   228A      0.712021  
     229A      0.717109   230A      0.718162   231A      0.719148  
     232A      0.732103   233A      0.736528   234A      0.743028  
     235A      0.746563   236A      0.751087   237A      0.755934  
     238A      0.756553   239A      0.762436   240A      0.770448  
     241A      0.777120   242A      0.778933   243A      0.787380  
     244A      0.790334   245A      0.793622   246A      0.796850  
     247A      0.802504   248A      0.804190   249A      0.808894  
     250A      0.810639   251A      0.815423   252A      0.823707  
     253A      0.827171   254A      0.840658   255A      0.843049  
     256A      0.847301   257A      0.849075   258A      0.857032  
     259A      0.858691   260A      0.861099   261A      0.867061  
     262A      0.870023   263A      0.872902   264A      0.879391  
     265A      0.886006   266A      0.889380   267A      0.894296  
     268A      0.897031   269A      0.900223   270A      0.906764  
     271A      0.913801   272A      0.916450   273A      0.919337  
     274A      0.920424   275A      0.927176   276A      0.932370  
     277A      0.933642   278A      0.941411   279A      0.953510  
     280A      0.954567   281A      0.958938   282A      0.962183  
     283A      0.965803   284A      0.968142   285A      0.972342  
     286A      0.973331   287A      0.981423   288A      0.985504  
     289A      0.991799   290A      0.995522   291A      1.000272  
     292A      1.001046   293A      1.006919   294A      1.011014  
     295A      1.013408   296A      1.016613   297A      1.023602  
     298A      1.028133   299A      1.034616   300A      1.041027  
     301A      1.050165   302A      1.053735   303A      1.054909  
     304A      1.059897   305A      1.065141   306A      1.068970  
     307A      1.073051   308A      1.078046   309A      1.080673  
     310A      1.083164   311A      1.087567   312A      1.093434  
     313A      1.097615   314A      1.104626   315A      1.107754  
     316A      1.110929   317A      1.118337   318A      1.124092  
     319A      1.133045   320A      1.138623   321A      1.142735  
     322A      1.149109   323A      1.156125   324A      1.159759  
     325A      1.164803   326A      1.173204   327A      1.175815  
     328A      1.179710   329A      1.191930   330A      1.195181  
     331A      1.204832   332A      1.211874   333A      1.216386  
     334A      1.226059   335A      1.231379   336A      1.235643  
     337A      1.237951   338A      1.241623   339A      1.252988  
     340A      1.259864   341A      1.267603   342A      1.275518  
     343A      1.285889   344A      1.289528   345A      1.296732  
     346A      1.298425   347A      1.303208   348A      1.317082  
     349A      1.326511   350A      1.326678   351A      1.334278  
     352A      1.340118   353A      1.355719   354A      1.357268  
     355A      1.363248   356A      1.373176   357A      1.383610  
     358A      1.386771   359A      1.394930   360A      1.397535  
     361A      1.406728   362A      1.408132   363A      1.418792  
     364A      1.420921   365A      1.431875   366A      1.435874  
     367A      1.447594   368A      1.452808   369A      1.459211  
     370A      1.474653   371A      1.487996   372A      1.489656  
     373A      1.497579   374A      1.500405   375A      1.511078  
     376A      1.518271   377A      1.521917   378A      1.537914  
     379A      1.544106   380A      1.550688   381A      1.557610  
     382A      1.564374   383A      1.566753   384A      1.575164  
     385A      1.581646   386A      1.593039   387A      1.599387  
     388A      1.604563   389A      1.615146   390A      1.632286  
     391A      1.643761   392A      1.646613   393A      1.657367  
     394A      1.665327   395A      1.670342   396A      1.673002  
     397A      1.691751   398A      1.697050   399A      1.699814  
     400A      1.707229   401A      1.710365   402A      1.718370  
     403A      1.730035   404A      1.733439   405A      1.737257  
     406A      1.753507   407A      1.756711   408A      1.771985  
     409A      1.780176   410A      1.782599   411A      1.788652  
     412A      1.792714   413A      1.801677   414A      1.805933  
     415A      1.821056   416A      1.823701   417A      1.836199  
     418A      1.848602   419A      1.858310   420A      1.858863  
     421A      1.865065   422A      1.879236   423A      1.882728  
     424A      1.889447   425A      1.901571   426A      1.902439  
     427A      1.906437   428A      1.909302   429A      1.915909  
     430A      1.930115   431A      1.931510   432A      1.939545  
     433A      1.944303   434A      1.949954   435A      1.960419  
     436A      1.964399   437A      1.967212   438A      1.976826  
     439A      1.991237   440A      1.997087   441A      2.003949  
     442A      2.007520   443A      2.013375   444A      2.025757  
     445A      2.032728   446A      2.042870   447A      2.060740  
     448A      2.064914   449A      2.066732   450A      2.075793  
     451A      2.083449   452A      2.085273   453A      2.095956  
     454A      2.107728   455A      2.119528   456A      2.132352  
     457A      2.147015   458A      2.161032   459A      2.188382  
     460A      2.197855   461A      2.199317   462A      2.204737  
     463A      2.212543   464A      2.216548   465A      2.229846  
     466A      2.239976   467A      2.243549   468A      2.253650  
     469A      2.255621   470A      2.272117   471A      2.281346  
     472A      2.291729   473A      2.298839   474A      2.306124  
     475A      2.321807   476A      2.335360   477A      2.339742  
     478A      2.354849   479A      2.364472   480A      2.379889  
     481A      2.395650   482A      2.398833   483A      2.410150  
     484A      2.411225   485A      2.418809   486A      2.430389  
     487A      2.430633   488A      2.446733   489A      2.465386  
     490A      2.475644   491A      2.480517   492A      2.502357  
     493A      2.520957   494A      2.548066   495A      2.556488  
     496A      2.568974   497A      2.580898   498A      2.587189  
     499A      2.601946   500A      2.604324   501A      2.634832  
     502A      2.637546   503A      2.660760   504A      2.663885  
     505A      2.681337   506A      2.705524   507A      2.734935  
     508A      2.737203   509A      2.740805   510A      2.751625  
     511A      2.794363   512A      2.800212   513A      2.818874  
     514A      2.852951   515A      2.872644   516A      2.881073  
     517A      2.899092   518A      2.931281   519A      2.942494  
     520A      2.955185   521A      2.987069   522A      2.995090  
     523A      3.003051   524A      3.023924   525A      3.033776  
     526A      3.038987   527A      3.051720   528A      3.071986  
     529A      3.084020   530A      3.100593   531A      3.123603  
     532A      3.140396   533A      3.161475   534A      3.167135  
     535A      3.190744   536A      3.194392   537A      3.212776  
     538A      3.220724   539A      3.223380   540A      3.237585  
     541A      3.244526   542A      3.259017   543A      3.264071  
     544A      3.265891   545A      3.280666   546A      3.284297  
     547A      3.295380   548A      3.316030   549A      3.330429  
     550A      3.346533   551A      3.353928   552A      3.362923  
     553A      3.377306   554A      3.381854   555A      3.386880  
     556A      3.391997   557A      3.394583   558A      3.410219  
     559A      3.410748   560A      3.415442   561A      3.427570  
     562A      3.435815   563A      3.446031   564A      3.460456  
     565A      3.462081   566A      3.467361   567A      3.470205  
     568A      3.490467   569A      3.501695   570A      3.507678  
     571A      3.510129   572A      3.533250   573A      3.545472  
     574A      3.558124   575A      3.561772   576A      3.568098  
     577A      3.574154   578A      3.597617   579A      3.601217  
     580A      3.611549   581A      3.625108   582A      3.630818  
     583A      3.634378   584A      3.652220   585A      3.658203  
     586A      3.660585   587A      3.664051   588A      3.683026  
     589A      3.698122   590A      3.703807   591A      3.709552  
     592A      3.719786   593A      3.735063   594A      3.741171  
     595A      3.744618   596A      3.758131   597A      3.768800  
     598A      3.773942   599A      3.782490   600A      3.788549  
     601A      3.793570   602A      3.814554   603A      3.815815  
     604A      3.824257   605A      3.830859   606A      3.846201  
     607A      3.849455   608A      3.857354   609A      3.867135  
     610A      3.873864   611A      3.880118   612A      3.883344  
     613A      3.887314   614A      3.892407   615A      3.897334  
     616A      3.914354   617A      3.933856   618A      3.942560  
     619A      3.945626   620A      3.958143   621A      3.964513  
     622A      3.984544   623A      3.988617   624A      3.996922  
     625A      4.022337   626A      4.026135   627A      4.033375  
     628A      4.047125   629A      4.050605   630A      4.057635  
     631A      4.058734   632A      4.066462   633A      4.082679  
     634A      4.085919   635A      4.101066   636A      4.107792  
     637A      4.115166   638A      4.120319   639A      4.136778  
     640A      4.142265   641A      4.143620   642A      4.163324  
     643A      4.172717   644A      4.177396   645A      4.186908  
     646A      4.193861   647A      4.202909   648A      4.210303  
     649A      4.222421   650A      4.227424   651A      4.229386  
     652A      4.245019   653A      4.252503   654A      4.257166  
     655A      4.265321   656A      4.271907   657A      4.275660  
     658A      4.293937   659A      4.303847   660A      4.308998  
     661A      4.321870   662A      4.326059   663A      4.335659  
     664A      4.350378   665A      4.366023   666A      4.369463  
     667A      4.370002   668A      4.380911   669A      4.387045  
     670A      4.403890   671A      4.413471   672A      4.424104  
     673A      4.438341   674A      4.444640   675A      4.451440  
     676A      4.458658   677A      4.488744   678A      4.508306  
     679A      4.522708   680A      4.528483   681A      4.542525  
     682A      4.544945   683A      4.563403   684A      4.581866  
     685A      4.594200   686A      4.608521   687A      4.609454  
     688A      4.627218   689A      4.641780   690A      4.650178  
     691A      4.661190   692A      4.662631   693A      4.679357  
     694A      4.701002   695A      4.709042   696A      4.735735  
     697A      4.748272   698A      4.754405   699A      4.765153  
     700A      4.774029   701A      4.791206   702A      4.798989  
     703A      4.819888   704A      4.829751   705A      4.833305  
     706A      4.847800   707A      4.860561   708A      4.876621  
     709A      4.893656   710A      4.906370   711A      4.911058  
     712A      4.926627   713A      4.939045   714A      4.952940  
     715A      4.953990   716A      4.962848   717A      4.965114  
     718A      4.984894   719A      4.991949   720A      5.003812  
     721A      5.008571   722A      5.020881   723A      5.030390  
     724A      5.044420   725A      5.052552   726A      5.060758  
     727A      5.069481   728A      5.088347   729A      5.103639  
     730A      5.130357   731A      5.143759   732A      5.154157  
     733A      5.163207   734A      5.195366   735A      5.201845  
     736A      5.207649   737A      5.209918   738A      5.242872  
     739A      5.253985   740A      5.265948   741A      5.281281  
     742A      5.294652   743A      5.314512   744A      5.328375  
     745A      5.352109   746A      5.364145   747A      5.371606  
     748A      5.387427   749A      5.415480   750A      5.438615  
     751A      5.448231   752A      5.510337   753A      5.518675  
     754A      5.546245   755A      5.559529   756A      5.572317  
     757A      5.590143   758A      5.604263   759A      5.615186  
     760A      5.628047   761A      5.647768   762A      5.672668  
     763A      5.692392   764A      5.697406   765A      5.719155  
     766A      5.732875   767A      5.778656   768A      5.824189  
     769A      5.841889   770A      5.860819   771A      5.936511  
     772A      5.940603   773A      5.982456   774A      5.993215  
     775A      6.012778   776A      6.049019   777A      6.105107  
     778A      6.128170   779A      6.138844   780A      6.190423  
     781A      6.255959   782A      6.274066   783A      6.295164  
     784A      6.347001   785A      6.387545   786A      6.397370  
     787A      6.417635   788A      6.478320   789A      6.487010  
     790A      6.546137   791A      6.579270   792A      6.649578  
     793A      6.669379   794A      6.750233   795A      6.774553  
     796A      6.783637   797A      6.798471   798A      6.816916  
     799A      6.832799   800A      6.845939   801A      6.969148  
     802A      6.979647   803A      7.034691   804A      7.194079  
     805A      7.259349   806A      7.312032   807A      7.432358  
     808A      7.458065   809A      7.515250   810A      7.542173  
     811A      7.560472   812A      7.768489   813A      7.856972  
     814A      8.073453   815A      8.506345   816A     16.018968  
     817A     16.254292   818A     16.660380   819A     16.861930  
     820A     17.031268   821A     18.791142   822A     19.110189  
     823A     19.597507   824A     19.895777   825A     20.009179  
     826A     20.179996   827A     20.533846   828A     21.742834  

    Final Occupation by Irrep:
              A 
    DOCC [    45 ]

  Energy converged.

  @DF-RHF Final Energy:  -551.67060700507830

   => Energetics <=

    Nuclear Repulsion Energy =            713.1450706576700895
    One-Electron Energy =               -2149.3187692603787582
    Two-Electron Energy =                 884.5030915976302595
    DFT Exchange-Correlation Energy =       0.0000000000000000
    Empirical Dispersion Energy =           0.0000000000000000
    PCM Polarization Energy =               0.0000000000000000
    EFP Energy =                            0.0000000000000000
    Total Energy =                       -551.6706070050782955



Properties will be evaluated at   0.000000,   0.000000,   0.000000 Bohr

Properties computed using the SCF density matrix

  Nuclear Dipole Moment: (a.u.)
     X:     2.3325      Y:    -2.1253      Z:    -1.4772

  Electronic Dipole Moment: (a.u.)
     X:     0.6220      Y:    -0.0860      Z:    -0.3962

  Dipole Moment: (a.u.)
     X:     2.9545      Y:    -2.2113      Z:    -1.8734     Total:     4.1387

  Dipole Moment: (Debye)
     X:     7.5096      Y:    -5.6206      Z:    -4.7617     Total:    10.5195


*** tstop() called on gpu-1-8.local at Sun Nov 12 08:55:04 2017
Module time:
	user time   =    1306.53 seconds =      21.78 minutes
	system time =      52.97 seconds =       0.88 minutes
	total time  =        666 seconds =      11.10 minutes
Total time:
	user time   =    1306.54 seconds =      21.78 minutes
	system time =      52.97 seconds =       0.88 minutes
	total time  =        666 seconds =      11.10 minutes

  //>>>>>>>>>>>>>>>>>>>>>>>>>>>>>>>>>>>//
  //               DFMP2               //
  //<<<<<<<<<<<<<<<<<<<<<<<<<<<<<<<<<<<//

   => Loading Basis Set <=

    Name: (AUG-CC-PVTZ AUX)
    Role: RIFIT
    Keyword: DF_BASIS_MP2
    atoms 1-11  entry C          line   147 file /cbio/jclab/home/chayas/anaconda/envs/py35/share/psi4/basis/aug-cc-pvtz-ri.gbs 
    atoms 12    entry N          line   205 file /cbio/jclab/home/chayas/anaconda/envs/py35/share/psi4/basis/aug-cc-pvtz-ri.gbs 
    atoms 13    entry O          line   263 file /cbio/jclab/home/chayas/anaconda/envs/py35/share/psi4/basis/aug-cc-pvtz-ri.gbs 
    atoms 14-23 entry H          line    29 file /cbio/jclab/home/chayas/anaconda/envs/py35/share/psi4/basis/aug-cc-pvtz-ri.gbs 

	 --------------------------------------------------------
	                          DF-MP2                         
	      2nd-Order Density-Fitted Moller-Plesset Theory     
	              RMP2 Wavefunction,   8 Threads             
	                                                         
	        Rob Parrish, Justin Turney, Andy Simmonett,      
	           Ed Hohenstein, and C. David Sherrill          
	 --------------------------------------------------------

   => Auxiliary Basis Set <=

  Basis Set: (AUG-CC-PVTZ AUX)
    Blend: AUG-CC-PVTZ-RI
    Number of shells: 504
    Number of basis function: 1838
    Number of Cartesian functions: 2318
    Spherical Harmonics?: true
    Max angular momentum: 4

	 --------------------------------------------------------
	                 NBF =   828, NAUX =  1838
	 --------------------------------------------------------
	   CLASS    FOCC     OCC    AOCC    AVIR     VIR    FVIR
	   PAIRS       0      45      45     783     783       0
	 --------------------------------------------------------


         ------------------------------------------------------------
                                     CPHF                           
                                  Rob Parrish                       
         ------------------------------------------------------------

  ==> Geometry <==

    Molecular point group: c1
    Full point group: C1

    Geometry (in Angstrom), charge = 1, multiplicity = 1:

       Center              X                  Y                   Z               Mass       
    ------------   -----------------  -----------------  -----------------  -----------------
           C         -1.267403430661     0.723663194063    -0.575458464400    12.000000000000
           C         -0.274403430661     0.107663194063     1.538541535600    12.000000000000
           C         -2.345403430661     1.296663194063     0.097541535600    12.000000000000
           C         -1.352403430661     0.680663194063     2.212541535600    12.000000000000
           C          1.287596569339     0.040663194063    -1.785458464400    12.000000000000
           C          1.563596569339    -1.545336805937     0.005541535600    12.000000000000
           C          2.363596569339    -0.549336805937    -2.433458464400    12.000000000000
           C          2.633596569339    -2.095336805937    -0.687458464400    12.000000000000
           C         -0.231403430661     0.128663194063     0.144541535600    12.000000000000
           C          0.887596569339    -0.465336805937    -0.553458464400    12.000000000000
           C         -2.388403430661     1.275663194063     1.491541535600    12.000000000000
           N          2.997596569339    -1.588336805937    -1.872458464400    14.003074004780
           O         -3.440403430661     1.835663194063     2.148541535600    15.994914619560
           H         -1.248403430661     0.747663194063    -1.662458464400     1.007825032070
           H          0.525596569339    -0.352336805937     2.114541535600     1.007825032070
           H         -3.149403430661     1.758663194063    -0.469458464400     1.007825032070
           H         -1.380403430661     0.661663194063     3.298541535600     1.007825032070
           H          0.778596569339     0.882663194063    -2.245458464400     1.007825032070
           H          1.272596569339    -1.961336805937     0.965541535600     1.007825032070
           H          2.744596569339    -0.222336805937    -3.391458464400     1.007825032070
           H          3.215596569339    -2.933336805937    -0.329458464400     1.007825032070
           H          3.785596569339    -2.007336805937    -2.365458464400     1.007825032070
           H         -4.029403430661     1.144663194063     2.492541535600     1.007825032070

  Nuclear repulsion =  713.145070657670090
  Reference energy  = -551.670607005078296

  ==> Basis Set <==

  Basis Set: AUG-CC-PVTZ
    Blend: AUG-CC-PVTZ
    Number of shells: 272
    Number of basis function: 828
    Number of Cartesian functions: 965
    Spherical Harmonics?: true
    Max angular momentum: 3

  ==> CGRSolver (by Rob Parrish) <==

   Number of roots    =         1
   Preconditioning    =    JACOBI
   Convergence cutoff =     1E-06
   Maximum iterations =       100

  ==> CPHFRHamiltonian (by Rob Parrish) <== 

  ==> DFJK: Density-Fitted J/K Matrices <==

    J tasked:                  Yes
    K tasked:                  Yes
    wK tasked:                  No
    OpenMP threads:              8
    Integrals threads:           8
    Memory (MB):              3576
    Algorithm:                Disk
    Integral Cache:           NONE
    Schwarz Cutoff:          1E-12
    Fitting Condition:       1E-12

   => Auxiliary Basis Set <=

  Basis Set: (AUG-CC-PVTZ AUX)
    Blend: AUG-CC-PVTZ-JKFIT
    Number of shells: 530
    Number of basis function: 1812
    Number of Cartesian functions: 2253
    Spherical Harmonics?: true
    Max angular momentum: 4

  ==> CPHF Iterations <==

  => Iterations <=

             Iter  Converged  Remaining    Residual
  CGR           1          0          1   1.037E-01
  CGR           2          0          1   4.840E-02
  CGR           3          0          1   2.758E-02
  CGR           4          0          1   8.923E-03
  CGR           5          0          1   3.912E-03
  CGR           6          0          1   1.999E-03
  CGR           7          0          1   7.002E-04
  CGR           8          0          1   2.745E-04
  CGR           9          0          1   1.175E-04
  CGR          10          0          1   3.967E-05
  CGR          11          0          1   1.059E-05
  CGR          12          0          1   4.208E-06
  CGR          13          0          1   1.344E-06
  CGR          14          1          0   4.566E-07

    CGRSolver converged.

  ==> DFCorrGrad: Density-Fitted Correlated Gradients <==

    OpenMP threads:              8
    Integrals threads:           8
    Memory (MB):              3576
    Schwarz Cutoff:          0E+00
    Fitting Condition:       1E-12

   => Auxiliary Basis Set <=

  Basis Set: (AUG-CC-PVTZ AUX)
    Blend: AUG-CC-PVTZ-JKFIT
    Number of shells: 530
    Number of basis function: 1812
    Number of Cartesian functions: 2253
    Spherical Harmonics?: true
    Max angular momentum: 4

	-----------------------------------------------------------
	 ==================> DF-MP2 Energies <==================== 
	-----------------------------------------------------------
	 Reference Energy          =    -551.6706070050782955 [Eh]
	 Singles Energy            =      -0.0000000000000002 [Eh]
	 Same-Spin Energy          =      -0.5961269035577191 [Eh]
	 Opposite-Spin Energy      =      -1.8246390164032040 [Eh]
	 Correlation Energy        =      -2.4207659199609233 [Eh]
	 Total Energy              =    -554.0913729250391953 [Eh]
	-----------------------------------------------------------
	 ================> DF-SCS-MP2 Energies <================== 
	-----------------------------------------------------------
	 SCS Same-Spin Scale       =       0.3333333333333333 [-]
	 SCS Opposite-Spin Scale   =       1.2000000000000000 [-]
	 SCS Same-Spin Energy      =      -0.1987089678525730 [Eh]
	 SCS Opposite-Spin Energy  =      -2.1895668196838449 [Eh]
	 SCS Correlation Energy    =      -2.3882757875364180 [Eh]
	 SCS Total Energy          =    -554.0588827926146678 [Eh]
	-----------------------------------------------------------


  -Total Gradient:
     Atom            X                  Y                   Z
    ------   -----------------  -----------------  -----------------
       1        0.006845482007    -0.009564739494    -0.003880927084
       2        0.009393074594    -0.000546216539    -0.007935480288
       3       -0.004668995596    -0.000140266402     0.006392815945
       4       -0.008948124571     0.003843514618     0.002664862342
       5       -0.014960601508     0.008908222544     0.012919427064
       6       -0.018556429159     0.008117211085     0.008446609601
       7        0.007922874405    -0.009929345039     0.004820435553
       8        0.005199826754     0.003463496636    -0.013457851460
       9       -0.000515066588     0.000178959464     0.000265645591
      10        0.012709898349    -0.006061031531    -0.008122289269
      11       -0.001444490393     0.009830792025     0.000022658654
      12       -0.001197836984     0.000180215636     0.001156488611
      13        0.007789482021     0.000921356629     0.000141324925
      14        0.001608130459     0.001718406522    -0.005764509922
      15        0.003655449010    -0.004345168886     0.002790236779
      16       -0.002680153148     0.002395362230    -0.005299769891
      17        0.001474817534    -0.001830468428     0.005389007671
      18       -0.005044080217     0.004286936280    -0.002934407670
      19       -0.001585524899    -0.000772700811     0.006970037528
      20        0.001880935265    -0.000435306071    -0.002556951042
      21        0.002383522442    -0.001694012898    -0.000095990714
      22        0.004997258753    -0.002694053014    -0.003171374978
      23       -0.006259448536    -0.005831164550     0.001240002047


*** tstop() called on gpu-1-8.local at Sun Nov 12 09:41:22 2017
Module time:
	user time   =    6403.39 seconds =     106.72 minutes
	system time =     114.65 seconds =       1.91 minutes
	total time  =       3444 seconds =      57.40 minutes
Total time:
	user time   =    6403.40 seconds =     106.72 minutes
	system time =     114.65 seconds =       1.91 minutes
	total time  =       3444 seconds =      57.40 minutes

			-----------------------------------------
			 OPTKING 2.0: for geometry optimizations 
			  - R.A. King,  Bethel University        
			-----------------------------------------

	Internal coordinates to be generated automatically.
	Detected frag 1 with atoms:  1 2 3 4 5 6 7 8 9 10 11 12 13 14 15 16 17 18 19 20
	 21 22 23
	---Fragment 1 Bond Connectivity---
	 1 : 3 9 14
	 2 : 4 9 15
	 3 : 1 11 16
	 4 : 2 11 17
	 5 : 7 10 18
	 6 : 8 10 19
	 7 : 5 12 20
	 8 : 6 12 21
	 9 : 1 2 10
	 10 : 5 6 9
	 11 : 3 4 13
	 12 : 7 8 22
	 13 : 11 23
	 14 : 1
	 15 : 2
	 16 : 3
	 17 : 4
	 18 : 5
	 19 : 6
	 20 : 7
	 21 : 8
	 22 : 12
	 23 : 13

	Assuming in current code that numbering for constraints corresponds to unified fragment.
	Fixed dihedral atom list: 
	     3    11    13    23
	---Fragment 1 Geometry and Gradient---
	 C          -2.3950453838        1.3675252492       -1.0874588986
	 C          -0.5185473339        0.2034539514        2.9074221464
	 C          -4.4321701551        2.4503383234        0.1843267889
	 C          -2.5556721051        1.2862670255        4.1810975599
	 C           2.4332048857        0.0768423005       -3.3740275194
	 C           2.9547692984       -2.9202633463        0.0104719846
	 C           4.4665502047       -1.0380961179       -4.5985700535
	 C           4.9767762606       -3.9596127194       -1.2991082254
	 C          -0.4372891102        0.2431382002        0.2731439171
	 C           1.6773144325       -0.8793591228       -1.0458849236
	 C          -4.5134283788        2.4106540746        2.8186050181
	 N           5.6646365729       -3.0015215700       -3.5384336929
	 O          -6.5014202706        3.4689007090        4.0601550874
	 H          -2.3591405873        1.4128786764       -3.1415912050
	 H           0.9932335724       -0.6658200698        3.9959043989
	 H          -5.9515099659        3.3233917968       -0.8871479285
	 H          -2.6085844368        1.2503622290        6.2333401402
	 H           1.4713342841        1.6679917044       -4.2433015405
	 H           2.4048589937       -3.7063894176        1.8246090722
	 H           5.1865358613       -0.4201556725       -6.4089276888
	 H           6.0765968699       -5.5432032187       -0.6225862699
	 H           7.1537407656       -3.7933168197       -4.4700686764
	 H          -7.6144689629        2.1630999512        4.7102208771
	             0.0068454820       -0.0095647395       -0.0038809271
	             0.0093930746       -0.0005462165       -0.0079354803
	            -0.0046689956       -0.0001402664        0.0063928159
	            -0.0089481246        0.0038435146        0.0026648623
	            -0.0149606015        0.0089082225        0.0129194271
	            -0.0185564292        0.0081172111        0.0084466096
	             0.0079228744       -0.0099293450        0.0048204356
	             0.0051998268        0.0034634966       -0.0134578515
	            -0.0005150666        0.0001789595        0.0002656456
	             0.0127098983       -0.0060610315       -0.0081222893
	            -0.0014444904        0.0098307920        0.0000226587
	            -0.0011978370        0.0001802156        0.0011564886
	             0.0077894820        0.0009213566        0.0001413249
	             0.0016081305        0.0017184065       -0.0057645099
	             0.0036554490       -0.0043451689        0.0027902368
	            -0.0026801531        0.0023953622       -0.0052997699
	             0.0014748175       -0.0018304684        0.0053890077
	            -0.0050440802        0.0042869363       -0.0029344077
	            -0.0015855249       -0.0007727008        0.0069700375
	             0.0018809353       -0.0004353061       -0.0025569510
	             0.0023835224       -0.0016940129       -0.0000959907
	             0.0049972588       -0.0026940530       -0.0031713750
	            -0.0062594485       -0.0058311646        0.0012400020

	Previous optimization step data not found.  Starting new optimization.

	---Fragment 1 Intrafragment Coordinates---
	 - Coordinate -           - BOHR/RAD -       - ANG/DEG -
	 R(1,3)           =         2.634350	       1.394038
	 R(1,9)           =         2.635962	       1.394891
	 R(1,14)          =         2.054947	       1.087431
	 R(2,4)           =         2.635263	       1.394521
	 R(2,9)           =         2.635830	       1.394821
	 R(2,15)          =         2.055702	       1.087831
	 R(3,11)          =         2.635830	       1.394821
	 R(3,16)          =         2.053941	       1.086899
	 R(4,11)          =         2.636938	       1.395407
	 R(4,17)          =         2.053239	       1.086527
	 R(5,7)           =         2.622420	       1.387725
	 R(5,10)          =         2.627915	       1.390633
	 R(5,18)          =         2.052459	       1.086115
	 R(6,8)           =         2.623692	       1.388398
	 R(6,10)          =         2.629272	       1.391351
	 R(6,19)          =         2.052191	       1.085973
	 R(7,12)          =         2.532655	       1.340223
	 R(7,20)          =         2.043924	       1.081598
	 R(8,12)          =         2.530942	       1.339317
	 R(8,21)          =         2.043293	       1.081264
	 R(9,10)          =         2.733384	       1.446444
	 R(11,13)         =         2.571662	       1.360865
	 R(12,22)         =         1.926737	       1.019585
	 R(13,23)         =         1.834824	       0.970947
	 B(1,3,11)        =         2.094553	     120.009056
	 B(1,3,16)        =         2.088505	     119.662516
	 B(1,9,2)         =         2.093692	     119.959722
	 B(1,9,10)        =         2.095161	     120.043881
	 B(2,4,11)        =         2.093699	     119.960108
	 B(2,4,17)        =         2.089577	     119.723926
	 B(2,9,10)        =         2.094332	     119.996376
	 B(3,1,9)         =         2.094940	     120.031219
	 B(3,1,14)        =         2.079469	     119.144799
	 B(3,11,4)        =         2.094306	     119.994870
	 B(3,11,13)       =         2.094549	     120.008801
	 B(4,2,9)         =         2.095181	     120.045019
	 B(4,2,15)        =         2.078675	     119.099297
	 B(4,11,13)       =         2.094331	     119.996326
	 B(5,7,12)        =         2.095473	     120.061759
	 B(5,7,20)        =         2.162990	     123.930212
	 B(5,10,6)        =         2.092808	     119.909049
	 B(5,10,9)        =         2.095104	     120.040644
	 B(6,8,12)        =         2.095689	     120.074121
	 B(6,8,21)        =         2.161055	     123.819347
	 B(6,10,9)        =         2.095271	     120.050189
	 B(7,5,10)        =         2.073747	     118.816947
	 B(7,5,18)        =         2.088865	     119.683141
	 B(7,12,8)        =         2.135611	     122.361511
	 B(7,12,22)       =         2.073499	     118.802740
	 B(8,6,10)        =         2.073041	     118.776513
	 B(8,6,19)        =         2.089782	     119.735704
	 B(8,12,22)       =         2.074075	     118.835741
	 B(9,1,14)        =         2.108776	     120.823969
	 B(9,2,15)        =         2.109330	     120.855683
	 B(10,5,18)       =         2.120573	     121.499869
	 B(10,6,19)       =         2.120361	     121.487761
	 B(11,3,16)       =         2.100127	     120.328425
	 B(11,4,17)       =         2.099910	     120.315955
	 B(11,13,23)      =         1.925308	     110.312038
	 B(12,7,20)       =         2.024722	     116.007998
	 B(12,8,21)       =         2.026441	     116.106509
	 D(1,3,11,4)      =        -0.000325	      -0.018609
	 D(1,3,11,13)     =         3.140978	     179.964785
	 D(1,9,2,4)       =         0.000325	       0.018608
	 D(1,9,2,15)      =        -3.141497	    -179.994534
	 D(1,9,10,5)      =         0.522161	      29.917626
	 D(1,9,10,6)      =        -2.617252	    -149.957477
	 D(2,4,11,3)      =         0.000301	       0.017261
	 D(2,4,11,13)     =        -3.141002	    -179.966135
	 D(2,9,1,3)       =        -0.000348	      -0.019945
	 D(2,9,1,14)      =        -3.141221	    -179.978731
	 D(2,9,10,5)      =        -2.618515	    -150.029870
	 D(2,9,10,6)      =         0.525257	      30.095026
	 D(3,1,9,10)      =        -3.141025	    -179.967461
	 D(3,11,4,17)     =         3.141223	     179.978848
	 D(3,11,13,23)    =         1.832215	     104.978171
	 D(4,2,9,10)      =         3.141002	     179.966149
	 D(4,11,3,16)     =         3.141593	     180.000000
	 D(4,11,13,23)    =        -1.309668	     -75.038435
	 D(5,7,12,8)      =        -0.000900	      -0.051587
	 D(5,7,12,22)     =         3.141281	     179.982140
	 D(5,10,6,8)      =         0.001757	       0.100696
	 D(5,10,6,19)     =        -3.140779	    -179.953357
	 D(6,8,12,7)      =         0.001479	       0.084766
	 D(6,8,12,22)     =        -3.140702	    -179.948971
	 D(6,10,5,7)      =        -0.001201	      -0.068795
	 D(6,10,5,18)     =        -3.141485	    -179.993816
	 D(7,5,10,9)      =        -3.140617	    -179.944076
	 D(7,12,8,21)     =        -3.141052	    -179.969035
	 D(8,6,10,9)      =         3.141173	     179.975965
	 D(8,12,7,20)     =         3.139609	     179.886353
	 D(9,1,3,11)      =         0.000348	       0.019955
	 D(9,1,3,16)      =        -3.141571	    -179.998735
	 D(9,2,4,11)      =        -0.000301	      -0.017270
	 D(9,2,4,17)      =        -3.141228	    -179.979086
	 D(9,10,5,18)     =         0.002285	       0.130903
	 D(9,10,6,19)     =        -0.001363	      -0.078088
	 D(10,5,7,12)     =         0.000747	       0.042772
	 D(10,5,7,20)     =        -3.139673	    -179.890006
	 D(10,6,8,12)     =        -0.001882	      -0.107847
	 D(10,6,8,21)     =         3.140725	     179.950304
	 D(10,9,1,14)     =         0.001287	       0.073752
	 D(10,9,2,15)     =        -0.000820	      -0.046992
	 D(11,3,1,14)     =         3.141234	     179.979432
	 D(11,4,2,15)     =         3.141517	     179.995641
	 D(12,7,5,18)     =         3.141055	     179.969186
	 D(12,8,6,19)     =         3.140637	     179.945236
	 D(13,11,3,16)    =        -0.000286	      -0.016400
	 D(13,11,4,17)    =        -0.000079	      -0.004548
	 D(14,1,3,16)     =        -0.000685	      -0.039257
	 D(15,2,4,17)     =         0.000590	       0.033826
	 D(18,5,7,20)     =         0.000635	       0.036408
	 D(19,6,8,21)     =         0.000059	       0.003387
	 D(20,7,12,22)    =        -0.001395	      -0.079920
	 D(21,8,12,22)    =        -0.000048	      -0.002772

	Current energy   :      -554.0913729250

	Generating empirical Hessian (Schlegel '84) for each fragment.
	Adding user-defined constraint: Fragment 1; Coordinate 76:
		Value =     1.832215; Fixed value    =     1.832596
		Force =     0.000190; Force constant =     0.500000
	Removing off-diagonal coupling between coordinate 76 and others.
	Taking RFO optimization step.
	Going to follow RFO solution 1.
	Using RFO vector 1.

	Determining step-restricting scale parameter for RS-RFO.
	Maximum step size allowed    0.10000

	 Iter      |step|        alpha        rfo_root  
	------------------------------------------------
	    0     0.25400       1.00000           1
	    1     0.17558       4.23870           1
	    2     0.13417      10.23602           1
	    3     0.11212      18.99133           1
	    4     0.10231      26.18795           1
	    5     0.10011      28.25200           1
	    6     0.10000      28.35676           1
	------------------------------------------------
	Norm of target step-size    0.10000
	Projected energy change by RFO approximation:        -0.0039937988

	Back-transformation to cartesian coordinates...
	Could not converge backtransformation.
	Using first guess instead.

	--- Internal Coordinate Step in ANG or DEG, aJ/ANG or AJ/DEG ---
	 ---------------------------------------------------------------------------
	   Coordinate                Previous        Force       Change         New 
	   ----------                --------       ------       ------       ------
	    1 R(1,3)          =      1.394038    -0.081931    -0.009157     1.384881
	    2 R(1,9)          =      1.394891     0.013722     0.001770     1.396661
	    3 R(1,14)         =      1.087431    -0.048017    -0.006654     1.080777
	    4 R(2,4)          =      1.394521    -0.085033    -0.009502     1.385019
	    5 R(2,9)          =      1.394821     0.013021     0.001689     1.396511
	    6 R(2,15)         =      1.087831    -0.049458    -0.006848     1.080983
	    7 R(3,11)         =      1.394821    -0.046840    -0.005439     1.389382
	    8 R(3,16)         =      1.086899    -0.047500    -0.006556     1.080342
	    9 R(4,11)         =      1.395407    -0.034496    -0.004044     1.391364
	   10 R(4,17)         =      1.086527    -0.044328    -0.006087     1.080440
	   11 R(5,7)          =      1.387725    -0.111709    -0.012204     1.375521
	   12 R(5,10)         =      1.390633     0.066393     0.007558     1.398191
	   13 R(5,18)         =      1.086115    -0.057095    -0.007883     1.078231
	   14 R(6,8)          =      1.388398    -0.115855    -0.012727     1.375671
	   15 R(6,10)         =      1.391351     0.061287     0.007060     1.398411
	   16 R(6,19)         =      1.085973    -0.056702    -0.007790     1.078183
	   17 R(7,12)         =      1.340223     0.017229     0.001571     1.341794
	   18 R(7,20)         =      1.081598    -0.023033    -0.003117     1.078481
	   19 R(8,12)         =      1.339317     0.023263     0.002146     1.341463
	   20 R(8,21)         =      1.081264    -0.021125    -0.002882     1.078382
	   21 R(9,10)         =      1.446444     0.067037     0.008687     1.455131
	   22 R(11,13)        =      1.360865     0.020896     0.002218     1.363082
	   23 R(12,22)        =      1.019585    -0.053575    -0.006225     1.013360
	   24 R(13,23)        =      0.970947    -0.069092    -0.006879     0.964068
	   25 B(1,3,11)       =    120.009056     0.000037     0.031452   120.040509
	   26 B(1,3,16)       =    119.662516     0.000193     0.581424   120.243940
	   27 B(1,9,2)        =    119.959722    -0.000421    -0.826504   119.133218
	   28 B(1,9,10)       =    120.043881     0.000202     0.396984   120.440865
	   29 B(2,4,11)       =    119.960108     0.000071     0.114295   120.074403
	   30 B(2,4,17)       =    119.723926     0.000140     0.437752   120.161678
	   31 B(2,9,10)       =    119.996376     0.000218     0.429439   120.425815
	   32 B(3,1,9)        =    120.031219     0.000176     0.422788   120.454007
	   33 B(3,1,14)       =    119.144799    -0.000131    -0.337401   118.807398
	   34 B(3,11,4)       =    119.994870     0.000006    -0.068317   119.926553
	   35 B(3,11,13)      =    120.008801    -0.000254    -0.491622   119.517179
	   36 B(4,2,9)        =    120.045019     0.000131     0.324902   120.369921
	   37 B(4,2,15)       =    119.099297    -0.000096    -0.253536   118.845761
	   38 B(4,11,13)      =    119.996326     0.000248     0.555781   120.552107
	   39 B(5,7,12)       =    120.061759    -0.000234    -0.578280   119.483479
	   40 B(5,7,20)       =    123.930212    -0.000003    -0.046238   123.883974
	   41 B(5,10,6)       =    119.909049    -0.000814    -1.695276   118.213772
	   42 B(5,10,9)       =    120.040644     0.000396     0.824837   120.865482
	   43 B(6,8,12)       =    120.074121    -0.000229    -0.571118   119.503002
	   44 B(6,8,21)       =    123.819347     0.000009    -0.010572   123.808774
	   45 B(6,10,9)       =    120.050189     0.000418     0.870506   120.920695
	   46 B(7,5,10)       =    118.816947     0.000518     1.179426   119.996373
	   47 B(7,5,18)       =    119.683141    -0.000343    -0.832865   118.850277
	   48 B(7,12,8)       =    122.361511     0.000229     0.469604   122.831115
	   49 B(7,12,22)      =    118.802740    -0.000114    -0.233691   118.569048
	   50 B(8,6,10)       =    118.776513     0.000529     1.195669   119.972182
	   51 B(8,6,19)       =    119.735704    -0.000353    -0.853955   118.881750
	   52 B(8,12,22)      =    118.835741    -0.000115    -0.235911   118.599830
	   53 B(9,1,14)       =    120.823969    -0.000045    -0.088885   120.735084
	   54 B(9,2,15)       =    120.855683    -0.000035    -0.075059   120.780624
	   55 B(10,5,18)      =    121.499869    -0.000176    -0.348125   121.151744
	   56 B(10,6,19)      =    121.487761    -0.000176    -0.342531   121.145230
	   57 B(11,3,16)      =    120.328425    -0.000230    -0.612955   119.715470
	   58 B(11,4,17)      =    120.315955    -0.000212    -0.552431   119.763524
	   59 B(11,13,23)     =    110.312038    -0.000019    -0.047829   110.264210
	   60 B(12,7,20)      =    116.007998     0.000237     0.624092   116.632090
	   61 B(12,8,21)      =    116.106509     0.000220     0.581335   116.687844
	   62 D(1,3,11,4)     =     -0.018609    -0.000001    -0.078149    -0.096758
	   63 D(1,3,11,13)    =    179.964785    -0.000033    -0.799424   179.165361
	   64 D(1,9,2,4)      =      0.018608    -0.000005    -0.142816    -0.124208
	   65 D(1,9,2,15)     =   -179.994534     0.000023     0.577585  -179.416949
	   66 D(1,9,10,5)     =     29.917626     0.000009     0.265548    30.183175
	   67 D(1,9,10,6)     =   -149.957477     0.000008     0.224044  -149.733433
	   68 D(2,4,11,3)     =      0.017261    -0.000012    -0.263224    -0.245962
	   69 D(2,4,11,13)    =   -179.966135     0.000020     0.465800  -179.500335
	   70 D(2,9,1,3)      =     -0.019945    -0.000008    -0.199676    -0.219621
	   71 D(2,9,1,14)     =   -179.978731     0.000017     0.448842  -179.529890
	   72 D(2,9,10,5)     =   -150.029870     0.000012     0.330354  -149.699516
	   73 D(2,9,10,6)     =     30.095026     0.000011     0.288850    30.383876
	   74 D(3,1,9,10)     =   -179.967461    -0.000005    -0.136355  -180.103816
	   75 D(3,11,4,17)    =    179.978848    -0.000019    -0.452978   179.525870
	   76 D(3,11,13,23)   =    104.978171     0.000023     0.178311   105.156481
	   77 D(4,2,9,10)     =    179.966149    -0.000008    -0.206144   179.760005
	   78 D(4,11,3,16)    =    180.000000     0.000002     0.006649   180.006649
	   79 D(4,11,13,23)   =    -75.038435    -0.000009    -0.547675   -75.586111
	   80 D(5,7,12,8)     =     -0.051587     0.000001     0.021331    -0.030256
	   81 D(5,7,12,22)    =    179.982140     0.000001     0.017047   179.999187
	   82 D(5,10,6,8)     =      0.100696    -0.000001    -0.012397     0.088298
	   83 D(5,10,6,19)    =   -179.953357     0.000015     0.378376  -179.574981
	   84 D(6,8,12,7)     =      0.084766    -0.000000    -0.009693     0.075073
	   85 D(6,8,12,22)    =   -179.948971    -0.000000    -0.005407  -179.954379
	   86 D(6,10,5,7)     =     -0.068795     0.000001     0.024688    -0.044107
	   87 D(6,10,5,18)    =   -179.993816     0.000016     0.416115  -179.577701
	   88 D(7,5,10,9)     =   -179.944076    -0.000001    -0.018846  -179.962921
	   89 D(7,12,8,21)    =   -179.969035    -0.000007    -0.171383  -180.140418
	   90 D(8,6,10,9)     =    179.975965     0.000001     0.031101   180.007066
	   91 D(8,12,7,20)    =    179.886353    -0.000006    -0.152985   179.733368
	   92 D(9,1,3,11)     =      0.019955     0.000011     0.310331     0.330286
	   93 D(9,1,3,16)     =   -179.998735     0.000008     0.225061  -179.773673
	   94 D(9,2,4,11)     =     -0.017270     0.000015     0.373781     0.356511
	   95 D(9,2,4,17)     =   -179.979086     0.000022     0.564680  -179.414405
	   96 D(9,10,5,18)    =      0.130903     0.000014     0.372581     0.503484
	   97 D(9,10,6,19)    =     -0.078088     0.000016     0.421875     0.343787
	   98 D(10,5,7,12)    =      0.042772    -0.000001    -0.028005     0.014768
	   99 D(10,5,7,20)    =   -179.890006     0.000006     0.159297  -179.730709
	  100 D(10,6,8,12)    =     -0.107847     0.000000     0.004225    -0.103622
	  101 D(10,6,8,21)    =    179.950304     0.000007     0.177791   180.128095
	  102 D(10,9,1,14)    =      0.073752     0.000020     0.512162     0.585915
	  103 D(10,9,2,15)    =     -0.046992     0.000020     0.514257     0.467264
	  104 D(11,3,1,14)    =    179.979432    -0.000013    -0.325728   179.653705
	  105 D(11,4,2,15)    =    179.995641    -0.000012    -0.332832   179.662809
	  106 D(12,7,5,18)    =    179.969186    -0.000016    -0.410130   179.559057
	  107 D(12,8,6,19)    =    179.945236    -0.000015    -0.377981   179.567255
	  108 D(13,11,3,16)   =     -0.016400    -0.000030    -0.714832    -0.731231
	  109 D(13,11,4,17)   =     -0.004548     0.000013     0.276045     0.271497
	  110 D(14,1,3,16)    =     -0.039257    -0.000016    -0.410997    -0.450254
	  111 D(15,2,4,17)    =      0.033826    -0.000005    -0.141933    -0.108108
	  112 D(18,5,7,20)    =      0.036408    -0.000009    -0.222828    -0.186420
	  113 D(19,6,8,21)    =      0.003387    -0.000008    -0.204415    -0.201027
	  114 D(20,7,12,22)   =     -0.079920    -0.000006    -0.157269    -0.237189
	  115 D(21,8,12,22)   =     -0.002772    -0.000006    -0.167097    -0.169869
	 ---------------------------------------------------------------------------
	Successfully symmetrized geometry.
	 Forces used to impose fixed constraints are not included.
	  Forces zeroed: 76 

  ==> Convergence Check <==

  Measures of convergence in internal coordinates in au.
  Criteria marked as inactive (o), active & met (*), and active & unmet ( ).
  --------------------------------------------------------------------------------------------- ~
   Step     Total Energy     Delta E     MAX Force     RMS Force      MAX Disp      RMS Disp    ~
  --------------------------------------------------------------------------------------------- ~
    Convergence Criteria    1.00e-06 *    3.00e-04 *             o    1.20e-03 *             o  ~
  --------------------------------------------------------------------------------------------- ~
      1    -554.09137293   -5.54e+02      1.41e-02      3.85e-03 o    2.96e-02      9.32e-03 o  ~
  ---------------------------------------------------------------------------------------------

	Writing optimization data to binary file.
	Structure for next step:
	Cartesian Geometry (in Angstrom)
	    C    -1.2804878788   0.7244344124  -0.5617923390
	    C    -0.2876755254   0.1128767094   1.5454210448
	    C    -2.3532364819   1.2898424856   0.1071011976
	    C    -1.3575015181   0.6848793587   2.2136741708
	    C     1.3071604090   0.0309213020  -1.7904934030
	    C     1.5799905345  -1.5561180246  -0.0111402604
	    C     2.3732653927  -0.5466713548  -2.4400049704
	    C     2.6418181813  -2.1043335594  -0.6926480906
	    C    -0.2373065658   0.1278357226   0.1498992716
	    C     0.8886282782  -0.4681600697  -0.5532837382
	    C    -2.3943543357   1.2726208350   1.4957680762
	    N     3.0038010853  -1.5887002245  -1.8769674356
	    O    -3.4469503604   1.8473313082   2.1436439815
	    H    -1.2716548776   0.7439348567  -1.6423577006
	    H     0.5096857542  -0.3333709448   2.1230046719
	    H    -3.1600999159   1.7472053016  -0.4469119498
	    H    -1.3884335497   0.6797631493   3.2936591709
	    H     0.8124880227   0.8722518161  -2.2488001124
	    H     1.2932054032  -1.9828925223   0.9365395348
	    H     2.7507804678  -0.2104759710  -3.3926725790
	    H     3.2162367164  -2.9435064919  -0.3338436052
	    H     3.7874597677  -2.0035838873  -2.3675272548
	    H    -4.0380979090   1.1681692562   2.4881876377
			--------------------------
			 OPTKING Finished Execution 
			--------------------------

    Structure for next step:
    Molecular point group: c1
    Full point group: C1

    Geometry (in Angstrom), charge = 1, multiplicity = 1:

    C           -1.280625033458     0.725372694603    -0.561507177194
    C           -0.287812680021     0.113814991670     1.545706206661
    C           -2.353373636571     1.290780767796     0.107386359435
    C           -1.357638672720     0.685817640872     2.213959332637
    C            1.307023254359     0.031859584244    -1.790208241191
    C            1.579853379875    -1.555179742333    -0.010855098604
    C            2.373128238075    -0.545733072589    -2.439719808583
    C            2.641681026664    -2.103395277152    -0.692362928778
    C           -0.237443720425     0.128774004823     0.150184433397
    C            0.888491123514    -0.467221787500    -0.552998576341
    C           -2.394491490327     1.273559117194     1.496053237968
    N            3.003663930599    -1.587761942270    -1.876682273804
    O           -3.447087515022     1.848269590375     2.143929143282
    H           -1.271792032213     0.744873138911    -1.642072538776
    H            0.509548599512    -0.332432662547     2.123289833675
    H           -3.160237070520     1.748143583829    -0.446626787967
    H           -1.388570704400     0.680701431542     3.293944332738
    H            0.812350868006     0.873190098282    -2.248514950591
    H            1.293068248552    -1.981954240086     0.936824696565
    H            2.750643313183    -0.209537688817    -3.392387417154
    H            3.216099561731    -2.942568209670    -0.333558443435
    H            3.787322613061    -2.002645605057    -2.367242092990
    H           -4.038235063695     1.169107538424     2.488472799532

gradient() will perform analytic gradient computation.

*** tstart() called on gpu-1-8.local
*** at Sun Nov 12 09:41:23 2017

    SCF Algorithm Type (re)set to DF.

*** tstart() called on gpu-1-8.local
*** at Sun Nov 12 09:41:23 2017

   => Loading Basis Set <=

    Name: AUG-CC-PVTZ
    Role: ORBITAL
    Keyword: BASIS
    atoms 1-11  entry C          line   221 file /cbio/jclab/home/chayas/anaconda/envs/py35/share/psi4/basis/aug-cc-pvtz.gbs 
    atoms 12    entry N          line   267 file /cbio/jclab/home/chayas/anaconda/envs/py35/share/psi4/basis/aug-cc-pvtz.gbs 
    atoms 13    entry O          line   313 file /cbio/jclab/home/chayas/anaconda/envs/py35/share/psi4/basis/aug-cc-pvtz.gbs 
    atoms 14-23 entry H          line    34 file /cbio/jclab/home/chayas/anaconda/envs/py35/share/psi4/basis/aug-cc-pvtz.gbs 


         ---------------------------------------------------------
                                   SCF
            by Justin Turney, Rob Parrish, and Andy Simmonett
                              RHF Reference
                        8 Threads,   4768 MiB Core
         ---------------------------------------------------------

  ==> Geometry <==

    Molecular point group: c1
    Full point group: C1

    Geometry (in Angstrom), charge = 1, multiplicity = 1:

       Center              X                  Y                   Z               Mass       
    ------------   -----------------  -----------------  -----------------  -----------------
           C         -1.280625033458     0.725372694603    -0.561507177194    12.000000000000
           C         -0.287812680021     0.113814991670     1.545706206661    12.000000000000
           C         -2.353373636571     1.290780767796     0.107386359435    12.000000000000
           C         -1.357638672720     0.685817640872     2.213959332637    12.000000000000
           C          1.307023254359     0.031859584244    -1.790208241191    12.000000000000
           C          1.579853379875    -1.555179742333    -0.010855098604    12.000000000000
           C          2.373128238075    -0.545733072589    -2.439719808583    12.000000000000
           C          2.641681026664    -2.103395277152    -0.692362928778    12.000000000000
           C         -0.237443720425     0.128774004823     0.150184433397    12.000000000000
           C          0.888491123514    -0.467221787500    -0.552998576341    12.000000000000
           C         -2.394491490327     1.273559117194     1.496053237968    12.000000000000
           N          3.003663930599    -1.587761942270    -1.876682273804    14.003074004780
           O         -3.447087515022     1.848269590375     2.143929143282    15.994914619560
           H         -1.271792032213     0.744873138911    -1.642072538776     1.007825032070
           H          0.509548599512    -0.332432662547     2.123289833675     1.007825032070
           H         -3.160237070520     1.748143583829    -0.446626787967     1.007825032070
           H         -1.388570704400     0.680701431542     3.293944332738     1.007825032070
           H          0.812350868006     0.873190098282    -2.248514950591     1.007825032070
           H          1.293068248552    -1.981954240086     0.936824696565     1.007825032070
           H          2.750643313183    -0.209537688817    -3.392387417154     1.007825032070
           H          3.216099561731    -2.942568209670    -0.333558443435     1.007825032070
           H          3.787322613061    -2.002645605057    -2.367242092990     1.007825032070
           H         -4.038235063695     1.169107538424     2.488472799532     1.007825032070

  Running in c1 symmetry.

  Rotational constants: A =      0.09651  B =      0.01326  C =      0.01186 [cm^-1]
  Rotational constants: A =   2893.20215  B =    397.53712  C =    355.69246 [MHz]
  Nuclear repulsion =  712.840483225237222

  Charge       = 1
  Multiplicity = 1
  Electrons    = 90
  Nalpha       = 45
  Nbeta        = 45

  ==> Algorithm <==

  SCF Algorithm Type is DF.
  DIIS enabled.
  MOM disabled.
  Fractional occupation disabled.
  Guess Type is READ.
  Energy threshold   = 1.00e-10
  Density threshold  = 1.00e-10
  Integral threshold = 0.00e+00

  ==> Primary Basis <==

  Basis Set: AUG-CC-PVTZ
    Blend: AUG-CC-PVTZ
    Number of shells: 272
    Number of basis function: 828
    Number of Cartesian functions: 965
    Spherical Harmonics?: true
    Max angular momentum: 3

   => Loading Basis Set <=

    Name: (AUG-CC-PVTZ AUX)
    Role: JKFIT
    Keyword: DF_BASIS_SCF
    atoms 1-11  entry C          line   161 file /cbio/jclab/home/chayas/anaconda/envs/py35/share/psi4/basis/aug-cc-pvtz-jkfit.gbs 
    atoms 12    entry N          line   223 file /cbio/jclab/home/chayas/anaconda/envs/py35/share/psi4/basis/aug-cc-pvtz-jkfit.gbs 
    atoms 13    entry O          line   285 file /cbio/jclab/home/chayas/anaconda/envs/py35/share/psi4/basis/aug-cc-pvtz-jkfit.gbs 
    atoms 14-23 entry H          line    69 file /cbio/jclab/home/chayas/anaconda/envs/py35/share/psi4/basis/aug-cc-pvtz-jkfit.gbs 

  Reading orbitals from file 180, no projection.

  ==> Pre-Iterations <==

   -------------------------------------------------------
    Irrep   Nso     Nmo     Nalpha   Nbeta   Ndocc  Nsocc
   -------------------------------------------------------
     A        828     828       0       0       0       0
   -------------------------------------------------------
    Total     828     828      45      45      45       0
   -------------------------------------------------------

  ==> Integral Setup <==

  ==> DFJK: Density-Fitted J/K Matrices <==

    J tasked:                  Yes
    K tasked:                  Yes
    wK tasked:                  No
    OpenMP threads:              8
    Integrals threads:           8
    Memory (MB):              3576
    Algorithm:                Disk
    Integral Cache:           NONE
    Schwarz Cutoff:          1E-12
    Fitting Condition:       1E-12

   => Auxiliary Basis Set <=

  Basis Set: (AUG-CC-PVTZ AUX)
    Blend: AUG-CC-PVTZ-JKFIT
    Number of shells: 530
    Number of basis function: 1812
    Number of Cartesian functions: 2253
    Spherical Harmonics?: true
    Max angular momentum: 4

  Minimum eigenvalue in the overlap matrix is 5.8307615252E-07.
  Using Symmetric Orthogonalization.

  SCF Guess: Orbitals guess was supplied from a previous computation.

  ==> Iterations <==

                           Total Energy        Delta E     RMS |[F,P]|

   @DF-RHF iter   0:  -551.78968226355801   -5.51790e+02   4.32612e-04 
   @DF-RHF iter   1:  -551.67456175340567    1.15121e-01   1.18778e-04 
   @DF-RHF iter   2:  -551.67498474802301   -4.22995e-04   9.00649e-05 DIIS
   @DF-RHF iter   3:  -551.67539140879614   -4.06661e-04   1.15486e-05 DIIS
   @DF-RHF iter   4:  -551.67539866732329   -7.25853e-06   3.56596e-06 DIIS
   @DF-RHF iter   5:  -551.67540007657954   -1.40926e-06   8.46671e-07 DIIS
   @DF-RHF iter   6:  -551.67540027921746   -2.02638e-07   4.28251e-07 DIIS
   @DF-RHF iter   7:  -551.67540034149965   -6.22822e-08   2.78705e-07 DIIS
   @DF-RHF iter   8:  -551.67540036197738   -2.04777e-08   1.14885e-07 DIIS
   @DF-RHF iter   9:  -551.67540036640457   -4.42719e-09   4.32368e-08 DIIS
   @DF-RHF iter  10:  -551.67540036693413   -5.29553e-10   1.73803e-08 DIIS
   @DF-RHF iter  11:  -551.67540036697801   -4.38831e-11   4.04014e-09 DIIS
   @DF-RHF iter  12:  -551.67540036698938   -1.13687e-11   1.48850e-09 DIIS
   @DF-RHF iter  13:  -551.67540036699245   -3.06954e-12   6.81677e-10 DIIS
   @DF-RHF iter  14:  -551.67540036700132   -8.86757e-12   3.48885e-10 DIIS
   @DF-RHF iter  15:  -551.67540036698801    1.33014e-11   1.42148e-10 DIIS
   @DF-RHF iter  16:  -551.67540036698904   -1.02318e-12   5.70650e-11 DIIS

  ==> Post-Iterations <==

    Orbital Energies (a.u.)
    -----------------------

    Doubly Occupied:                                                      

       1A    -20.687294     2A    -15.833015     3A    -11.483699  
       4A    -11.483611     5A    -11.451848     6A    -11.423790  
       7A    -11.414080     8A    -11.413836     9A    -11.378220  
      10A    -11.375804    11A    -11.375218    12A    -11.353642  
      13A    -11.352237    14A     -1.511749    15A     -1.508056  
      16A     -1.320138    17A     -1.266385    18A     -1.241353  
      19A     -1.155648    20A     -1.152922    21A     -1.067348  
      22A     -1.057399    23A     -0.970638    24A     -0.964985  
      25A     -0.951984    26A     -0.868770    27A     -0.861538  
      28A     -0.854206    29A     -0.819990    30A     -0.803243  
      31A     -0.781290    32A     -0.771698    33A     -0.757594  
      34A     -0.749162    35A     -0.724893    36A     -0.707752  
      37A     -0.706027    38A     -0.658324    39A     -0.650487  
      40A     -0.641789    41A     -0.591960    42A     -0.576049  
      43A     -0.541395    44A     -0.469497    45A     -0.449577  

    Virtual:                                                              

      46A     -0.109802    47A     -0.084824    48A     -0.063303  
      49A     -0.062221    50A     -0.059568    51A     -0.049943  
      52A     -0.043072    53A     -0.040113    54A     -0.034886  
      55A     -0.029717    56A     -0.026229    57A     -0.023817  
      58A     -0.017343    59A     -0.009034    60A     -0.007243  
      61A     -0.005251    62A      0.004106    63A      0.005782  
      64A      0.008356    65A      0.012999    66A      0.015997  
      67A      0.018433    68A      0.023837    69A      0.025674  
      70A      0.028461    71A      0.032852    72A      0.037136  
      73A      0.037307    74A      0.042747    75A      0.046360  
      76A      0.051259    77A      0.054296    78A      0.057018  
      79A      0.059923    80A      0.063010    81A      0.068547  
      82A      0.070142    83A      0.073210    84A      0.077866  
      85A      0.082846    86A      0.086721    87A      0.088620  
      88A      0.094450    89A      0.096812    90A      0.108929  
      91A      0.109424    92A      0.113584    93A      0.116331  
      94A      0.123089    95A      0.126713    96A      0.128903  
      97A      0.133624    98A      0.136978    99A      0.138963  
     100A      0.143725   101A      0.152397   102A      0.155881  
     103A      0.159354   104A      0.163274   105A      0.166806  
     106A      0.168002   107A      0.170774   108A      0.173956  
     109A      0.181414   110A      0.183211   111A      0.188436  
     112A      0.191052   113A      0.195496   114A      0.197630  
     115A      0.202288   116A      0.205871   117A      0.211078  
     118A      0.213244   119A      0.215437   120A      0.222309  
     121A      0.226259   122A      0.227222   123A      0.229058  
     124A      0.232607   125A      0.233910   126A      0.237897  
     127A      0.241946   128A      0.247377   129A      0.252199  
     130A      0.257118   131A      0.258898   132A      0.270942  
     133A      0.273581   134A      0.276453   135A      0.281094  
     136A      0.282965   137A      0.287805   138A      0.291164  
     139A      0.294647   140A      0.300181   141A      0.305020  
     142A      0.310548   143A      0.311396   144A      0.320181  
     145A      0.324041   146A      0.325580   147A      0.327314  
     148A      0.333233   149A      0.335978   150A      0.338435  
     151A      0.340140   152A      0.345380   153A      0.351808  
     154A      0.354806   155A      0.358043   156A      0.361955  
     157A      0.363697   158A      0.367687   159A      0.371112  
     160A      0.376277   161A      0.376864   162A      0.379952  
     163A      0.385571   164A      0.386604   165A      0.394998  
     166A      0.397205   167A      0.398678   168A      0.404255  
     169A      0.405123   170A      0.406448   171A      0.409790  
     172A      0.414509   173A      0.417468   174A      0.421822  
     175A      0.425256   176A      0.427891   177A      0.432169  
     178A      0.433034   179A      0.438634   180A      0.445899  
     181A      0.447635   182A      0.450285   183A      0.459523  
     184A      0.462142   185A      0.470628   186A      0.474929  
     187A      0.483060   188A      0.488596   189A      0.497994  
     190A      0.502665   191A      0.508056   192A      0.510847  
     193A      0.513629   194A      0.523848   195A      0.529679  
     196A      0.535114   197A      0.536910   198A      0.545767  
     199A      0.554025   200A      0.559453   201A      0.567411  
     202A      0.572203   203A      0.575112   204A      0.579367  
     205A      0.584806   206A      0.586729   207A      0.588924  
     208A      0.600235   209A      0.608335   210A      0.611268  
     211A      0.618232   212A      0.620002   213A      0.624603  
     214A      0.626866   215A      0.631607   216A      0.640300  
     217A      0.648640   218A      0.651846   219A      0.655161  
     220A      0.660010   221A      0.663073   222A      0.668887  
     223A      0.674866   224A      0.677170   225A      0.697306  
     226A      0.703164   227A      0.710191   228A      0.712982  
     229A      0.717354   230A      0.718082   231A      0.720394  
     232A      0.731830   233A      0.736764   234A      0.742002  
     235A      0.746367   236A      0.749030   237A      0.756399  
     238A      0.757880   239A      0.763810   240A      0.770115  
     241A      0.777357   242A      0.779891   243A      0.786184  
     244A      0.789953   245A      0.793950   246A      0.796112  
     247A      0.801708   248A      0.806034   249A      0.808355  
     250A      0.811930   251A      0.815588   252A      0.822397  
[...]
	 B(4,2,15)        =         2.077087	     119.008338
	 B(4,11,13)       =         2.107179	     120.732451
	 B(5,7,12)        =         2.083909	     119.399163
	 B(5,7,20)        =         2.158326	     123.662987
	 B(5,10,6)        =         2.041729	     116.982457
	 B(5,10,9)        =         2.120173	     121.476965
	 B(6,8,12)        =         2.083883	     119.397703
	 B(6,8,21)        =         2.158407	     123.667606
	 B(6,10,9)        =         2.121282	     121.540506
	 B(7,5,10)        =         2.108885	     120.830236
	 B(7,5,18)        =         2.066453	     118.399059
	 B(7,12,8)        =         2.139002	     122.555793
	 B(7,12,22)       =         2.072074	     118.721122
	 B(8,6,10)        =         2.108961	     120.834556
	 B(8,6,19)        =         2.066580	     118.406306
	 B(8,12,22)       =         2.072109	     118.723080
	 B(9,1,14)        =         2.102059	     120.439102
	 B(9,2,15)        =         2.102073	     120.439906
	 B(10,5,18)       =         2.107381	     120.744025
	 B(10,6,19)       =         2.107227	     120.735185
	 B(11,3,16)       =         2.075346	     118.908584
	 B(11,4,17)       =         2.079905	     119.169754
	 B(11,13,23)      =         1.928501	     110.494953
	 B(12,7,20)       =         2.040885	     116.934101
	 B(12,8,21)       =         2.040836	     116.931296
	 D(1,3,11,4)      =        -0.007805	      -0.447217
	 D(1,3,11,13)     =         3.079403	     176.436775
	 D(1,9,2,4)       =        -0.011083	      -0.634991
	 D(1,9,2,15)      =        -3.093274	    -177.231525
	 D(1,9,10,5)      =         0.495749	      28.404341
	 D(1,9,10,6)      =        -2.647601	    -151.696353
	 D(2,4,11,3)      =        -0.011935	      -0.683851
	 D(2,4,11,13)     =        -3.098283	    -177.518559
	 D(2,9,1,3)       =        -0.008748	      -0.501240
	 D(2,9,1,14)      =        -3.097515	    -177.474529
	 D(2,9,10,5)      =        -2.639973	    -151.259339
	 D(2,9,10,6)      =         0.499862	      28.639967
	 D(3,1,9,10)      =         3.138631	     179.830293
	 D(3,11,4,17)     =         3.110281	     178.205971
	 D(3,11,13,23)    =         1.835492	     105.165942
	 D(4,2,9,10)      =         3.124725	     179.033542
	 D(4,11,3,16)     =         3.134653	     179.602405
	 D(4,11,13,23)    =        -1.360884	     -77.972910
	 D(5,7,12,8)      =         0.000789	       0.045225
	 D(5,7,12,22)     =        -3.140352	    -179.928914
	 D(5,10,6,8)      =         0.000935	       0.053578
	 D(5,10,6,19)     =        -3.109092	    -178.137824
	 D(6,8,12,7)      =         0.000769	       0.044083
	 D(6,8,12,22)     =        -3.141275	    -179.981779
	 D(6,10,5,7)      =         0.000625	       0.035807
	 D(6,10,5,18)     =        -3.107651	    -178.055269
	 D(7,5,10,9)      =         3.140537	     179.939505
	 D(7,12,8,21)     =         3.131095	     179.398507
	 D(8,6,10,9)      =        -3.138976	    -179.850055
	 D(8,12,7,20)     =         3.130540	     179.366729
	 D(9,1,3,11)      =         0.018143	       1.039499
	 D(9,1,3,16)      =        -3.124335	    -179.011220
	 D(9,2,4,11)      =         0.021387	       1.225382
	 D(9,2,4,17)      =        -3.100501	    -177.645635
	 D(9,10,5,18)     =         0.032261	       1.848429
	 D(9,10,6,19)     =         0.034183	       1.958543
	 D(10,5,7,12)     =        -0.001486	      -0.085160
	 D(10,5,7,20)     =        -3.130394	    -179.358390
	 D(10,6,8,12)     =        -0.001639	      -0.093901
	 D(10,6,8,21)     =        -3.131161	    -179.402338
	 D(10,9,1,14)     =         0.049864	       2.857005
	 D(10,9,2,15)     =         0.042534	       2.437008
	 D(11,3,1,14)     =         3.107649	     178.055194
	 D(11,4,2,15)     =         3.104420	     177.870182
	 D(12,7,5,18)     =         3.107555	     178.049760
	 D(12,8,6,19)     =         3.109108	     178.138755
	 D(13,11,3,16)    =        -0.061324	      -3.513603
	 D(13,11,4,17)    =         0.023933	       1.371263
	 D(14,1,3,16)     =        -0.034828	      -1.995525
	 D(15,2,4,17)     =        -0.017468	      -1.000835
	 D(18,5,7,20)     =        -0.021354	      -1.223469
	 D(19,6,8,21)     =        -0.020415	      -1.169682
	 D(20,7,12,22)    =        -0.010601	      -0.607410
	 D(21,8,12,22)    =        -0.010949	      -0.627355

	Current energy   :      -554.0942935473

	Energy change for the previous step:
		Projected    :        -0.0000131067
		Actual       :         0.0000005169

	Performing BFGS update.
	Previous computed or guess Hessian on step 1.
	Steps to be used in Hessian update: 4 3
	Adding user-defined constraint: Fragment 1; Coordinate 76:
		Value =     1.835492; Fixed value    =     1.832600
		Force =    -0.001735; Force constant =     0.600000
	Removing off-diagonal coupling between coordinate 76 and others.
	Taking RFO optimization step.
	Going to follow RFO solution 1.
	Using RFO vector 1.
	Norm of target step-size    0.00821
	Projected energy change by RFO approximation:        -0.0000011175

	Back-transformation to cartesian coordinates...
	Could not converge backtransformation.
	Using first guess instead.

	--- Internal Coordinate Step in ANG or DEG, aJ/ANG or AJ/DEG ---
	 ---------------------------------------------------------------------------
	   Coordinate                Previous        Force       Change         New 
	   ----------                --------       ------       ------       ------
	    1 R(1,3)          =      1.381319     0.000298    -0.000010     1.381309
	    2 R(1,9)          =      1.397875     0.000638     0.000134     1.398008
	    3 R(1,14)         =      1.079660     0.000059    -0.000008     1.079653
	    4 R(2,4)          =      1.381440     0.000471     0.000023     1.381463
	    5 R(2,9)          =      1.397978     0.000407     0.000091     1.398069
	    6 R(2,15)         =      1.079674     0.000118     0.000001     1.079675
	    7 R(3,11)         =      1.390201     0.000332     0.000056     1.390256
	    8 R(3,16)         =      1.078495     0.000414     0.000065     1.078561
	    9 R(4,11)         =      1.391039     0.000486     0.000074     1.391112
	   10 R(4,17)         =      1.078797     0.000348     0.000049     1.078846
	   11 R(5,7)          =      1.372177     0.000835     0.000077     1.372254
	   12 R(5,10)         =      1.400511     0.000202     0.000073     1.400584
	   13 R(5,18)         =      1.077458     0.000174     0.000016     1.077474
	   14 R(6,8)          =      1.372127     0.000839     0.000077     1.372204
	   15 R(6,10)         =      1.400476     0.000211     0.000074     1.400549
	   16 R(6,19)         =      1.077466     0.000180     0.000014     1.077479
	   17 R(7,12)         =      1.343047    -0.000383    -0.000054     1.342993
	   18 R(7,20)         =      1.077209     0.000226     0.000037     1.077247
	   19 R(8,12)         =      1.343065    -0.000337    -0.000041     1.343024
	   20 R(8,21)         =      1.077203     0.000197     0.000032     1.077235
	   21 R(9,10)         =      1.447661     0.000195    -0.000041     1.447619
	   22 R(11,13)        =      1.364566    -0.001476    -0.000229     1.364336
	   23 R(12,22)        =      1.011897     0.000367     0.000041     1.011938
	   24 R(13,23)        =      0.962644     0.000226    -0.000004     0.962640
	   25 B(1,3,11)       =    120.012429     0.000000    -0.000009   120.012420
	   26 B(1,3,16)       =    121.078968    -0.000000     0.010178   121.089146
	   27 B(1,9,2)        =    119.035309    -0.000005    -0.020425   119.014884
	   28 B(1,9,10)       =    120.491764     0.000003     0.011820   120.503584
	   29 B(2,4,11)       =    119.984730     0.000000    -0.000209   119.984522
	   30 B(2,4,17)       =    120.836042    -0.000001     0.005132   120.841173
	   31 B(2,9,10)       =    120.472088     0.000002     0.008572   120.480660
	   32 B(3,1,9)        =    120.467926     0.000003     0.013132   120.481058
	   33 B(3,1,14)       =    119.025025    -0.000003    -0.010923   119.014101
	   34 B(3,11,4)       =    120.019135    -0.000002    -0.004564   120.014571
	   35 B(3,11,13)      =    119.173879     0.000002     0.006644   119.180523
	   36 B(4,2,9)        =    120.465850     0.000003     0.012206   120.478056
	   37 B(4,2,15)       =    119.008338    -0.000003    -0.010871   118.997467
	   38 B(4,11,13)      =    120.732451    -0.000000    -0.005093   120.727358
	   39 B(5,7,12)       =    119.399163     0.000004     0.016554   119.415717
	   40 B(5,7,20)       =    123.662987    -0.000003    -0.015938   123.647049
	   41 B(5,10,6)       =    116.982457    -0.000003    -0.021576   116.960882
	   42 B(5,10,9)       =    121.476965     0.000001     0.007643   121.484608
	   43 B(6,8,12)       =    119.397703     0.000005     0.016895   119.414598
	   44 B(6,8,21)       =    123.667606    -0.000003    -0.016184   123.651422
	   45 B(6,10,9)       =    121.540506     0.000002     0.013924   121.554430
	   46 B(7,5,10)       =    120.830236    -0.000000     0.006749   120.836985
	   47 B(7,5,18)       =    118.399059    -0.000004    -0.029858   118.369200
	   48 B(7,12,8)       =    122.555793    -0.000005    -0.024729   122.531064
	   49 B(7,12,22)      =    118.721122     0.000002     0.012208   118.733330
	   50 B(8,6,10)       =    120.834556    -0.000001     0.006098   120.840654
	   51 B(8,6,19)       =    118.406306    -0.000004    -0.031919   118.374388
	   52 B(8,12,22)      =    118.723080     0.000003     0.012520   118.735599
	   53 B(9,1,14)       =    120.439102    -0.000000    -0.002314   120.436788
	   54 B(9,2,15)       =    120.439906     0.000000    -0.000314   120.439592
	   55 B(10,5,18)      =    120.744025     0.000004     0.023335   120.767360
	   56 B(10,6,19)      =    120.735185     0.000004     0.026113   120.761298
	   57 B(11,3,16)      =    118.908584    -0.000000    -0.010187   118.898397
	   58 B(11,4,17)      =    119.169754     0.000000    -0.004381   119.165373
	   59 B(11,13,23)     =    110.494953     0.000000     0.016415   110.511369
	   60 B(12,7,20)      =    116.934101    -0.000002    -0.000463   116.933638
	   61 B(12,8,21)      =    116.931296    -0.000002    -0.000529   116.930767
	   62 D(1,3,11,4)     =     -0.447217    -0.000000     0.034827    -0.412390
	   63 D(1,3,11,13)    =    176.436775     0.000000    -0.027627   176.409148
	   64 D(1,9,2,4)      =     -0.634991    -0.000000     0.011817    -0.623174
	   65 D(1,9,2,15)     =   -177.231525    -0.000000    -0.008066  -177.239591
	   66 D(1,9,10,5)     =     28.404341    -0.000000    -0.216574    28.187767
	   67 D(1,9,10,6)     =   -151.696353    -0.000000    -0.222445  -151.918799
	   68 D(2,4,11,3)     =     -0.683851    -0.000000    -0.027432    -0.711282
	   69 D(2,4,11,13)    =   -177.518559    -0.000000     0.035632  -177.482927
	   70 D(2,9,1,3)      =     -0.501240    -0.000000    -0.004599    -0.505839
	   71 D(2,9,1,14)     =   -177.474529     0.000000    -0.001930  -177.476459
	   72 D(2,9,10,5)     =   -151.259339    -0.000000    -0.209969  -151.469308
	   73 D(2,9,10,6)     =     28.639967    -0.000001    -0.215840    28.424127
	   74 D(3,1,9,10)     =    179.830293    -0.000000     0.001815   179.832109
	   75 D(3,11,4,17)    =    178.205971     0.000000     0.004827   178.210798
	   76 D(3,11,13,23)   =    105.165942    -0.000002    -0.004696   105.161246
	   77 D(4,2,9,10)     =    179.033542     0.000000     0.005415   179.038958
	   78 D(4,11,3,16)    =    179.602405     0.000000     0.054676   179.657081
	   79 D(4,11,13,23)   =    -77.972910    -0.000002    -0.067587   -78.040497
	   80 D(5,7,12,8)     =      0.045225    -0.000000     0.002955     0.048179
	   81 D(5,7,12,22)    =   -179.928914     0.000000     0.006932  -179.921982
	   82 D(5,10,6,8)     =      0.053578    -0.000000     0.001736     0.055314
	   83 D(5,10,6,19)    =   -178.137824    -0.000000    -0.008755  -178.146579
	   84 D(6,8,12,7)     =      0.044083     0.000000     0.001081     0.045163
	   85 D(6,8,12,22)    =   -179.981779    -0.000000    -0.002897  -179.984676
	   86 D(6,10,5,7)     =      0.035807     0.000000     0.002285     0.038092
	   87 D(6,10,5,18)    =   -178.055269     0.000000    -0.005248  -178.060517
	   88 D(7,5,10,9)     =    179.939505    -0.000000    -0.003295   179.936210
	   89 D(7,12,8,21)    =    179.398507     0.000000     0.018540   179.417047
	   90 D(8,6,10,9)     =   -179.850055     0.000000     0.007327  -179.842728
	   91 D(8,12,7,20)    =    179.366729     0.000000     0.016859   179.383588
	   92 D(9,1,3,11)     =      1.039499     0.000000    -0.018635     1.020865
	   93 D(9,1,3,16)     =   -179.011220    -0.000000    -0.038937  -179.050157
	   94 D(9,2,4,11)     =      1.225382     0.000000     0.004180     1.229562
	   95 D(9,2,4,17)     =   -177.645635    -0.000000    -0.028520  -177.674155
	   96 D(9,10,5,18)    =      1.848429    -0.000000    -0.010828     1.837601
	   97 D(9,10,6,19)    =      1.958543     0.000000    -0.003164     1.955380
	   98 D(10,5,7,12)    =     -0.085160    -0.000000    -0.004648    -0.089808
	   99 D(10,5,7,20)    =   -179.358390    -0.000000    -0.019671  -179.378060
	  100 D(10,6,8,12)    =     -0.093901     0.000000    -0.003462    -0.097364
	  101 D(10,6,8,21)    =   -179.402338    -0.000000    -0.022289  -179.424627
	  102 D(10,9,1,14)    =      2.857005    -0.000000     0.004484     2.861489
	  103 D(10,9,2,15)    =      2.437008    -0.000000    -0.014467     2.422541
	  104 D(11,3,1,14)    =    178.055194     0.000000    -0.021020   178.034173
	  105 D(11,4,2,15)    =    177.870182     0.000000     0.024120   177.894303
	  106 D(12,7,5,18)    =    178.049760     0.000000     0.003685   178.053446
	  107 D(12,8,6,19)    =    178.138755     0.000000     0.007795   178.146550
	  108 D(13,11,3,16)   =     -3.513603     0.000000    -0.007777    -3.521380
	  109 D(13,11,4,17)   =      1.371263    -0.000000     0.067890     1.439153
	  110 D(14,1,3,16)    =     -1.995525    -0.000000    -0.041323    -2.036849
	  111 D(15,2,4,17)    =     -1.000835     0.000000    -0.008579    -1.009414
	  112 D(18,5,7,20)    =     -1.223469    -0.000000    -0.011337    -1.234806
	  113 D(19,6,8,21)    =     -1.169682     0.000000    -0.011032    -1.180714
	  114 D(20,7,12,22)   =     -0.607410     0.000000     0.020836    -0.586573
	  115 D(21,8,12,22)   =     -0.627355     0.000000     0.014563    -0.612793
	 ---------------------------------------------------------------------------
	Successfully symmetrized geometry.
	 Forces used to impose fixed constraints are not included.
	  Forces zeroed: 76 

  ==> Convergence Check <==

  Measures of convergence in internal coordinates in au.
  Criteria marked as inactive (o), active & met (*), and active & unmet ( ).
  ---------------------------------------------------------------------------------------------
   Step     Total Energy     Delta E     MAX Force     RMS Force      MAX Disp      RMS Disp   
  ---------------------------------------------------------------------------------------------
    Convergence Criteria    1.00e-06 *    3.00e-04 *             o    1.20e-03 *             o
  ---------------------------------------------------------------------------------------------
      5    -554.09429355    5.17e-07 *    1.79e-04 *    3.52e-05 o    3.88e-03      7.66e-04 o  ~
  ---------------------------------------------------------------------------------------------


  **** Optimization is complete! (in 5 steps) ****

  ==> Optimization Summary <==

  Measures of convergence in internal coordinates in au.
  --------------------------------------------------------------------------------------------------------------- ~
   Step         Total Energy             Delta E       MAX Force       RMS Force        MAX Disp        RMS Disp  ~
  --------------------------------------------------------------------------------------------------------------- ~
      1    -554.091372925039   -554.091372925039      0.01406223      0.00385674      0.02958815      0.00932182  ~
      2    -554.093758134994     -0.002385209954      0.00370103      0.00101495      0.03154498      0.00932121  ~
      3    -554.094224441519     -0.000466306525      0.00113191      0.00026834      0.02189088      0.00718631  ~
      4    -554.094294064170     -0.000069622651      0.00042949      0.00008313      0.00748862      0.00165773  ~
      5    -554.094293547272      0.000000516898      0.00017913      0.00003634      0.00388240      0.00076589  ~
  --------------------------------------------------------------------------------------------------------------- ~

	Writing optimization data to binary file.
	Final energy is   -554.0942935472719
	Final (previous) structure:
	Cartesian Geometry (in Angstrom)
	    C    -1.2805203627   0.7333452492  -0.5594775642
	    C    -0.3067506457   0.0834447398   1.5464030655
	    C    -2.3542906172   1.2886999048   0.1088342437
	    C    -1.3693565795   0.6596105721   2.2151911425
	    C     1.2991488230   0.0195582810  -1.7941050544
	    C     1.5961409490  -1.5433039416  -0.0131365023
	    C     2.3669574945  -0.5446475347  -2.4455077633
	    C     2.6610163657  -2.0851126058  -0.6878329708
	    C    -0.2449352882   0.1185884764   0.1502342578
	    C     0.8788581525  -0.4668306691  -0.5498327542
	    C    -2.4001709643   1.2579046758   1.4979362436
	    N     3.0156007345  -1.5750031362  -1.8785815467
	    O    -3.4317160824   1.8755723763   2.1432581707
	    H    -1.2762785279   0.7378462482  -1.6391200684
	    H     0.5016220311  -0.3457990708   2.1190979889
	    H    -3.1662402202   1.7513977044  -0.4294974722
	    H    -1.4044837933   0.6691510453   3.2933737801
	    H     0.8105079550   0.8655811911  -2.2484085004
	    H     1.3065193737  -1.9843077219   0.9263141116
	    H     2.7347464160  -0.2011416792  -3.3979335635
	    H     3.2381270174  -2.9180959181  -0.3225265313
	    H     3.8022814842  -1.9825665292  -2.3674188555
	    H    -4.0571259700   1.2251944184   2.4787491776
	Saving final (previous) structure.
			--------------------------
			 OPTKING Finished Execution 
			--------------------------

    Final optimized geometry and variables:
    Molecular point group: c1
    Full point group: C1

    Geometry (in Angstrom), charge = 1, multiplicity = 1:

    C           -1.280520362744     0.733345249248    -0.559477564247
    C           -0.306750645681     0.083444739823     1.546403065488
    C           -2.354290617223     1.288699904829     0.108834243742
    C           -1.369356579532     0.659610572128     2.215191142502
    C            1.299148822988     0.019558281034    -1.794105054403
    C            1.596140949027    -1.543303941618    -0.013136502276
    C            2.366957494452    -0.544647534678    -2.445507763251
    C            2.661016365696    -2.085112605845    -0.687832970778
    C           -0.244935288171     0.118588476425     0.150234257826
    C            0.878858152464    -0.466830669114    -0.549832754191
    C           -2.400170964275     1.257904675844     1.497936243596
    N            3.015600734519    -1.575003136168    -1.878581546653
    O           -3.431716082431     1.875572376276     2.143258170663
    H           -1.276278527937     0.737846248217    -1.639120068447
    H            0.501622031139    -0.345799070758     2.119097988911
    H           -3.166240220233     1.751397704415    -0.429497472188
    H           -1.404483793302     0.669151045344     3.293373780137
    H            0.810507954977     0.865581191064    -2.248408500359
    H            1.306519373688    -1.984307721906     0.926314111564
    H            2.734746416021    -0.201141679191    -3.397933563522
    H            3.238127017426    -2.918095918099    -0.322526531340
    H            3.802281484185    -1.982566529241    -2.367418855453
    H           -4.057125969964     1.225194418378     2.478749177608

	Cleaning optimization helper files.

*** Psi4 exiting successfully. Buy a developer a beer!
