
    -----------------------------------------------------------------------
          Psi4: An Open-Source Ab Initio Electronic Structure Package
                               Psi4 1.1 release

                         Git: Rev {HEAD} add49b9 


    R. M. Parrish, L. A. Burns, D. G. A. Smith, A. C. Simmonett,
    A. E. DePrince III, E. G. Hohenstein, U. Bozkaya, A. Yu. Sokolov,
    R. Di Remigio, R. M. Richard, J. F. Gonthier, A. M. James,
    H. R. McAlexander, A. Kumar, M. Saitow, X. Wang, B. P. Pritchard,
    P. Verma, H. F. Schaefer III, K. Patkowski, R. A. King, E. F. Valeev,
    F. A. Evangelista, J. M. Turney, T. D. Crawford, and C. D. Sherrill,
    J. Chem. Theory Comput. in press (2017).
    (doi: 10.1021/acs.jctc.7b00174)

    -----------------------------------------------------------------------


    Psi4 started on: Sunday, 12 November 2017 01:58PM

    Process ID:   9857
    PSIDATADIR: /cbio/jclab/home/chayas/anaconda/envs/py35/share/psi4
    Memory:     500.0 MiB
    Threads:    8
    
  ==> Input File <==

--------------------------------------------------------------------------

memory 5 Gb

molecule phepyrOH_neutral {
  symmetry C1
  0 1 
  C      1.885   -1.036   -0.112
  C      2.878   -1.652   2.002
  C      0.807   -0.463   0.561
  C      1.800   -1.079   2.676
  C      3.862   -2.773   -1.356
  C      5.298   -2.250   0.501
  C      4.965   -3.329   -1.983
  C      6.337   -2.829   -0.209
  C      2.921   -1.631   0.608
  C      4.040   -2.225   -0.090
  C      0.764   -0.484   1.955
  N      6.202   -3.372   -1.440
  O      -0.288   0.076   2.612
  H      1.904   -1.012   -1.199
  H      3.678   -2.112   2.578
  H      0.003   -0.001   -0.006
  H      1.772   -1.098   3.762
  H      2.895   -2.772   -1.850
  H      5.475   -1.833   1.487
  H      4.879   -3.768   -2.972
  H      7.337   -2.875   0.208
  H      -0.027   0.924   3.005
  units Angstrom
}

dih_string = "3 11 13 22 255"
set optking fixed_dihedral = $dih_string

optimize('MP2/aug-cc-PVTZ')
--------------------------------------------------------------------------

  Memory set to   4.657 GiB by Python driver.
gradient() will perform analytic gradient computation.

*** tstart() called on gpu-2-9.local
*** at Sun Nov 12 13:58:29 2017

    SCF Algorithm Type (re)set to DF.

*** tstart() called on gpu-2-9.local
*** at Sun Nov 12 13:58:29 2017

   => Loading Basis Set <=

    Name: AUG-CC-PVTZ
    Role: ORBITAL
    Keyword: BASIS
    atoms 1-11  entry C          line   221 file /cbio/jclab/home/chayas/anaconda/envs/py35/share/psi4/basis/aug-cc-pvtz.gbs 
    atoms 12    entry N          line   267 file /cbio/jclab/home/chayas/anaconda/envs/py35/share/psi4/basis/aug-cc-pvtz.gbs 
    atoms 13    entry O          line   313 file /cbio/jclab/home/chayas/anaconda/envs/py35/share/psi4/basis/aug-cc-pvtz.gbs 
    atoms 14-22 entry H          line    34 file /cbio/jclab/home/chayas/anaconda/envs/py35/share/psi4/basis/aug-cc-pvtz.gbs 


         ---------------------------------------------------------
                                   SCF
            by Justin Turney, Rob Parrish, and Andy Simmonett
                              RHF Reference
                        8 Threads,   4768 MiB Core
         ---------------------------------------------------------

  ==> Geometry <==

    Molecular point group: c1
    Full point group: C1

    Geometry (in Angstrom), charge = 0, multiplicity = 1:

       Center              X                  Y                   Z               Mass       
    ------------   -----------------  -----------------  -----------------  -----------------
           C         -1.254439718169     0.704096701464    -0.587263173636    12.000000000000
           C         -0.261439718169     0.088096701464     1.526736826364    12.000000000000
           C         -2.332439718169     1.277096701464     0.085736826364    12.000000000000
           C         -1.339439718169     0.661096701464     2.200736826364    12.000000000000
           C          0.722560281831    -1.032903298536    -1.831263173636    12.000000000000
           C          2.158560281831    -0.509903298536     0.025736826364    12.000000000000
           C          1.825560281831    -1.588903298536    -2.458263173636    12.000000000000
           C          3.197560281831    -1.088903298536    -0.684263173636    12.000000000000
           C         -0.218439718169     0.109096701464     0.132736826364    12.000000000000
           C          0.900560281831    -0.484903298536    -0.565263173636    12.000000000000
           C         -2.375439718169     1.256096701464     1.479736826364    12.000000000000
           N          3.062560281831    -1.631903298536    -1.915263173636    14.003074004780
           O         -3.427439718169     1.816096701464     2.136736826364    15.994914619560
           H         -1.235439718169     0.728096701464    -1.674263173636     1.007825032070
           H          0.538560281831    -0.371903298536     2.102736826364     1.007825032070
           H         -3.136439718169     1.739096701464    -0.481263173636     1.007825032070
           H         -1.367439718169     0.642096701464     3.286736826364     1.007825032070
           H         -0.244439718169    -1.031903298536    -2.325263173636     1.007825032070
           H          2.335560281831    -0.092903298536     1.011736826364     1.007825032070
           H          1.739560281831    -2.027903298536    -3.447263173636     1.007825032070
           H          4.197560281831    -1.134903298536    -0.267263173636     1.007825032070
           H         -3.166439718169     2.664096701464     2.529736826364     1.007825032070

  Running in c1 symmetry.

  Rotational constants: A =      0.09693  B =      0.01354  C =      0.01209 [cm^-1]
  Rotational constants: A =   2905.96962  B =    405.95735  C =    362.44289 [MHz]
  Nuclear repulsion =  698.486311898751183

  Charge       = 0
  Multiplicity = 1
  Electrons    = 90
  Nalpha       = 45
  Nbeta        = 45

  ==> Algorithm <==

  SCF Algorithm Type is DF.
  DIIS enabled.
  MOM disabled.
  Fractional occupation disabled.
  Guess Type is SAD.
  Energy threshold   = 1.00e-10
  Density threshold  = 1.00e-10
  Integral threshold = 0.00e+00

  ==> Primary Basis <==

  Basis Set: AUG-CC-PVTZ
    Blend: AUG-CC-PVTZ
    Number of shells: 263
    Number of basis function: 805
    Number of Cartesian functions: 940
    Spherical Harmonics?: true
    Max angular momentum: 3

   => Loading Basis Set <=

    Name: (AUG-CC-PVTZ AUX)
    Role: JKFIT
    Keyword: DF_BASIS_SCF
    atoms 1-11  entry C          line   161 file /cbio/jclab/home/chayas/anaconda/envs/py35/share/psi4/basis/aug-cc-pvtz-jkfit.gbs 
    atoms 12    entry N          line   223 file /cbio/jclab/home/chayas/anaconda/envs/py35/share/psi4/basis/aug-cc-pvtz-jkfit.gbs 
    atoms 13    entry O          line   285 file /cbio/jclab/home/chayas/anaconda/envs/py35/share/psi4/basis/aug-cc-pvtz-jkfit.gbs 
    atoms 14-22 entry H          line    69 file /cbio/jclab/home/chayas/anaconda/envs/py35/share/psi4/basis/aug-cc-pvtz-jkfit.gbs 

  ==> Pre-Iterations <==

   -------------------------------------------------------
    Irrep   Nso     Nmo     Nalpha   Nbeta   Ndocc  Nsocc
   -------------------------------------------------------
     A        805     805       0       0       0       0
   -------------------------------------------------------
    Total     805     805      45      45      45       0
   -------------------------------------------------------

  ==> Integral Setup <==

  ==> DFJK: Density-Fitted J/K Matrices <==

    J tasked:                  Yes
    K tasked:                  Yes
    wK tasked:                  No
    OpenMP threads:              8
    Integrals threads:           8
    Memory (MB):              3576
    Algorithm:                Disk
    Integral Cache:           NONE
    Schwarz Cutoff:          1E-12
    Fitting Condition:       1E-12

   => Auxiliary Basis Set <=

  Basis Set: (AUG-CC-PVTZ AUX)
    Blend: AUG-CC-PVTZ-JKFIT
    Number of shells: 516
    Number of basis function: 1766
    Number of Cartesian functions: 2198
    Spherical Harmonics?: true
    Max angular momentum: 4

  Minimum eigenvalue in the overlap matrix is 6.3571425366E-07.
  Using Symmetric Orthogonalization.

  SCF Guess: Superposition of Atomic Densities via on-the-fly atomic UHF.

  ==> Iterations <==

                           Total Energy        Delta E     RMS |[F,P]|

   @DF-RHF iter   0:  -560.34204031698823   -5.60342e+02   2.43434e-02 
   @DF-RHF iter   1:  -550.99303802791553    9.34900e+00   1.21386e-03 
   @DF-RHF iter   2:  -551.23012915055710   -2.37091e-01   8.95643e-04 DIIS
   @DF-RHF iter   3:  -551.26717260644818   -3.70435e-02   4.02088e-04 DIIS
   @DF-RHF iter   4:  -551.27968771295605   -1.25151e-02   1.00549e-04 DIIS
   @DF-RHF iter   5:  -551.28145498197318   -1.76727e-03   3.93194e-05 DIIS
   @DF-RHF iter   6:  -551.28177180044713   -3.16818e-04   1.64754e-05 DIIS
   @DF-RHF iter   7:  -551.28182640858279   -5.46081e-05   6.78218e-06 DIIS
   @DF-RHF iter   8:  -551.28183584642238   -9.43784e-06   3.52029e-06 DIIS
   @DF-RHF iter   9:  -551.28183905252502   -3.20610e-06   1.75876e-06 DIIS
   @DF-RHF iter  10:  -551.28184017131719   -1.11879e-06   6.15387e-07 DIIS
   @DF-RHF iter  11:  -551.28184026506585   -9.37487e-08   2.11122e-07 DIIS
   @DF-RHF iter  12:  -551.28184027607040   -1.10045e-08   7.34356e-08 DIIS
   @DF-RHF iter  13:  -551.28184027740542   -1.33502e-09   3.57971e-08 DIIS
   @DF-RHF iter  14:  -551.28184027775274   -3.47313e-10   1.93918e-08 DIIS
   @DF-RHF iter  15:  -551.28184027786199   -1.09253e-10   7.20793e-09 DIIS
   @DF-RHF iter  16:  -551.28184027788120   -1.92131e-11   2.93320e-09 DIIS
   @DF-RHF iter  17:  -551.28184027787904    2.16005e-12   1.08705e-09 DIIS
   @DF-RHF iter  18:  -551.28184027787267    6.36646e-12   4.50258e-10 DIIS
   @DF-RHF iter  19:  -551.28184027785960    1.30740e-11   1.86566e-10 DIIS
   @DF-RHF iter  20:  -551.28184027785505    4.54747e-12   8.31138e-11 DIIS

  ==> Post-Iterations <==

    Orbital Energies (a.u.)
    -----------------------

    Doubly Occupied:                                                      

       1A    -20.588982     2A    -15.563004     3A    -11.306917  
       4A    -11.274950     5A    -11.274861     6A    -11.264119  
       7A    -11.252097     8A    -11.251645     9A    -11.248417  
      10A    -11.244680    11A    -11.244009    12A    -11.237445  
      13A    -11.237392    14A     -1.407333    15A     -1.249591  
      16A     -1.174034    17A     -1.104091    18A     -1.039682  
      19A     -1.028130    20A     -1.008632    21A     -0.879982  
      22A     -0.872789    23A     -0.835192    24A     -0.810614  
      25A     -0.747391    26A     -0.723369    27A     -0.683103  
      28A     -0.665850    29A     -0.645951    30A     -0.641126  
      31A     -0.631192    32A     -0.610426    33A     -0.595511  
      34A     -0.591957    35A     -0.549425    36A     -0.543595  
      37A     -0.527776    38A     -0.514291    39A     -0.506778  
      40A     -0.481623    41A     -0.418623    42A     -0.400759  
      43A     -0.353897    44A     -0.349501    45A     -0.314260  

    Virtual:                                                              

      46A      0.022752    47A      0.028845    48A      0.031916  
      49A      0.038887    50A      0.041280    51A      0.045546  
      52A      0.054030    53A      0.056496    54A      0.059748  
      55A      0.074043    56A      0.078401    57A      0.084055  
      58A      0.087872    59A      0.091824    60A      0.093842  
      61A      0.102059    62A      0.107002    63A      0.107971  
      64A      0.111134    65A      0.113674    66A      0.116826  
      67A      0.117415    68A      0.121264    69A      0.127567  
      70A      0.129080    71A      0.132326    72A      0.133250  
      73A      0.137955    74A      0.141543    75A      0.146115  
      76A      0.148458    77A      0.150202    78A      0.153548  
      79A      0.158108    80A      0.160822    81A      0.168515  
      82A      0.169603    83A      0.176644    84A      0.181593  
      85A      0.185245    86A      0.186468    87A      0.201233  
      88A      0.203648    89A      0.211081    90A      0.216136  
      91A      0.222289    92A      0.224877    93A      0.229094  
      94A      0.233699    95A      0.240792    96A      0.242133  
      97A      0.244284    98A      0.247624    99A      0.252878  
     100A      0.257510   101A      0.261650   102A      0.263314  
     103A      0.266205   104A      0.272305   105A      0.274648  
     106A      0.282633   107A      0.286731   108A      0.289095  
     109A      0.290928   110A      0.295536   111A      0.299847  
     112A      0.301214   113A      0.304592   114A      0.310327  
     115A      0.315116   116A      0.319263   117A      0.324961  
     118A      0.328038   119A      0.329106   120A      0.331649  
     121A      0.339408   122A      0.341555   123A      0.351685  
     124A      0.357306   125A      0.360454   126A      0.363001  
     127A      0.368831   128A      0.372069   129A      0.380619  
     130A      0.383649   131A      0.387776   132A      0.396181  
     133A      0.398666   134A      0.409030   135A      0.417520  
     136A      0.421084   137A      0.425581   138A      0.429000  
     139A      0.431391   140A      0.435478   141A      0.436492  
     142A      0.436747   143A      0.443399   144A      0.447423  
     145A      0.451280   146A      0.457897   147A      0.461034  
     148A      0.462427   149A      0.465432   150A      0.472640  
     151A      0.474935   152A      0.480361   153A      0.484108  
     154A      0.487350   155A      0.489840   156A      0.497851  
     157A      0.500130   158A      0.501298   159A      0.503589  
     160A      0.508377   161A      0.510176   162A      0.512640  
     163A      0.515441   164A      0.518174   165A      0.521065  
     166A      0.525722   167A      0.527866   168A      0.528413  
     169A      0.533251   170A      0.539324   171A      0.542704  
     172A      0.547178   173A      0.551299   174A      0.553381  
     175A      0.560797   176A      0.563323   177A      0.570216  
     178A      0.576715   179A      0.580406   180A      0.589290  
     181A      0.592839   182A      0.603527   183A      0.608954  
     184A      0.612256   185A      0.613566   186A      0.622195  
     187A      0.628401   188A      0.629753   189A      0.636815  
     190A      0.641338   191A      0.650954   192A      0.652086  
     193A      0.663344   194A      0.679020   195A      0.686630  
     196A      0.690522   197A      0.692230   198A      0.695859  
     199A      0.702390   200A      0.706473   201A      0.711072  
     202A      0.719666   203A      0.721779   204A      0.724267  
     205A      0.731534   206A      0.737600   207A      0.739796  
     208A      0.747350   209A      0.760112   210A      0.763621  
     211A      0.766197   212A      0.769734   213A      0.773083  
     214A      0.775235   215A      0.784454   216A      0.795335  
     217A      0.803118   218A      0.807838   219A      0.819689  
     220A      0.823612   221A      0.826336   222A      0.840311  
     223A      0.841661   224A      0.844137   225A      0.848641  
     226A      0.860627   227A      0.862271   228A      0.870741  
     229A      0.874050   230A      0.877044   231A      0.878776  
     232A      0.884325   233A      0.888974   234A      0.896364  
     235A      0.901818   236A      0.903539   237A      0.906174  
     238A      0.912135   239A      0.912967   240A      0.922014  
     241A      0.926406   242A      0.928231   243A      0.939707  
     244A      0.945193   245A      0.950591   246A      0.954096  
     247A      0.959188   248A      0.964113   249A      0.969906  
     250A      0.973219   251A      0.977309   252A      0.980478  
     253A      0.984444   254A      0.985384   255A      0.993074  
     256A      0.999273   257A      1.001306   258A      1.006173  
     259A      1.011952   260A      1.014777   261A      1.016856  
     262A      1.022936   263A      1.028451   264A      1.035431  
     265A      1.037993   266A      1.040461   267A      1.043938  
     268A      1.047494   269A      1.050368   270A      1.056340  
     271A      1.059018   272A      1.066885   273A      1.069135  
     274A      1.081798   275A      1.083741   276A      1.085370  
     277A      1.090835   278A      1.095267   279A      1.099057  
     280A      1.100770   281A      1.106163   282A      1.108188  
     283A      1.108895   284A      1.115806   285A      1.118750  
     286A      1.124928   287A      1.127405   288A      1.139756  
     289A      1.152560   290A      1.158795   291A      1.160176  
     292A      1.166631   293A      1.171279   294A      1.175101  
     295A      1.177517   296A      1.180562   297A      1.184352  
     298A      1.185019   299A      1.189859   300A      1.196231  
     301A      1.202034   302A      1.207226   303A      1.211198  
     304A      1.216783   305A      1.218225   306A      1.222533  
     307A      1.226820   308A      1.237619   309A      1.243960  
     310A      1.247138   311A      1.266112   312A      1.267468  
     313A      1.279117   314A      1.281051   315A      1.286894  
     316A      1.291581   317A      1.294567   318A      1.298283  
     319A      1.302886   320A      1.311217   321A      1.315913  
     322A      1.318719   323A      1.322084   324A      1.331775  
     325A      1.334237   326A      1.341781   327A      1.354625  
     328A      1.369194   329A      1.370163   330A      1.373242  
     331A      1.385779   332A      1.390927   333A      1.399578  
     334A      1.410638   335A      1.416747   336A      1.425641  
     337A      1.445602   338A      1.446283   339A      1.451883  
     340A      1.458988   341A      1.466262   342A      1.478793  
     343A      1.488008   344A      1.492189   345A      1.506384  
     346A      1.511307   347A      1.518588   348A      1.523281  
     349A      1.526314   350A      1.540448   351A      1.545525  
     352A      1.549556   353A      1.557688   354A      1.572231  
     355A      1.583977   356A      1.595736   357A      1.601537  
     358A      1.609085   359A      1.612812   360A      1.623147  
     361A      1.626510   362A      1.632734   363A      1.646030  
     364A      1.650016   365A      1.660687   366A      1.670212  
     367A      1.673828   368A      1.684863   369A      1.695371  
     370A      1.699500   371A      1.705139   372A      1.710766  
     373A      1.721315   374A      1.723947   375A      1.734852  
     376A      1.740530   377A      1.743879   378A      1.745716  
     379A      1.759039   380A      1.772384   381A      1.780265  
     382A      1.787279   383A      1.788588   384A      1.809732  
     385A      1.813116   386A      1.814912   387A      1.823898  
     388A      1.829509   389A      1.840603   390A      1.846387  
     391A      1.853635   392A      1.866820   393A      1.870290  
     394A      1.876646   395A      1.891670   396A      1.899916  
     397A      1.904178   398A      1.913677   399A      1.915931  
     400A      1.923397   401A      1.929530   402A      1.942435  
     403A      1.959601   404A      1.962654   405A      1.969988  
     406A      1.974079   407A      1.984516   408A      1.990025  
     409A      2.002407   410A      2.005530   411A      2.012252  
     412A      2.014817   413A      2.021455   414A      2.029205  
     415A      2.034073   416A      2.044289   417A      2.055720  
     418A      2.061966   419A      2.068525   420A      2.072614  
     421A      2.083553   422A      2.088368   423A      2.097479  
     424A      2.100757   425A      2.107196   426A      2.111813  
     427A      2.119801   428A      2.124579   429A      2.133750  
     430A      2.145184   431A      2.147687   432A      2.156763  
     433A      2.165578   434A      2.183736   435A      2.187815  
     436A      2.196542   437A      2.204332   438A      2.205241  
     439A      2.220297   440A      2.227389   441A      2.233584  
     442A      2.235036   443A      2.246255   444A      2.262255  
     445A      2.265517   446A      2.295011   447A      2.302733  
     448A      2.306086   449A      2.312912   450A      2.320966  
     451A      2.341166   452A      2.351708   453A      2.361701  
     454A      2.370972   455A      2.372812   456A      2.382980  
     457A      2.392670   458A      2.406138   459A      2.409804  
     460A      2.410824   461A      2.417690   462A      2.425399  
     463A      2.442268   464A      2.460413   465A      2.476992  
     466A      2.488418   467A      2.508513   468A      2.519772  
     469A      2.523127   470A      2.539506   471A      2.548817  
     472A      2.558263   473A      2.568340   474A      2.571737  
     475A      2.581808   476A      2.592044   477A      2.596087  
     478A      2.616906   479A      2.623140   480A      2.650505  
     481A      2.677870   482A      2.686480   483A      2.695308  
     484A      2.715304   485A      2.728282   486A      2.749993  
     487A      2.766518   488A      2.775775   489A      2.781917  
     490A      2.802812   491A      2.821266   492A      2.831101  
     493A      2.837018   494A      2.863692   495A      2.865360  
     496A      2.880446   497A      2.907231   498A      2.919125  
     499A      2.944644   500A      2.984111   501A      2.989755  
     502A      3.007398   503A      3.014351   504A      3.046514  
     505A      3.060907   506A      3.076976   507A      3.104265  
     508A      3.120759   509A      3.145378   510A      3.167997  
     511A      3.172842   512A      3.192260   513A      3.206427  
     514A      3.216741   515A      3.241981   516A      3.245085  
     517A      3.259959   518A      3.285172   519A      3.299196  
     520A      3.312664   521A      3.314924   522A      3.336774  
     523A      3.350587   524A      3.364678   525A      3.368945  
     526A      3.372728   527A      3.392213   528A      3.403040  
     529A      3.408789   530A      3.419173   531A      3.429390  
     532A      3.437502   533A      3.442101   534A      3.450154  
     535A      3.465021   536A      3.475202   537A      3.482126  
     538A      3.496404   539A      3.504765   540A      3.514581  
     541A      3.521431   542A      3.535817   543A      3.539587  
     544A      3.544738   545A      3.555553   546A      3.563059  
     547A      3.565491   548A      3.575713   549A      3.578652  
     550A      3.585244   551A      3.594427   552A      3.599890  
     553A      3.606276   554A      3.629076   555A      3.635790  
     556A      3.640394   557A      3.650596   558A      3.655554  
     559A      3.678424   560A      3.685848   561A      3.699942  
     562A      3.705146   563A      3.724830   564A      3.729697  
     565A      3.737848   566A      3.751671   567A      3.772280  
     568A      3.779898   569A      3.780465   570A      3.790314  
     571A      3.792868   572A      3.807007   573A      3.815682  
     574A      3.826622   575A      3.833061   576A      3.848242  
     577A      3.858489   578A      3.863899   579A      3.866763  
     580A      3.883535   581A      3.890551   582A      3.894194  
     583A      3.902089   584A      3.920327   585A      3.931911  
     586A      3.935604   587A      3.939952   588A      3.941603  
     589A      3.946832   590A      3.948551   591A      3.959559  
     592A      3.978585   593A      3.989676   594A      3.998446  
     595A      4.004296   596A      4.013707   597A      4.020525  
     598A      4.027160   599A      4.029179   600A      4.039426  
     601A      4.042133   602A      4.044643   603A      4.066279  
     604A      4.087362   605A      4.099949   606A      4.108807  
     607A      4.119536   608A      4.131877   609A      4.133234  
     610A      4.141073   611A      4.146792   612A      4.158691  
     613A      4.166709   614A      4.169917   615A      4.178425  
     616A      4.190346   617A      4.206331   618A      4.209912  
     619A      4.231874   620A      4.235759   621A      4.254637  
     622A      4.258838   623A      4.262104   624A      4.277750  
     625A      4.281240   626A      4.285508   627A      4.300880  
     628A      4.306140   629A      4.312874   630A      4.331007  
     631A      4.339518   632A      4.341365   633A      4.352392  
     634A      4.370904   635A      4.381243   636A      4.385536  
     637A      4.390385   638A      4.393592   639A      4.400545  
     640A      4.412223   641A      4.432353   642A      4.438950  
     643A      4.440253   644A      4.453906   645A      4.459591  
     646A      4.463683   647A      4.473321   648A      4.490706  
     649A      4.496461   650A      4.509421   651A      4.516346  
     652A      4.518069   653A      4.533167   654A      4.538382  
     655A      4.560668   656A      4.568143   657A      4.584793  
     658A      4.597040   659A      4.624916   660A      4.632465  
     661A      4.640948   662A      4.659091   663A      4.666975  
     664A      4.682156   665A      4.691854   666A      4.699965  
     667A      4.721139   668A      4.733193   669A      4.738631  
     670A      4.752188   671A      4.752797   672A      4.791919  
     673A      4.804158   674A      4.809648   675A      4.834367  
     676A      4.855160   677A      4.863566   678A      4.876815  
     679A      4.886579   680A      4.913144   681A      4.915315  
     682A      4.938000   683A      4.940083   684A      4.945587  
     685A      4.965153   686A      4.979073   687A      4.993343  
     688A      5.010509   689A      5.015219   690A      5.027271  
     691A      5.035771   692A      5.045666   693A      5.056332  
     694A      5.065216   695A      5.088323   696A      5.091122  
     697A      5.104364   698A      5.116394   699A      5.119589  
     700A      5.139363   701A      5.146034   702A      5.158433  
     703A      5.161947   704A      5.164601   705A      5.173541  
     706A      5.178867   707A      5.186217   708A      5.217331  
     709A      5.233845   710A      5.234917   711A      5.257348  
     712A      5.270825   713A      5.287627   714A      5.310822  
     715A      5.315659   716A      5.328951   717A      5.350102  
     718A      5.363019   719A      5.366937   720A      5.388059  
     721A      5.427618   722A      5.428558   723A      5.445511  
     724A      5.446229   725A      5.472511   726A      5.485456  
     727A      5.497923   728A      5.509970   729A      5.554110  
     730A      5.563413   731A      5.568708   732A      5.617509  
     733A      5.629129   734A      5.666554   735A      5.688872  
     736A      5.703579   737A      5.715150   738A      5.749888  
     739A      5.759810   740A      5.767734   741A      5.800128  
     742A      5.821508   743A      5.828427   744A      5.846218  
     745A      5.876427   746A      5.879220   747A      5.914133  
     748A      5.941229   749A      5.985292   750A      6.053664  
     751A      6.085150   752A      6.107558   753A      6.160712  
     754A      6.182997   755A      6.227974   756A      6.242232  
     757A      6.273656   758A      6.282364   759A      6.373322  
     760A      6.402623   761A      6.413338   762A      6.465724  
     763A      6.481460   764A      6.520921   765A      6.536075  
     766A      6.594934   767A      6.620641   768A      6.709719  
     769A      6.716006   770A      6.740779   771A      6.750346  
     772A      6.876525   773A      6.886278   774A      6.887513  
     775A      6.907235   776A      6.919193   777A      6.943816  
     778A      6.976892   779A      7.091742   780A      7.104698  
     781A      7.148180   782A      7.291782   783A      7.358324  
     784A      7.409499   785A      7.427067   786A      7.541234  
     787A      7.607349   788A      7.660430   789A      7.866247  
     790A      7.954428   791A      8.171908   792A      8.604368  
     793A     15.625925   794A     16.364879   795A     16.758508  
     796A     16.804696   797A     17.024694   798A     18.431154  
     799A     18.830300   800A     19.202840   801A     19.946744  
     802A     20.065126   803A     20.266635   804A     20.588057  
     805A     21.774222  

    Final Occupation by Irrep:
              A 
    DOCC [    45 ]

  Energy converged.

  @DF-RHF Final Energy:  -551.28184027785505

   => Energetics <=

    Nuclear Repulsion Energy =            698.4863118987511825
    One-Electron Energy =               -2133.7463318597133366
    Two-Electron Energy =                 883.9781796831071006
    DFT Exchange-Correlation Energy =       0.0000000000000000
    Empirical Dispersion Energy =           0.0000000000000000
    PCM Polarization Energy =               0.0000000000000000
    EFP Energy =                            0.0000000000000000
    Total Energy =                       -551.2818402778550535



Properties will be evaluated at   0.000000,   0.000000,   0.000000 Bohr

Properties computed using the SCF density matrix

  Nuclear Dipole Moment: (a.u.)
     X:    -0.3431      Y:     1.0577      Z:     0.7055

  Electronic Dipole Moment: (a.u.)
     X:    -0.1058      Y:    -0.1938      Z:    -0.0864

  Dipole Moment: (a.u.)
     X:    -0.4489      Y:     0.8638      Z:     0.6190     Total:     1.1537

  Dipole Moment: (Debye)
     X:    -1.1411      Y:     2.1957      Z:     1.5734     Total:     2.9323


*** tstop() called on gpu-2-9.local at Sun Nov 12 14:06:48 2017
Module time:
	user time   =    1105.20 seconds =      18.42 minutes
	system time =      53.98 seconds =       0.90 minutes
	total time  =        499 seconds =       8.32 minutes
Total time:
	user time   =    1105.21 seconds =      18.42 minutes
	system time =      53.98 seconds =       0.90 minutes
	total time  =        499 seconds =       8.32 minutes

  //>>>>>>>>>>>>>>>>>>>>>>>>>>>>>>>>>>>//
  //               DFMP2               //
  //<<<<<<<<<<<<<<<<<<<<<<<<<<<<<<<<<<<//

   => Loading Basis Set <=

    Name: (AUG-CC-PVTZ AUX)
    Role: RIFIT
    Keyword: DF_BASIS_MP2
    atoms 1-11  entry C          line   147 file /cbio/jclab/home/chayas/anaconda/envs/py35/share/psi4/basis/aug-cc-pvtz-ri.gbs 
    atoms 12    entry N          line   205 file /cbio/jclab/home/chayas/anaconda/envs/py35/share/psi4/basis/aug-cc-pvtz-ri.gbs 
    atoms 13    entry O          line   263 file /cbio/jclab/home/chayas/anaconda/envs/py35/share/psi4/basis/aug-cc-pvtz-ri.gbs 
    atoms 14-22 entry H          line    29 file /cbio/jclab/home/chayas/anaconda/envs/py35/share/psi4/basis/aug-cc-pvtz-ri.gbs 

	 --------------------------------------------------------
	                          DF-MP2                         
	      2nd-Order Density-Fitted Moller-Plesset Theory     
	              RMP2 Wavefunction,   8 Threads             
	                                                         
	        Rob Parrish, Justin Turney, Andy Simmonett,      
	           Ed Hohenstein, and C. David Sherrill          
	 --------------------------------------------------------

   => Auxiliary Basis Set <=

  Basis Set: (AUG-CC-PVTZ AUX)
    Blend: AUG-CC-PVTZ-RI
    Number of shells: 490
    Number of basis function: 1792
    Number of Cartesian functions: 2263
    Spherical Harmonics?: true
    Max angular momentum: 4

	 --------------------------------------------------------
	                 NBF =   805, NAUX =  1792
	 --------------------------------------------------------
	   CLASS    FOCC     OCC    AOCC    AVIR     VIR    FVIR
	   PAIRS       0      45      45     760     760       0
	 --------------------------------------------------------


         ------------------------------------------------------------
                                     CPHF                           
                                  Rob Parrish                       
         ------------------------------------------------------------

  ==> Geometry <==

    Molecular point group: c1
    Full point group: C1

    Geometry (in Angstrom), charge = 0, multiplicity = 1:

       Center              X                  Y                   Z               Mass       
    ------------   -----------------  -----------------  -----------------  -----------------
           C         -1.254439718169     0.704096701464    -0.587263173636    12.000000000000
           C         -0.261439718169     0.088096701464     1.526736826364    12.000000000000
           C         -2.332439718169     1.277096701464     0.085736826364    12.000000000000
           C         -1.339439718169     0.661096701464     2.200736826364    12.000000000000
           C          0.722560281831    -1.032903298536    -1.831263173636    12.000000000000
           C          2.158560281831    -0.509903298536     0.025736826364    12.000000000000
           C          1.825560281831    -1.588903298536    -2.458263173636    12.000000000000
           C          3.197560281831    -1.088903298536    -0.684263173636    12.000000000000
           C         -0.218439718169     0.109096701464     0.132736826364    12.000000000000
           C          0.900560281831    -0.484903298536    -0.565263173636    12.000000000000
           C         -2.375439718169     1.256096701464     1.479736826364    12.000000000000
           N          3.062560281831    -1.631903298536    -1.915263173636    14.003074004780
           O         -3.427439718169     1.816096701464     2.136736826364    15.994914619560
           H         -1.235439718169     0.728096701464    -1.674263173636     1.007825032070
           H          0.538560281831    -0.371903298536     2.102736826364     1.007825032070
           H         -3.136439718169     1.739096701464    -0.481263173636     1.007825032070
           H         -1.367439718169     0.642096701464     3.286736826364     1.007825032070
           H         -0.244439718169    -1.031903298536    -2.325263173636     1.007825032070
           H          2.335560281831    -0.092903298536     1.011736826364     1.007825032070
           H          1.739560281831    -2.027903298536    -3.447263173636     1.007825032070
           H          4.197560281831    -1.134903298536    -0.267263173636     1.007825032070
           H         -3.166439718169     2.664096701464     2.529736826364     1.007825032070

  Nuclear repulsion =  698.486311898751183
  Reference energy  = -551.281840277855054

  ==> Basis Set <==

  Basis Set: AUG-CC-PVTZ
    Blend: AUG-CC-PVTZ
    Number of shells: 263
    Number of basis function: 805
    Number of Cartesian functions: 940
    Spherical Harmonics?: true
    Max angular momentum: 3

  ==> CGRSolver (by Rob Parrish) <==

   Number of roots    =         1
   Preconditioning    =    JACOBI
   Convergence cutoff =     1E-06
   Maximum iterations =       100

  ==> CPHFRHamiltonian (by Rob Parrish) <== 

  ==> DFJK: Density-Fitted J/K Matrices <==

    J tasked:                  Yes
    K tasked:                  Yes
    wK tasked:                  No
    OpenMP threads:              8
    Integrals threads:           8
    Memory (MB):              3576
    Algorithm:                Disk
    Integral Cache:           NONE
    Schwarz Cutoff:          1E-12
    Fitting Condition:       1E-12

   => Auxiliary Basis Set <=

  Basis Set: (AUG-CC-PVTZ AUX)
    Blend: AUG-CC-PVTZ-JKFIT
    Number of shells: 516
    Number of basis function: 1766
    Number of Cartesian functions: 2198
    Spherical Harmonics?: true
    Max angular momentum: 4

  ==> CPHF Iterations <==

  => Iterations <=

             Iter  Converged  Remaining    Residual
  CGR           1          0          1   8.498E-02
  CGR           2          0          1   3.394E-02
  CGR           3          0          1   2.392E-02
  CGR           4          0          1   9.921E-03
  CGR           5          0          1   3.766E-03
  CGR           6          0          1   1.547E-03
  CGR           7          0          1   4.751E-04
  CGR           8          0          1   1.836E-04
  CGR           9          0          1   9.327E-05
  CGR          10          0          1   3.897E-05
  CGR          11          0          1   1.303E-05
  CGR          12          0          1   4.820E-06
  CGR          13          0          1   1.380E-06
  CGR          14          1          0   4.269E-07

    CGRSolver converged.

  ==> DFCorrGrad: Density-Fitted Correlated Gradients <==

    OpenMP threads:              8
    Integrals threads:           8
    Memory (MB):              3576
    Schwarz Cutoff:          0E+00
    Fitting Condition:       1E-12

   => Auxiliary Basis Set <=

  Basis Set: (AUG-CC-PVTZ AUX)
    Blend: AUG-CC-PVTZ-JKFIT
    Number of shells: 516
    Number of basis function: 1766
    Number of Cartesian functions: 2198
    Spherical Harmonics?: true
    Max angular momentum: 4

	-----------------------------------------------------------
	 ==================> DF-MP2 Energies <==================== 
	-----------------------------------------------------------
	 Reference Energy          =    -551.2818402778550535 [Eh]
	 Singles Energy            =      -0.0000000000000002 [Eh]
	 Same-Spin Energy          =      -0.6046960818480354 [Eh]
	 Opposite-Spin Energy      =      -1.8303356901449364 [Eh]
	 Correlation Energy        =      -2.4350317719929717 [Eh]
	 Total Energy              =    -553.7168720498480070 [Eh]
	-----------------------------------------------------------
	 ================> DF-SCS-MP2 Energies <================== 
	-----------------------------------------------------------
	 SCS Same-Spin Scale       =       0.3333333333333333 [-]
	 SCS Opposite-Spin Scale   =       1.2000000000000000 [-]
	 SCS Same-Spin Energy      =      -0.2015653606160118 [Eh]
	 SCS Opposite-Spin Energy  =      -2.1964028281739236 [Eh]
	 SCS Correlation Energy    =      -2.3979681887899353 [Eh]
	 SCS Total Energy          =    -553.6798084666449995 [Eh]
	-----------------------------------------------------------


  -Total Gradient:
     Atom            X                  Y                   Z
    ------   -----------------  -----------------  -----------------
       1        0.009385211041    -0.001258373518    -0.006995827759
       2        0.008350658238    -0.006544727541    -0.004888560068
       3       -0.001271126035     0.002820524584     0.002615347183
       4       -0.004829241567     0.002841568715     0.003385912711
       5       -0.009693918371     0.001414106040     0.002086096936
       6       -0.004952618086     0.006210399223     0.007032580518
       7       -0.012756280795     0.002220163968    -0.000192349110
       8       -0.003103364058     0.006910427880     0.010998231947
       9        0.003245621040    -0.001850229266    -0.002028655843
      10        0.003963639876    -0.001801709520    -0.001733036286
      11       -0.016568425081     0.000702770107     0.004828013172
      12        0.012524144506    -0.007003647410    -0.008133914661
      13        0.012291096264    -0.012224953132    -0.006966419668
      14       -0.001531581932    -0.001105068606    -0.006389898664
      15        0.005194687100    -0.000976838020     0.004337341256
      16       -0.002809420494     0.001188082379    -0.005409546190
      17        0.002461062806    -0.000825186184     0.004986490942
      18       -0.004504114811     0.001228977136    -0.003954061006
      19        0.001114570529     0.000307566444     0.005477104634
      20        0.000484253049    -0.001046383815    -0.002887179048
      21        0.002319474286    -0.000736508233     0.000441595120
      22        0.000685672498     0.009529038778     0.003390733887


*** tstop() called on gpu-2-9.local at Sun Nov 12 14:38:19 2017
Module time:
	user time   =    5041.72 seconds =      84.03 minutes
	system time =     116.18 seconds =       1.94 minutes
	total time  =       2390 seconds =      39.83 minutes
Total time:
	user time   =    5041.73 seconds =      84.03 minutes
	system time =     116.18 seconds =       1.94 minutes
	total time  =       2390 seconds =      39.83 minutes

			-----------------------------------------
			 OPTKING 2.0: for geometry optimizations 
			  - R.A. King,  Bethel University        
			-----------------------------------------

	Internal coordinates to be generated automatically.
	Detected frag 1 with atoms:  1 2 3 4 5 6 7 8 9 10 11 12 13 14 15 16 17 18 19 20
	 21 22
	---Fragment 1 Bond Connectivity---
	 1 : 3 9 14
	 2 : 4 9 15
	 3 : 1 11 16
	 4 : 2 11 17
	 5 : 7 10 18
	 6 : 8 10 19
	 7 : 5 12 20
	 8 : 6 12 21
	 9 : 1 2 10
	 10 : 5 6 9
	 11 : 3 4 13
	 12 : 7 8
	 13 : 11 22
	 14 : 1
	 15 : 2
	 16 : 3
	 17 : 4
	 18 : 5
	 19 : 6
	 20 : 7
	 21 : 8
	 22 : 13

	Assuming in current code that numbering for constraints corresponds to unified fragment.
	Fixed dihedral atom list: 
	     3    11    13    22
	---Fragment 1 Geometry and Gradient---
	 C          -2.3705475176        1.3305499368       -1.1097665661
	 C          -0.4940494676        0.1664786390        2.8851144788
	 C          -4.4076722888        2.4133630110        0.1620191213
	 C          -2.5311742388        1.2492917131        4.1587898924
	 C           1.3654410472       -1.9519043560       -3.4605858754
	 C           4.0790877740       -0.9635775885        0.0486355534
	 C           3.4498089717       -3.0025920859       -4.6454441607
	 C           6.0425132261       -2.0577290194       -1.2930700010
	 C          -0.4127912439        0.2061628878        0.2508362496
	 C           1.7018122988       -0.9163344352       -1.0681925912
	 C          -4.4889305125        2.3736787622        2.7962973506
	 N           5.7874001981       -3.0838503096       -3.6193228706
	 O          -6.4769224043        3.4319253966        4.0378474199
	 H          -2.3346427210        1.3759033640       -3.1638988725
	 H           1.0177314387       -0.7027953822        3.9735967314
	 H          -5.9270120996        3.2864164844       -0.9094555960
	 H          -2.5840865706        1.2133869166        6.2110324727
	 H          -0.4619241233       -1.9500146299       -4.3941105851
	 H           4.4135692995       -0.1755617911        1.9119055204
	 H           3.2872925243       -3.8321818582       -6.5143833062
	 H           7.9322393589       -2.1446564215       -0.5050542036
	 H          -5.9837038836        5.0344131573        4.7805097901
	             0.0093852110       -0.0012583735       -0.0069958278
	             0.0083506582       -0.0065447275       -0.0048885601
	            -0.0012711260        0.0028205246        0.0026153472
	            -0.0048292416        0.0028415687        0.0033859127
	            -0.0096939184        0.0014141060        0.0020860969
	            -0.0049526181        0.0062103992        0.0070325805
	            -0.0127562808        0.0022201640       -0.0001923491
	            -0.0031033641        0.0069104279        0.0109982319
	             0.0032456210       -0.0018502293       -0.0020286558
	             0.0039636399       -0.0018017095       -0.0017330363
	            -0.0165684251        0.0007027701        0.0048280132
	             0.0125241445       -0.0070036474       -0.0081339147
	             0.0122910963       -0.0122249531       -0.0069664197
	            -0.0015315819       -0.0011050686       -0.0063898987
	             0.0051946871       -0.0009768380        0.0043373413
	            -0.0028094205        0.0011880824       -0.0054095462
	             0.0024610628       -0.0008251862        0.0049864909
	            -0.0045041148        0.0012289771       -0.0039540610
	             0.0011145705        0.0003075664        0.0054771046
	             0.0004842530       -0.0010463838       -0.0028871790
	             0.0023194743       -0.0007365082        0.0004415951
	             0.0006856725        0.0095290388        0.0033907339

	Previous optimization step data not found.  Starting new optimization.

	---Fragment 1 Intrafragment Coordinates---
	 - Coordinate -           - BOHR/RAD -       - ANG/DEG -
	 R(1,3)           =         2.634350	       1.394038
	 R(1,9)           =         2.635962	       1.394891
	 R(1,14)          =         2.054947	       1.087431
	 R(2,4)           =         2.635263	       1.394521
	 R(2,9)           =         2.635830	       1.394821
	 R(2,15)          =         2.055702	       1.087831
	 R(3,11)          =         2.635830	       1.394821
	 R(3,16)          =         2.053941	       1.086899
	 R(4,11)          =         2.636938	       1.395407
	 R(4,17)          =         2.053239	       1.086527
	 R(5,7)           =         2.617713	       1.385234
	 R(5,10)          =         2.628516	       1.390951
	 R(5,18)          =         2.052008	       1.085876
	 R(6,8)           =         2.617705	       1.385230
	 R(6,10)          =         2.626971	       1.390133
	 R(6,19)          =         2.050517	       1.085087
	 R(7,12)          =         2.554185	       1.351616
	 R(7,20)          =         2.051235	       1.085467
	 R(8,12)          =         2.555281	       1.352196
	 R(8,21)          =         2.049290	       1.084438
	 R(9,10)          =         2.733384	       1.446444
	 R(11,13)         =         2.571662	       1.360865
	 R(13,22)         =         1.833788	       0.970399
	 B(1,3,11)        =         2.094553	     120.009056
	 B(1,3,16)        =         2.088505	     119.662516
	 B(1,9,2)         =         2.093692	     119.959722
	 B(1,9,10)        =         2.095161	     120.043881
	 B(2,4,11)        =         2.093699	     119.960108
	 B(2,4,17)        =         2.089577	     119.723926
	 B(2,9,10)        =         2.094332	     119.996376
	 B(3,1,9)         =         2.094940	     120.031219
	 B(3,1,14)        =         2.079469	     119.144799
	 B(3,11,4)        =         2.094306	     119.994870
	 B(3,11,13)       =         2.094549	     120.008801
	 B(4,2,9)         =         2.095181	     120.045019
	 B(4,2,15)        =         2.078675	     119.099297
	 B(4,11,13)       =         2.094331	     119.996326
	 B(5,7,12)        =         2.164774	     124.032419
	 B(5,7,20)        =         2.107900	     120.773750
	 B(5,10,6)        =         2.089402	     119.713913
	 B(5,10,9)        =         2.096711	     120.132663
	 B(6,8,12)        =         2.164670	     124.026428
	 B(6,8,21)        =         2.108649	     120.816676
	 B(6,10,9)        =         2.097073	     120.153413
	 B(7,5,10)        =         2.058056	     117.917911
	 B(7,5,18)        =         2.098486	     120.234396
	 B(7,12,8)        =         2.031222	     116.380442
	 B(8,6,10)        =         2.058246	     117.928826
	 B(8,6,19)        =         2.099051	     120.266760
	 B(9,1,14)        =         2.108776	     120.823969
	 B(9,2,15)        =         2.109330	     120.855683
	 B(10,5,18)       =         2.126643	     121.847689
	 B(10,6,19)       =         2.125888	     121.804412
	 B(11,3,16)       =         2.100127	     120.328425
	 B(11,4,17)       =         2.099910	     120.315955
	 B(11,13,22)      =         1.925382	     110.316291
	 B(12,7,20)       =         2.010511	     115.193804
	 B(12,8,21)       =         2.009864	     115.156734
	 D(1,3,11,4)      =        -0.000325	      -0.018609
	 D(1,3,11,13)     =         3.140978	     179.964785
	 D(1,9,2,4)       =         0.000325	       0.018608
	 D(1,9,2,15)      =        -3.141497	    -179.994534
	 D(1,9,10,5)      =        -0.524224	     -30.035797
	 D(1,9,10,6)      =         2.616694	     149.925506
	 D(2,4,11,3)      =         0.000301	       0.017261
	 D(2,4,11,13)     =        -3.141002	    -179.966135
	 D(2,9,1,3)       =        -0.000348	      -0.019945
	 D(2,9,1,14)      =        -3.141221	    -179.978731
	 D(2,9,10,5)      =         2.618285	     150.016707
	 D(2,9,10,6)      =        -0.523983	     -30.021991
	 D(3,1,9,10)      =        -3.141025	    -179.967461
	 D(3,11,4,17)     =         3.141223	     179.978848
	 D(3,11,13,22)    =        -1.831924	    -104.961490
	 D(4,2,9,10)      =         3.141002	     179.966149
	 D(4,11,3,16)     =         3.141593	     180.000000
	 D(4,11,13,22)    =         1.309379	      75.021904
	 D(5,7,12,8)      =        -0.001332	      -0.076323
	 D(5,10,6,8)      =         0.000381	       0.021838
	 D(5,10,6,19)     =        -3.140989	    -179.965395
	 D(6,8,12,7)      =         0.001671	       0.095732
	 D(6,10,5,7)      =        -0.000077	      -0.004437
	 D(6,10,5,18)     =        -3.141299	    -179.983151
	 D(7,5,10,9)      =         3.140843	     179.957036
	 D(7,12,8,21)     =         3.140716	     179.949799
	 D(8,6,10,9)      =        -3.140539	    -179.939628
	 D(8,12,7,20)     =         3.139212	     179.863574
	 D(9,1,3,11)      =         0.000348	       0.019955
	 D(9,1,3,16)      =        -3.141571	    -179.998735
	 D(9,2,4,11)      =        -0.000301	      -0.017270
	 D(9,2,4,17)      =        -3.141228	    -179.979086
	 D(9,10,5,18)     =        -0.000378	      -0.021678
	 D(9,10,6,19)     =         0.001277	       0.073140
	 D(10,5,7,12)     =         0.000580	       0.033223
	 D(10,5,7,20)     =        -3.139908	    -179.903478
	 D(10,6,8,12)     =        -0.001235	      -0.070741
	 D(10,6,8,21)     =        -3.140143	    -179.916933
	 D(10,9,1,14)     =         0.001287	       0.073752
	 D(10,9,2,15)     =        -0.000820	      -0.046992
	 D(11,3,1,14)     =         3.141234	     179.979432
	 D(11,4,2,15)     =         3.141517	     179.995641
	 D(12,7,5,18)     =        -3.141378	    -179.987706
	 D(12,8,6,19)     =         3.140139	     179.916697
	 D(13,11,3,16)    =        -0.000286	      -0.016400
	 D(13,11,4,17)    =        -0.000079	      -0.004548
	 D(14,1,3,16)     =        -0.000685	      -0.039257
	 D(15,2,4,17)     =         0.000590	       0.033826
	 D(18,5,7,20)     =         0.001319	       0.075593
	 D(19,6,8,21)     =         0.001231	       0.070505

	Current energy   :      -553.7168720498

	Generating empirical Hessian (Schlegel '84) for each fragment.
	Adding user-defined constraint: Fragment 1; Coordinate 73:
		Value =    -1.831924; Fixed value    =    -1.832596
		Force =    -0.000336; Force constant =     0.500000
	Removing off-diagonal coupling between coordinate 73 and others.
	Taking RFO optimization step.
	Going to follow RFO solution 1.
	Using RFO vector 1.

	Determining step-restricting scale parameter for RS-RFO.
	Maximum step size allowed    0.10000

	 Iter      |step|        alpha        rfo_root  
	------------------------------------------------
	    0     0.27526       1.00000           1
	    1     0.19029       3.66543           1
	    2     0.14460       9.37758           1
	    3     0.11783      19.78599           1
	    4     0.10414      30.61407           1
	    5     0.10029      34.79392           1
	    6     0.10000      35.13784           1
	------------------------------------------------
	Norm of target step-size    0.10000
	Projected energy change by RFO approximation:        -0.0048232657

	Back-transformation to cartesian coordinates...
	Could not converge backtransformation.
	Using first guess instead.

	--- Internal Coordinate Step in ANG or DEG, aJ/ANG or AJ/DEG ---
	 ---------------------------------------------------------------------------
	   Coordinate                Previous        Force       Change         New 
	   ----------                --------       ------       ------       ------
	    1 R(1,3)          =      1.394038    -0.050243    -0.005139     1.388899
	    2 R(1,9)          =      1.394891    -0.003840    -0.000118     1.394773
	    3 R(1,14)         =      1.087431    -0.052202    -0.006498     1.080933
	    4 R(2,4)          =      1.394521    -0.054534    -0.005579     1.388942
	    5 R(2,9)          =      1.394821    -0.004253    -0.000171     1.394650
	    6 R(2,15)         =      1.087831    -0.053798    -0.006692     1.081139
	    7 R(3,11)         =      1.394821    -0.069463    -0.007266     1.387555
	    8 R(3,16)         =      1.086899    -0.044531    -0.005517     1.081381
	    9 R(4,11)         =      1.395407    -0.057326    -0.006012     1.389395
	   10 R(4,17)         =      1.086527    -0.040659    -0.005021     1.081506
	   11 R(5,7)          =      1.385234     0.002142     0.000199     1.385433
	   12 R(5,10)         =      1.390951     0.002992     0.000900     1.391850
	   13 R(5,18)         =      1.085876    -0.047875    -0.005919     1.079957
	   14 R(6,8)          =      1.385230     0.001330     0.000117     1.385347
	   15 R(6,10)         =      1.390133     0.009240     0.001584     1.391717
	   16 R(6,19)         =      1.085087    -0.043475    -0.005342     1.079745
	   17 R(7,12)         =      1.351616    -0.122829    -0.011454     1.340162
	   18 R(7,20)         =      1.085467    -0.024843    -0.003062     1.082405
	   19 R(8,12)         =      1.352196    -0.126276    -0.011788     1.340408
	   20 R(8,21)         =      1.084438    -0.019278    -0.002372     1.082066
	   21 R(9,10)         =      1.446444     0.155464     0.018187     1.464632
	   22 R(11,13)        =      1.360865     0.106009     0.009916     1.370781
	   23 R(13,22)        =      0.970399    -0.081437    -0.007519     0.962880
	   24 B(1,3,11)       =    120.009056     0.000082     0.108679   120.117736
	   25 B(1,3,16)       =    119.662516     0.000195     0.500537   120.163053
	   26 B(1,9,2)        =    119.959722    -0.000764    -1.362847   118.596875
	   27 B(1,9,10)       =    120.043881     0.000374     0.668423   120.712304
	   28 B(2,4,11)       =    119.960108     0.000119     0.185236   120.145345
	   29 B(2,4,17)       =    119.723926     0.000145     0.387722   120.111648
	   30 B(2,9,10)       =    119.996376     0.000389     0.694443   120.690819
	   31 B(3,1,9)        =    120.031219     0.000378     0.750555   120.781774
	   32 B(3,1,14)       =    119.144799    -0.000123    -0.225141   118.919659
	   33 B(3,11,4)       =    119.994870    -0.000149    -0.347667   119.647203
	   34 B(3,11,13)      =    120.008801    -0.000143    -0.220431   119.788370
	   35 B(4,2,9)        =    120.045019     0.000334     0.665792   120.710811
	   36 B(4,2,15)       =    119.099297    -0.000090    -0.156341   118.942956
	   37 B(4,11,13)      =    119.996326     0.000292     0.566867   120.563194
	   38 B(5,7,12)       =    124.032419     0.000042    -0.002198   124.030221
	   39 B(5,7,20)       =    120.773750    -0.000073    -0.121008   120.652742
	   40 B(5,10,6)       =    119.713913    -0.001195    -2.066281   117.647632
	   41 B(5,10,9)       =    120.132663     0.000592     1.023281   121.155944
	   42 B(6,8,12)       =    124.026428     0.000037    -0.011484   124.014944
	   43 B(6,8,21)       =    120.816676    -0.000075    -0.127762   120.688914
	   44 B(6,10,9)       =    120.153413     0.000603     1.043002   121.196415
	   45 B(7,5,10)       =    117.917911     0.000523     1.083796   119.001707
	   46 B(7,5,18)       =    120.234396    -0.000204    -0.410845   119.823551
	   47 B(7,12,8)       =    116.380442     0.000068    -0.092518   116.287924
	   48 B(8,6,10)       =    117.928826     0.000525     1.088699   119.017525
	   49 B(8,6,19)       =    120.266760    -0.000212    -0.430028   119.836732
	   50 B(9,1,14)       =    120.823969    -0.000254    -0.526221   120.297748
	   51 B(9,2,15)       =    120.855683    -0.000243    -0.510601   120.345081
	   52 B(10,5,18)      =    121.847689    -0.000319    -0.673518   121.174171
	   53 B(10,6,19)      =    121.804412    -0.000313    -0.659237   121.145176
	   54 B(11,3,16)      =    120.328425    -0.000277    -0.609215   119.719210
	   55 B(11,4,17)      =    120.315955    -0.000265    -0.573036   119.742918
	   56 B(11,13,22)     =    110.316291    -0.000238    -0.555632   109.760659
	   57 B(12,7,20)      =    115.193804     0.000031     0.123186   115.316990
	   58 B(12,8,21)      =    115.156734     0.000038     0.139407   115.296141
	   59 D(1,3,11,4)     =     -0.018609    -0.000002    -0.000083    -0.018692
	   60 D(1,3,11,13)    =    179.964785     0.000025     0.418197   180.382982
	   61 D(1,9,2,4)      =      0.018608     0.000001     0.022343     0.040951
	   62 D(1,9,2,15)     =   -179.994534    -0.000020    -0.359000  -180.353534
	   63 D(1,9,10,5)     =    -30.035797    -0.000027    -0.518040   -30.553837
	   64 D(1,9,10,6)     =    149.925506    -0.000027    -0.515182   149.410324
	   65 D(2,4,11,3)     =      0.017261     0.000009     0.132981     0.150243
	   66 D(2,4,11,13)    =   -179.966135    -0.000018    -0.288467  -180.254602
	   67 D(2,9,1,3)      =     -0.019945     0.000006     0.111492     0.091547
	   68 D(2,9,1,14)     =   -179.978731    -0.000014    -0.262549  -180.241280
	   69 D(2,9,10,5)     =    150.016707    -0.000029    -0.554078   149.462628
	   70 D(2,9,10,6)     =    -30.021991    -0.000029    -0.551220   -30.573211
	   71 D(3,1,9,10)     =   -179.967461     0.000004     0.075134  -179.892327
	   72 D(3,11,4,17)    =    179.978848     0.000017     0.279426   180.258275
	   73 D(3,11,13,22)   =   -104.961490    -0.000019    -0.127913  -105.089404
	   74 D(4,2,9,10)     =    179.966149     0.000003     0.058679   180.024828
	   75 D(4,11,3,16)    =    180.000000    -0.000002    -0.007221   179.992779
	   76 D(4,11,13,22)   =     75.021904     0.000007     0.294107    75.316011
	   77 D(5,7,12,8)     =     -0.076323     0.000001     0.024964    -0.051359
	   78 D(5,10,6,8)     =      0.021838     0.000000     0.006309     0.028146
	   79 D(5,10,6,19)    =   -179.965395    -0.000016    -0.281063  -180.246459
	   80 D(6,8,12,7)     =      0.095732    -0.000001    -0.011706     0.084027
	   81 D(6,10,5,7)     =     -0.004437     0.000000     0.005902     0.001465
	   82 D(6,10,5,18)    =   -179.983151    -0.000016    -0.290707  -180.273859
	   83 D(7,5,10,9)     =    179.957036     0.000001     0.009821   179.966857
	   84 D(7,12,8,21)    =    179.949799     0.000008     0.142797   180.092596
	   85 D(8,6,10,9)     =   -179.939628     0.000000     0.002397  -179.937231
	   86 D(8,12,7,20)    =    179.863574     0.000009     0.163994   180.027568
	   87 D(9,1,3,11)     =      0.019955    -0.000006    -0.123167    -0.103212
	   88 D(9,1,3,16)     =   -179.998735    -0.000006    -0.116000  -180.114734
	   89 D(9,2,4,11)     =     -0.017270    -0.000009    -0.144984    -0.162254
	   90 D(9,2,4,17)     =   -179.979086    -0.000016    -0.291601  -180.270686
	   91 D(9,10,5,18)    =     -0.021678    -0.000016    -0.286789    -0.308467
	   92 D(9,10,6,19)    =      0.073140    -0.000016    -0.284975    -0.211836
	   93 D(10,5,7,12)    =      0.033223    -0.000001    -0.022620     0.010603
	   94 D(10,5,7,20)    =   -179.903478    -0.000009    -0.168853  -180.072332
	   95 D(10,6,8,12)    =     -0.070741    -0.000000    -0.003984    -0.074725
	   96 D(10,6,8,21)    =   -179.916933    -0.000009    -0.166802  -180.083734
	   97 D(10,9,1,14)    =      0.073752    -0.000016    -0.298906    -0.225154
	   98 D(10,9,2,15)    =     -0.046992    -0.000018    -0.322664    -0.369656
	   99 D(11,3,1,14)    =    179.979432     0.000014     0.245664   180.225096
	  100 D(11,4,2,15)    =    179.995641     0.000012     0.231134   180.226775
	  101 D(12,7,5,18)    =   -179.987706     0.000015     0.269835  -179.717871
	  102 D(12,8,6,19)    =    179.916697     0.000016     0.279515   180.196212
	  103 D(13,11,3,16)   =     -0.016400     0.000025     0.410852     0.394453
	  104 D(13,11,4,17)   =     -0.004548    -0.000010    -0.142022    -0.146570
	  105 D(14,1,3,16)    =     -0.039257     0.000014     0.252831     0.213574
	  106 D(15,2,4,17)    =      0.033826     0.000005     0.084517     0.118342
	  107 D(18,5,7,20)    =      0.075593     0.000007     0.123602     0.199195
	  108 D(19,6,8,21)    =      0.070505     0.000006     0.116698     0.187202
	 ---------------------------------------------------------------------------
	Successfully symmetrized geometry.
	 Forces used to impose fixed constraints are not included.
	  Forces zeroed: 73 

  ==> Convergence Check <==

  Measures of convergence in internal coordinates in au.
  Criteria marked as inactive (o), active & met (*), and active & unmet ( ).
  --------------------------------------------------------------------------------------------- ~
   Step     Total Energy     Delta E     MAX Force     RMS Force      MAX Disp      RMS Disp    ~
  --------------------------------------------------------------------------------------------- ~
    Convergence Criteria    1.00e-06 *    3.00e-04 *             o    1.20e-03 *             o  ~
  --------------------------------------------------------------------------------------------- ~
      1    -553.71687205   -5.54e+02      1.89e-02      4.65e-03 o    3.61e-02      9.62e-03 o  ~
  ---------------------------------------------------------------------------------------------

	Writing optimization data to binary file.
	Structure for next step:
	Cartesian Geometry (in Angstrom)
	    C    -1.2665433766   0.7177077359  -0.5657621168
	    C    -0.2847836005   0.0964388913   1.5325101195
	    C    -2.3397939770   1.2910574048   0.1038964977
	    C    -1.3585201295   0.6668333209   2.2040009958
	    C     0.7503483626  -1.0473716261  -1.8332070661
	    C     2.1770954240  -0.5202161635  -0.0006292576
	    C     1.8518922843  -1.6043590784  -2.4623261476
	    C     3.2159595170  -1.0998050060  -0.7105757423
	    C    -0.2253160657   0.1142135230   0.1392420993
	    C     0.9068779781  -0.4878735719  -0.5684115873
	    C    -2.3884143126   1.2672527445   1.4903951191
	    N     3.0805021720  -1.6431166536  -1.9284252617
	    O    -3.4547054084   1.8282012987   2.1441543565
	    H    -1.2465953946   0.7505025632  -1.6460130338
	    H     0.5041021649  -0.3688555252   2.1069860176
	    H    -3.1408006123   1.7579592230  -0.4526793431
	    H    -1.3968952093   0.6437011484   3.2845786778
	    H    -0.2110460019  -1.0571845298  -2.3250729575
	    H     2.3631216895  -0.0990739003   0.9760404117
	    H     1.7602638277  -2.0477106820  -3.4455065891
	    H     4.2145081994  -1.1384305370  -0.2955157922
	    H    -3.1919313310   2.6682568524   2.5345307800
			--------------------------
			 OPTKING Finished Execution 
			--------------------------

    Structure for next step:
    Molecular point group: c1
    Full point group: C1

    Geometry (in Angstrom), charge = 0, multiplicity = 1:

    C           -1.266522523302     0.717253990337    -0.565670908416
    C           -0.284762747171     0.095985145698     1.532601327923
    C           -2.339773123657     1.290603659200     0.103987706147
    C           -1.358499276191     0.666379575364     2.204092204232
    C            0.750369215877    -1.047825371646    -1.833115857700
    C            2.177116277326    -0.520669909089    -0.000538049169
    C            1.851913137640    -1.604812823948    -2.462234939190
    C            3.215980370311    -1.100258751543    -0.710484533864
    C           -0.225295212370     0.113759777388     0.139333307707
    C            0.906898831404    -0.488327317515    -0.568320378920
    C           -2.388393459282     1.266798998947     1.490486327525
    N            3.080523025358    -1.643570399185    -1.928334053251
    O           -3.454684555058     1.827747553080     2.144245564946
    H           -1.246574541251     0.750048817587    -1.645921825419
    H            0.504123018217    -0.369309270808     2.107077226047
    H           -3.140779758971     1.757505477386    -0.452588134667
    H           -1.396874356026     0.643247402821     3.284669886221
    H           -0.211025148589    -1.057638275392    -2.324981749055
    H            2.363142542803    -0.099527645841     0.976131620072
    H            1.760284680999    -2.048164427622    -3.445415380648
    H            4.214529052724    -1.138884282583    -0.295424583816
    H           -3.191910477680     2.667803106855     2.534621988436

gradient() will perform analytic gradient computation.

*** tstart() called on gpu-2-9.local
*** at Sun Nov 12 14:38:21 2017

    SCF Algorithm Type (re)set to DF.

*** tstart() called on gpu-2-9.local
*** at Sun Nov 12 14:38:21 2017

   => Loading Basis Set <=

    Name: AUG-CC-PVTZ
    Role: ORBITAL
    Keyword: BASIS
    atoms 1-11  entry C          line   221 file /cbio/jclab/home/chayas/anaconda/envs/py35/share/psi4/basis/aug-cc-pvtz.gbs 
    atoms 12    entry N          line   267 file /cbio/jclab/home/chayas/anaconda/envs/py35/share/psi4/basis/aug-cc-pvtz.gbs 
    atoms 13    entry O          line   313 file /cbio/jclab/home/chayas/anaconda/envs/py35/share/psi4/basis/aug-cc-pvtz.gbs 
    atoms 14-22 entry H          line    34 file /cbio/jclab/home/chayas/anaconda/envs/py35/share/psi4/basis/aug-cc-pvtz.gbs 


         ---------------------------------------------------------
                                   SCF
            by Justin Turney, Rob Parrish, and Andy Simmonett
                              RHF Reference
                        8 Threads,   4768 MiB Core
         ---------------------------------------------------------

  ==> Geometry <==

    Molecular point group: c1
    Full point group: C1

    Geometry (in Angstrom), charge = 0, multiplicity = 1:

       Center              X                  Y                   Z               Mass       
    ------------   -----------------  -----------------  -----------------  -----------------
           C         -1.266522523302     0.717253990337    -0.565670908416    12.000000000000
           C         -0.284762747171     0.095985145698     1.532601327923    12.000000000000
           C         -2.339773123657     1.290603659200     0.103987706147    12.000000000000
           C         -1.358499276191     0.666379575364     2.204092204232    12.000000000000
           C          0.750369215877    -1.047825371646    -1.833115857700    12.000000000000
           C          2.177116277326    -0.520669909089    -0.000538049169    12.000000000000
           C          1.851913137640    -1.604812823948    -2.462234939190    12.000000000000
           C          3.215980370311    -1.100258751543    -0.710484533864    12.000000000000
           C         -0.225295212370     0.113759777388     0.139333307707    12.000000000000
           C          0.906898831404    -0.488327317515    -0.568320378920    12.000000000000
           C         -2.388393459282     1.266798998947     1.490486327525    12.000000000000
           N          3.080523025358    -1.643570399185    -1.928334053251    14.003074004780
           O         -3.454684555058     1.827747553080     2.144245564946    15.994914619560
           H         -1.246574541251     0.750048817587    -1.645921825419     1.007825032070
           H          0.504123018217    -0.369309270808     2.107077226047     1.007825032070
           H         -3.140779758971     1.757505477386    -0.452588134667     1.007825032070
           H         -1.396874356026     0.643247402821     3.284669886221     1.007825032070
           H         -0.211025148589    -1.057638275392    -2.324981749055     1.007825032070
           H          2.363142542803    -0.099527645841     0.976131620072     1.007825032070
           H          1.760284680999    -2.048164427622    -3.445415380648     1.007825032070
           H          4.214529052724    -1.138884282583    -0.295424583816     1.007825032070
           H         -3.191910477680     2.667803106855     2.534621988436     1.007825032070

  Running in c1 symmetry.

  Rotational constants: A =      0.09844  B =      0.01332  C =      0.01194 [cm^-1]
  Rotational constants: A =   2951.29206  B =    399.23092  C =    357.88272 [MHz]
  Nuclear repulsion =  697.267355232709861

  Charge       = 0
  Multiplicity = 1
  Electrons    = 90
  Nalpha       = 45
  Nbeta        = 45

  ==> Algorithm <==

  SCF Algorithm Type is DF.
  DIIS enabled.
  MOM disabled.
  Fractional occupation disabled.
  Guess Type is READ.
  Energy threshold   = 1.00e-10
  Density threshold  = 1.00e-10
  Integral threshold = 0.00e+00

  ==> Primary Basis <==

  Basis Set: AUG-CC-PVTZ
    Blend: AUG-CC-PVTZ
    Number of shells: 263
    Number of basis function: 805
    Number of Cartesian functions: 940
    Spherical Harmonics?: true
    Max angular momentum: 3

   => Loading Basis Set <=

    Name: (AUG-CC-PVTZ AUX)
    Role: JKFIT
    Keyword: DF_BASIS_SCF
    atoms 1-11  entry C          line   161 file /cbio/jclab/home/chayas/anaconda/envs/py35/share/psi4/basis/aug-cc-pvtz-jkfit.gbs 
    atoms 12    entry N          line   223 file /cbio/jclab/home/chayas/anaconda/envs/py35/share/psi4/basis/aug-cc-pvtz-jkfit.gbs 
    atoms 13    entry O          line   285 file /cbio/jclab/home/chayas/anaconda/envs/py35/share/psi4/basis/aug-cc-pvtz-jkfit.gbs 
    atoms 14-22 entry H          line    69 file /cbio/jclab/home/chayas/anaconda/envs/py35/share/psi4/basis/aug-cc-pvtz-jkfit.gbs 

  Reading orbitals from file 180, no projection.

  ==> Pre-Iterations <==

   -------------------------------------------------------
    Irrep   Nso     Nmo     Nalpha   Nbeta   Ndocc  Nsocc
   -------------------------------------------------------
     A        805     805       0       0       0       0
   -------------------------------------------------------
    Total     805     805      45      45      45       0
   -------------------------------------------------------

  ==> Integral Setup <==

  ==> DFJK: Density-Fitted J/K Matrices <==

    J tasked:                  Yes
    K tasked:                  Yes
    wK tasked:                  No
    OpenMP threads:              8
    Integrals threads:           8
    Memory (MB):              3576
    Algorithm:                Disk
    Integral Cache:           NONE
    Schwarz Cutoff:          1E-12
    Fitting Condition:       1E-12

   => Auxiliary Basis Set <=

  Basis Set: (AUG-CC-PVTZ AUX)
    Blend: AUG-CC-PVTZ-JKFIT
    Number of shells: 516
    Number of basis function: 1766
    Number of Cartesian functions: 2198
    Spherical Harmonics?: true
    Max angular momentum: 4

  Minimum eigenvalue in the overlap matrix is 6.2169742887E-07.
  Using Symmetric Orthogonalization.

  SCF Guess: Orbitals guess was supplied from a previous computation.

  ==> Iterations <==

                           Total Energy        Delta E     RMS |[F,P]|

   @DF-RHF iter   0:  -551.43223894707273   -5.51432e+02   4.42330e-04 
   @DF-RHF iter   1:  -551.28573714705442    1.46502e-01   1.63106e-04 
   @DF-RHF iter   2:  -551.28669728789203   -9.60141e-04   1.37844e-04 DIIS
   @DF-RHF iter   3:  -551.28762655974572   -9.29272e-04   1.56041e-05 DIIS
   @DF-RHF iter   4:  -551.28764121187680   -1.46521e-05   4.34395e-06 DIIS
   @DF-RHF iter   5:  -551.28764359690615   -2.38503e-06   1.14711e-06 DIIS
   @DF-RHF iter   6:  -551.28764393775737   -3.40851e-07   8.27432e-07 DIIS
   @DF-RHF iter   7:  -551.28764405994536   -1.22188e-07   3.22043e-07 DIIS
   @DF-RHF iter   8:  -551.28764409451844   -3.45731e-08   1.48006e-07 DIIS
   @DF-RHF iter   9:  -551.28764410085523   -6.33679e-09   5.78901e-08 DIIS
   @DF-RHF iter  10:  -551.28764410174858   -8.93351e-10   2.08137e-08 DIIS
   @DF-RHF iter  11:  -551.28764410183999   -9.14042e-11   6.71007e-09 DIIS
   @DF-RHF iter  12:  -551.28764410186523   -2.52385e-11   3.02039e-09 DIIS
   @DF-RHF iter  13:  -551.28764410185488    1.03455e-11   1.69069e-09 DIIS
   @DF-RHF iter  14:  -551.28764410186750   -1.26192e-11   8.90812e-10 DIIS
   @DF-RHF iter  15:  -551.28764410187068   -3.18323e-12   3.50065e-10 DIIS
   @DF-RHF iter  16:  -551.28764410185181    1.88720e-11   9.20914e-11 DIIS

  ==> Post-Iterations <==

    Orbital Energies (a.u.)
    -----------------------

    Doubly Occupied:                                                      

       1A    -20.588519     2A    -15.561990     3A    -11.305697  
       4A    -11.273284     5A    -11.273185     6A    -11.267010  
       7A    -11.252390     8A    -11.250958     9A    -11.250289  
      10A    -11.243222    11A    -11.241986    12A    -11.237454  
      13A    -11.237294    14A     -1.405179    15A     -1.256230  
      16A     -1.174908    17A     -1.105535    18A     -1.039549  
      19A     -1.029694    20A     -1.012052    21A     -0.879739  
      22A     -0.872891    23A     -0.838637    24A     -0.812505  
      25A     -0.747725    26A     -0.724238    27A     -0.683687  
      28A     -0.664754    29A     -0.648532    30A     -0.643313  
      31A     -0.633710    32A     -0.608213    33A     -0.597214  
      34A     -0.592690    35A     -0.549918    36A     -0.543832  
      37A     -0.531290    38A     -0.514633    39A     -0.509367  
      40A     -0.482316    41A     -0.419139    42A     -0.402685  
      43A     -0.354446    44A     -0.349183    45A     -0.317845  

    Virtual:                                                              

      46A      0.022958    47A      0.029012    48A      0.031913  
      49A      0.038902    50A      0.041338    51A      0.045660  
      52A      0.054031    53A      0.056462    54A      0.059832  
      55A      0.074702    56A      0.078511    57A      0.084011  
      58A      0.088382    59A      0.091814    60A      0.093952  
      61A      0.101957    62A      0.107065    63A      0.108031  
      64A      0.110946    65A      0.113626    66A      0.116977  
      67A      0.117435    68A      0.121227    69A      0.127608  
      70A      0.129181    71A      0.132050    72A      0.132998  
      73A      0.137803    74A      0.141508    75A      0.146066  
      76A      0.148211    77A      0.149956    78A      0.153206  
      79A      0.158142    80A      0.160258    81A      0.168259  
      82A      0.169658    83A      0.176358    84A      0.180818  
      85A      0.184901    86A      0.186383    87A      0.201164  
      88A      0.203800    89A      0.210696    90A      0.216120  
      91A      0.222102    92A      0.225196    93A      0.228581  
      94A      0.233701    95A      0.241272    96A      0.241661  
      97A      0.243853    98A      0.247387    99A      0.253024  
     100A      0.257659   101A      0.261176   102A      0.263236  
     103A      0.266208   104A      0.272319   105A      0.275036  
     106A      0.282087   107A      0.286507   108A      0.289922  
     109A      0.291366   110A      0.296237   111A      0.300523  
     112A      0.302157   113A      0.304777   114A      0.310136  
     115A      0.315156   116A      0.319541   117A      0.324919  
     118A      0.327210   119A      0.328323   120A      0.331451  
     121A      0.338733   122A      0.341145   123A      0.351398  
     124A      0.357165   125A      0.360222   126A      0.362759  
     127A      0.368735   128A      0.372180   129A      0.381075  
     130A      0.383812   131A      0.387037   132A      0.395789  
     133A      0.398771   134A      0.408201   135A      0.416997  
     136A      0.420587   137A      0.425444   138A      0.427585  
     139A      0.429753   140A      0.435235   141A      0.436983  
     142A      0.437693   143A      0.444432   144A      0.447101  
     145A      0.450651   146A      0.458615   147A      0.461663  
     148A      0.463004   149A      0.465554   150A      0.471632  
     151A      0.474623   152A      0.480570   153A      0.483628  
     154A      0.486498   155A      0.490961   156A      0.498634  
     157A      0.499656   158A      0.501423   159A      0.503296  
     160A      0.508958   161A      0.510919   162A      0.512954  
     163A      0.515065   164A      0.517085   165A      0.520716  
     166A      0.526727   167A      0.527465   168A      0.528684  
     169A      0.532389   170A      0.538051   171A      0.542487  
     172A      0.547529   173A      0.549803   174A      0.552227  
     175A      0.559027   176A      0.561254   177A      0.567893  
     178A      0.575623   179A      0.578693   180A      0.588705  
     181A      0.592133   182A      0.603279   183A      0.608219  
     184A      0.609999   185A      0.614393   186A      0.622303  
     187A      0.624181   188A      0.629449   189A      0.636340  
     190A      0.640988   191A      0.650084   192A      0.653343  
     193A      0.664504   194A      0.679521   195A      0.687620  
     196A      0.691222   197A      0.692571   198A      0.695794  
     199A      0.702818   200A      0.706105   201A      0.712069  
     202A      0.719184   203A      0.721487   204A      0.723575  
     205A      0.730892   206A      0.738022   207A      0.739837  
     208A      0.744895   209A      0.758510   210A      0.762828  
     211A      0.765692   212A      0.767377   213A      0.772668  
     214A      0.775052   215A      0.784122   216A      0.794604  
     217A      0.802437   218A      0.807356   219A      0.819229  
     220A      0.821716   221A      0.827813   222A      0.841179  
     223A      0.842220   224A      0.844035   225A      0.849313  
     226A      0.861010   227A      0.863333   228A      0.869569  
     229A      0.875213   230A      0.876502   231A      0.879595  
     232A      0.883739   233A      0.889587   234A      0.894901  
     235A      0.900983   236A      0.904007   237A      0.907206  
     238A      0.910782   239A      0.914571   240A      0.922286  
     241A      0.926557   242A      0.929454   243A      0.938452  
     244A      0.944737   245A      0.948733   246A      0.953285  
     247A      0.959762   248A      0.963043   249A      0.969050  
     250A      0.971579   251A      0.977222   252A      0.978984  
     253A      0.982091   254A      0.983868   255A      0.992549  
     256A      1.000030   257A      1.000826   258A      1.006421  
     259A      1.009388   260A      1.015949   261A      1.017584  
     262A      1.023063   263A      1.028645   264A      1.035573  
     265A      1.037294   266A      1.039720   267A      1.043840  
     268A      1.046166   269A      1.048934   270A      1.056685  
     271A      1.058546   272A      1.065839   273A      1.068521  
     274A      1.081432   275A      1.082946   276A      1.084901  
     277A      1.089054   278A      1.094105   279A      1.098298  
     280A      1.099800   281A      1.103514   282A      1.106179  
     283A      1.108295   284A      1.114295   285A      1.117583  
     286A      1.123148   287A      1.127037   288A      1.139695  
     289A      1.150957   290A      1.158619   291A      1.160197  
     292A      1.166646   293A      1.170259   294A      1.174332  
     295A      1.177916   296A      1.178461   297A      1.183078  
     298A      1.183536   299A      1.190552   300A      1.195010  
     301A      1.198354   302A      1.206539   303A      1.212354  
     304A      1.215999   305A      1.217816   306A      1.221278  
     307A      1.225689   308A      1.236381   309A      1.244920  
     310A      1.246060   311A      1.266320   312A      1.271090  
     313A      1.277865   314A      1.282160   315A      1.286372  
     316A      1.290644   317A      1.294503   318A      1.298318  
     319A      1.301195   320A      1.308511   321A      1.314859  
     322A      1.318729   323A      1.321794   324A      1.331335  
     325A      1.333209   326A      1.341590   327A      1.352945  
     328A      1.368255   329A      1.370900   330A      1.372025  
     331A      1.383921   332A      1.388868   333A      1.399875  
     334A      1.410847   335A      1.415892   336A      1.424325  
     337A      1.443120   338A      1.443432   339A      1.453564  
     340A      1.457844   341A      1.463987   342A      1.473546  
     343A      1.485770   344A      1.489575   345A      1.505367  
[...]
	 R(9,10)          =         2.762738	       1.461978
	 R(11,13)         =         2.607731	       1.379952
	 R(13,22)         =         1.816164	       0.961073
	 B(1,3,11)        =         2.092743	     119.905314
	 B(1,3,16)        =         2.113516	     121.095521
	 B(1,9,2)         =         2.066711	     118.413799
	 B(1,9,10)        =         2.108524	     120.809550
	 B(2,4,11)        =         2.092640	     119.899463
	 B(2,4,17)        =         2.109717	     120.877872
	 B(2,9,10)        =         2.107947	     120.776460
	 B(3,1,9)         =         2.110662	     120.932042
	 B(3,1,14)        =         2.085378	     119.483350
	 B(3,11,4)        =         2.093255	     119.934688
	 B(3,11,13)       =         2.083232	     119.360424
	 B(4,2,9)         =         2.110272	     120.909681
	 B(4,2,15)        =         2.085461	     119.488097
	 B(4,11,13)       =         2.105789	     120.652848
	 B(5,7,12)        =         2.159216	     123.713948
	 B(5,7,20)        =         2.095296	     120.051591
	 B(5,10,6)        =         2.036607	     116.689004
	 B(5,10,9)        =         2.123452	     121.664860
	 B(6,8,12)        =         2.159073	     123.705754
	 B(6,8,21)        =         2.095371	     120.055886
	 B(6,10,9)        =         2.123126	     121.646135
	 B(7,5,10)        =         2.087957	     119.631108
	 B(7,5,18)        =         2.091651	     119.842800
	 B(7,12,8)        =         2.035367	     116.617928
	 B(8,6,10)        =         2.088150	     119.642195
	 B(8,6,19)        =         2.091783	     119.850330
	 B(9,1,14)        =         2.086636	     119.555437
	 B(9,2,15)        =         2.086834	     119.566799
	 B(10,5,18)       =         2.103244	     120.506989
	 B(10,6,19)       =         2.102935	     120.489299
	 B(11,3,16)       =         2.076922	     118.998871
	 B(11,4,17)       =         2.080696	     119.215109
	 B(11,13,22)      =         1.898910	     108.799545
	 B(12,7,20)       =         2.028646	     116.232862
	 B(12,8,21)       =         2.028714	     116.236724
	 D(1,3,11,4)      =        -0.003234	      -0.185311
	 D(1,3,11,13)     =        -3.099342	    -177.579236
	 D(1,9,2,4)       =         0.002075	       0.118863
	 D(1,9,2,15)      =         3.105690	     177.942935
	 D(1,9,10,5)      =        -0.626870	     -35.917005
	 D(1,9,10,6)      =         2.514664	     144.079623
	 D(2,4,11,3)      =         0.012577	       0.720619
	 D(2,4,11,13)     =         3.108088	     178.080347
	 D(2,9,1,3)       =         0.007392	       0.423524
	 D(2,9,1,14)      =         3.114519	     178.448773
	 D(2,9,10,5)      =         2.511898	     143.921139
	 D(2,9,10,6)      =        -0.629754	     -36.082233
	 D(3,1,9,10)      =        -3.136960	    -179.734585
	 D(3,11,4,17)     =        -3.111719	    -178.288381
	 D(3,11,13,22)    =        -1.834382	    -105.102367
	 D(4,2,9,10)      =        -3.136760	    -179.723083
	 D(4,11,3,16)     =        -3.141424	    -179.990308
	 D(4,11,13,22)    =         1.353029	      77.522876
	 D(5,7,12,8)      =        -0.000309	      -0.017715
	 D(5,10,6,8)      =        -0.000331	      -0.018967
	 D(5,10,6,19)     =         3.114156	     178.428013
	 D(6,8,12,7)      =        -0.000983	      -0.056296
	 D(6,10,5,7)      =        -0.000854	      -0.048948
	 D(6,10,5,18)     =         3.112948	     178.358768
	 D(7,5,10,9)      =         3.140682	     179.947840
	 D(7,12,8,21)     =        -3.134436	    -179.589950
	 D(8,6,10,9)      =         3.141318	     179.984245
	 D(8,12,7,20)     =        -3.133856	    -179.556700
	 D(9,1,3,11)      =        -0.006850	      -0.392464
	 D(9,1,3,16)      =         3.131267	     179.408361
	 D(9,2,4,11)      =        -0.012039	      -0.689793
	 D(9,2,4,17)      =         3.111964	     178.302428
	 D(9,10,5,18)     =        -0.028701	      -1.644445
	 D(9,10,6,19)     =        -0.027380	      -1.568775
	 D(10,5,7,12)     =         0.001240	       0.071039
	 D(10,5,7,20)     =         3.134494	     179.593283
	 D(10,6,8,12)     =         0.001319	       0.075577
	 D(10,6,8,21)     =         3.134477	     179.592292
	 D(10,9,1,14)     =        -0.029834	      -1.709335
	 D(10,9,2,15)     =        -0.033144	      -1.899010
	 D(11,3,1,14)     =        -3.114001	    -178.419120
	 D(11,4,2,15)     =        -3.115684	    -178.515559
	 D(12,7,5,18)     =        -3.112749	    -178.347375
	 D(12,8,6,19)     =        -3.113343	    -178.381442
	 D(13,11,3,16)    =         0.045654	       2.615767
	 D(13,11,4,17)    =        -0.016208	      -0.928653
	 D(14,1,3,16)     =         0.024115	       1.381705
	 D(15,2,4,17)     =         0.008319	       0.476662
	 D(18,5,7,20)     =         0.020505	       1.174869
	 D(19,6,8,21)     =         0.019814	       1.135273

	Current energy   :      -553.7205584867

	Energy change for the previous step:
		Projected    :        -0.0000004569
		Actual       :         0.0000004111

	Performing BFGS update.
	Previous computed or guess Hessian on step 1.
	Steps to be used in Hessian update: 6 5
	Adding user-defined constraint: Fragment 1; Coordinate 73:
		Value =    -1.834382; Fixed value    =    -1.832600
		Force =     0.001159; Force constant =     0.650000
	Removing off-diagonal coupling between coordinate 73 and others.
	Taking RFO optimization step.
	Going to follow RFO solution 1.
	Using RFO vector 1.
	Norm of target step-size    0.00300
	Projected energy change by RFO approximation:         0.0000001201

	Back-transformation to cartesian coordinates...
	Could not converge backtransformation.
	Using first guess instead.

	--- Internal Coordinate Step in ANG or DEG, aJ/ANG or AJ/DEG ---
	 ---------------------------------------------------------------------------
	   Coordinate                Previous        Force       Change         New 
	   ----------                --------       ------       ------       ------
	    1 R(1,3)          =      1.385509    -0.000053    -0.000020     1.385489
	    2 R(1,9)          =      1.394180    -0.000138    -0.000014     1.394166
	    3 R(1,14)         =      1.079898     0.000062     0.000009     1.079907
	    4 R(2,4)          =      1.385500    -0.000085    -0.000022     1.385478
	    5 R(2,9)          =      1.394288    -0.000142    -0.000017     1.394271
	    6 R(2,15)         =      1.079910     0.000061     0.000005     1.079915
	    7 R(3,11)         =      1.386490    -0.000048    -0.000007     1.386483
	    8 R(3,16)         =      1.078945     0.000006    -0.000004     1.078942
	    9 R(4,11)         =      1.387525    -0.000025    -0.000005     1.387521
	   10 R(4,17)         =      1.079352     0.000009    -0.000011     1.079341
	   11 R(5,7)          =      1.385616     0.000011     0.000003     1.385619
	   12 R(5,10)         =      1.391893    -0.000132    -0.000010     1.391883
	   13 R(5,18)         =      1.079547     0.000088     0.000016     1.079563
	   14 R(6,8)          =      1.385544     0.000012     0.000005     1.385549
	   15 R(6,10)         =      1.391918    -0.000120    -0.000005     1.391913
	   16 R(6,19)         =      1.079575     0.000090     0.000016     1.079591
	   17 R(7,12)         =      1.335081    -0.000093    -0.000013     1.335068
	   18 R(7,20)         =      1.081097    -0.000017    -0.000005     1.081092
	   19 R(8,12)         =      1.335066    -0.000094    -0.000015     1.335050
	   20 R(8,21)         =      1.081117    -0.000013    -0.000003     1.081114
	   21 R(9,10)         =      1.461978     0.000042    -0.000105     1.461874
	   22 R(11,13)        =      1.379952    -0.000007     0.000012     1.379964
	   23 R(13,22)        =      0.961073    -0.000029     0.000004     0.961076
	   24 B(1,3,11)       =    119.905314     0.000000    -0.000097   119.905217
	   25 B(1,3,16)       =    121.095521    -0.000000     0.001997   121.097518
	   26 B(1,9,2)        =    118.413799     0.000001    -0.000202   118.413597
	   27 B(1,9,10)       =    120.809550    -0.000000     0.000868   120.810418
	   28 B(2,4,11)       =    119.899463     0.000000     0.000064   119.899527
	   29 B(2,4,17)       =    120.877872     0.000000     0.001759   120.879632
	   30 B(2,9,10)       =    120.776460    -0.000001    -0.000702   120.775758
	   31 B(3,1,9)        =    120.932042    -0.000000     0.000303   120.932345
	   32 B(3,1,14)       =    119.483350    -0.000000    -0.002990   119.480360
	   33 B(3,11,4)       =    119.934688    -0.000000    -0.000583   119.934104
	   34 B(3,11,13)      =    119.360424     0.000000    -0.001115   119.359310
	   35 B(4,2,9)        =    120.909681    -0.000000     0.000278   120.909959
	   36 B(4,2,15)       =    119.488097    -0.000000    -0.002341   119.485756
	   37 B(4,11,13)      =    120.652848     0.000000     0.000747   120.653595
	   38 B(5,7,12)       =    123.713948    -0.000000     0.001438   123.715386
	   39 B(5,7,20)       =    120.051591     0.000000    -0.004282   120.047308
	   40 B(5,10,6)       =    116.689004     0.000001    -0.003117   116.685888
	   41 B(5,10,9)       =    121.664860    -0.000001     0.001169   121.666030
	   42 B(6,8,12)       =    123.705754    -0.000000     0.001011   123.706765
	   43 B(6,8,21)       =    120.055886     0.000000    -0.003959   120.051927
	   44 B(6,10,9)       =    121.646135    -0.000000     0.001947   121.648082
	   45 B(7,5,10)       =    119.631108    -0.000001     0.001417   119.632524
	   46 B(7,5,18)       =    119.842800     0.000001    -0.002449   119.840351
	   47 B(7,12,8)       =    116.617928     0.000001    -0.002399   116.615529
	   48 B(8,6,10)       =    119.642195    -0.000001     0.001683   119.643878
	   49 B(8,6,19)       =    119.850330     0.000001    -0.002674   119.847657
	   50 B(9,1,14)       =    119.555437     0.000001     0.002132   119.557568
	   51 B(9,2,15)       =    119.566799     0.000001     0.001974   119.568772
	   52 B(10,5,18)      =    120.506989    -0.000000     0.000949   120.507938
	   53 B(10,6,19)      =    120.489299    -0.000000     0.001013   120.490312
	   54 B(11,3,16)      =    118.998871     0.000000    -0.001850   118.997021
	   55 B(11,4,17)      =    119.215109    -0.000000    -0.001525   119.213584
	   56 B(11,13,22)     =    108.799545    -0.000001    -0.007385   108.792161
	   57 B(12,7,20)      =    116.232862    -0.000000     0.003307   116.236169
	   58 B(12,8,21)      =    116.236724    -0.000000     0.003452   116.240175
	   59 D(1,3,11,4)     =     -0.185311     0.000000    -0.000678    -0.185989
	   60 D(1,3,11,13)    =   -177.579236    -0.000000     0.022993  -177.556243
	   61 D(1,9,2,4)      =      0.118863     0.000000    -0.006498     0.112364
	   62 D(1,9,2,15)     =    177.942935     0.000000    -0.009283   177.933653
	   63 D(1,9,10,5)     =    -35.917005    -0.000000     0.000439   -35.916566
	   64 D(1,9,10,6)     =    144.079623     0.000000     0.010876   144.090499
	   65 D(2,4,11,3)     =      0.720619    -0.000000     0.013319     0.733938
	   66 D(2,4,11,13)    =    178.080347     0.000000    -0.010713   178.069634
	   67 D(2,9,1,3)      =      0.423524     0.000000     0.019312     0.442836
	   68 D(2,9,1,14)     =    178.448773    -0.000000     0.000566   178.449339
	   69 D(2,9,10,5)     =    143.921139    -0.000000    -0.013866   143.907273
	   70 D(2,9,10,6)     =    -36.082233    -0.000000    -0.003429   -36.085662
	   71 D(3,1,9,10)     =   -179.734585     0.000000     0.005337  -179.729247
	   72 D(3,11,4,17)    =   -178.288381    -0.000000    -0.006463  -178.294844
	   73 D(3,11,13,22)   =   -105.102367     0.000002     0.014814  -105.087553
	   74 D(4,2,9,10)     =   -179.723083     0.000000     0.007468  -179.715615
	   75 D(4,11,3,16)    =   -179.990308     0.000000    -0.017960  -180.008268
	   76 D(4,11,13,22)   =     77.522876     0.000001     0.038696    77.561571
	   77 D(5,7,12,8)     =     -0.017715     0.000000     0.014292    -0.003423
	   78 D(5,10,6,8)     =     -0.018967     0.000000     0.014593    -0.004374
	   79 D(5,10,6,19)    =    178.428013     0.000000     0.015497   178.443510
	   80 D(6,8,12,7)     =     -0.056296     0.000000     0.011992    -0.044303
	   81 D(6,10,5,7)     =     -0.048948     0.000000     0.009527    -0.039421
	   82 D(6,10,5,18)    =    178.358768     0.000000     0.006012   178.364780
	   83 D(7,5,10,9)     =    179.947840     0.000000     0.019471   179.967310
	   84 D(7,12,8,21)    =   -179.589950    -0.000000    -0.066288  -179.656238
	   85 D(8,6,10,9)     =    179.984245     0.000000     0.004651   179.988896
	   86 D(8,12,7,20)    =   -179.556700    -0.000000    -0.057975  -179.614675
	   87 D(9,1,3,11)     =     -0.392464    -0.000000    -0.015883    -0.408347
	   88 D(9,1,3,16)     =    179.408361    -0.000000     0.001761   179.410122
	   89 D(9,2,4,11)     =     -0.689793     0.000000    -0.009677    -0.699470
	   90 D(9,2,4,17)     =    178.302428     0.000000     0.010408   178.312836
	   91 D(9,10,5,18)    =     -1.644445     0.000000     0.015956    -1.628489
	   92 D(9,10,6,19)    =     -1.568775     0.000000     0.005555    -1.563219
	   93 D(10,5,7,12)    =      0.071039    -0.000000    -0.025307     0.045732
	   94 D(10,5,7,20)    =    179.593283     0.000000     0.049614   179.642897
	   95 D(10,6,8,12)    =      0.075577    -0.000000    -0.026760     0.048817
	   96 D(10,6,8,21)    =    179.592292     0.000000     0.054393   179.646684
	   97 D(10,9,1,14)    =     -1.709335    -0.000000    -0.013409    -1.722744
	   98 D(10,9,2,15)    =     -1.899010     0.000000     0.004684    -1.894326
	   99 D(11,3,1,14)    =   -178.419120    -0.000000     0.002749  -178.416371
	  100 D(11,4,2,15)    =   -178.515559     0.000000    -0.006988  -178.522546
	  101 D(12,7,5,18)    =   -178.347375    -0.000000    -0.021871  -178.369246
	  102 D(12,8,6,19)    =   -178.381442    -0.000000    -0.027715  -178.409157
	  103 D(13,11,3,16)   =      2.615767    -0.000000     0.005712     2.621479
	  104 D(13,11,4,17)   =     -0.928653     0.000000    -0.030495    -0.959149
	  105 D(14,1,3,16)    =      1.381705     0.000000     0.020393     1.402097
	  106 D(15,2,4,17)    =      0.476662     0.000000     0.013097     0.489759
	  107 D(18,5,7,20)    =      1.174869     0.000000     0.053050     1.227919
	  108 D(19,6,8,21)    =      1.135273     0.000000     0.053437     1.188710
	 ---------------------------------------------------------------------------
	Successfully symmetrized geometry.
	 Forces used to impose fixed constraints are not included.
	  Forces zeroed: 73 

  ==> Convergence Check <==

  Measures of convergence in internal coordinates in au.
  Criteria marked as inactive (o), active & met (*), and active & unmet ( ).
  ---------------------------------------------------------------------------------------------
   Step     Total Energy     Delta E     MAX Force     RMS Force      MAX Disp      RMS Disp   
  ---------------------------------------------------------------------------------------------
    Convergence Criteria    1.00e-06 *    3.00e-04 *             o    1.20e-03 *             o
  ---------------------------------------------------------------------------------------------
      7    -553.72055849    4.11e-07 *    6.71e-05 *    9.92e-06 o    1.16e-03 *    2.88e-04 o  ~
  ---------------------------------------------------------------------------------------------


  **** Optimization is complete! (in 7 steps) ****

  ==> Optimization Summary <==

  Measures of convergence in internal coordinates in au.
  --------------------------------------------------------------------------------------------------------------- ~
   Step         Total Energy             Delta E       MAX Force       RMS Force        MAX Disp        RMS Disp  ~
  --------------------------------------------------------------------------------------------------------------- ~
      1    -553.716872049848   -553.716872049848      0.01886986      0.00464743      0.03606340      0.00961525  ~
      2    -553.719818996755     -0.002946946907      0.00539706      0.00140153      0.02431636      0.00961067  ~
      3    -553.720420083281     -0.000601086526      0.00146286      0.00032523      0.04113177      0.00962559  ~
      4    -553.720534721749     -0.000114638468      0.00052112      0.00018137      0.02524666      0.00502347  ~
      5    -553.720555640296     -0.000020918548      0.00037876      0.00007769      0.01003869      0.00208187  ~
      6    -553.720558897784     -0.000003257488      0.00022290      0.00003228      0.00130039      0.00038735  ~
      7    -553.720558486669      0.000000411115      0.00008671      0.00001296      0.00115695      0.00028844  ~
  --------------------------------------------------------------------------------------------------------------- ~

	Writing optimization data to binary file.
	Final energy is   -553.7205584866695
	Final (previous) structure:
	Cartesian Geometry (in Angstrom)
	    C    -1.2396405735   0.7693294686  -0.5601701053
	    C    -0.3120558597   0.0575306970   1.5304395474
	    C    -2.3071539697   1.3483230036   0.1067764987
	    C    -1.3828413099   0.6249974758   2.2020135193
	    C     0.7452905929  -1.1023132413  -1.8034259375
	    C     2.1899610716  -0.4730698441  -0.0336412825
	    C     1.8440305176  -1.6613694566  -2.4360064963
	    C     3.2288787534  -1.0592669862  -0.7384500946
	    C    -0.2243077709   0.1195767790   0.1402994554
	    C     0.9038494074  -0.4854506119  -0.5658050758
	    C    -2.3784459199   1.2780954627   1.4896503367
	    N     3.0778288771  -1.6501961481  -1.9260472637
	    O    -3.4715984683   1.8145289780   2.1388988630
	    H    -1.1776119310   0.8502354986  -1.6352452318
	    H     0.4466527398  -0.4700160254   2.0892431457
	    H    -3.0894817418   1.8599898055  -0.4320031581
	    H    -1.4641616337   0.5531143327   3.2758944690
	    H    -0.2302002026  -1.1705079011  -2.2607975164
	    H     2.3873038756   0.0111491732   0.9108533647
	    H     1.7274498061  -2.1479416288  -3.3943528508
	    H     4.2316087611  -1.0476990208  -0.3344538585
	    H    -3.2105180294   2.6412180584   2.5537272290
	Saving final (previous) structure.
			--------------------------
			 OPTKING Finished Execution 
			--------------------------

    Final optimized geometry and variables:
    Molecular point group: c1
    Full point group: C1

    Geometry (in Angstrom), charge = 0, multiplicity = 1:

    C           -1.239640573468     0.769329468621    -0.560170105252
    C           -0.312055859676     0.057530697030     1.530439547383
    C           -2.307153969732     1.348323003645     0.106776498709
    C           -1.382841309878     0.624997475803     2.202013519275
    C            0.745290592891    -1.102313241348    -1.803425937535
    C            2.189961071642    -0.473069844064    -0.033641282480
    C            1.844030517598    -1.661369456586    -2.436006496272
    C            3.228878753353    -1.059266986210    -0.738450094610
    C           -0.224307770933     0.119576778999     0.140299455375
    C            0.903849407404    -0.485450611879    -0.565805075833
    C           -2.378445919924     1.278095462694     1.489650336712
    N            3.077828877063    -1.650196148102    -1.926047263689
    O           -3.471598468295     1.814528978039     2.138898863006
    H           -1.177611930984     0.850235498626    -1.635245231814
    H            0.446652739838    -0.470016025367     2.089243145679
    H           -3.089481741791     1.859989805483    -0.432003158145
    H           -1.464161633681     0.553114332714     3.275894468988
    H           -0.230200202632    -1.170507901131    -2.260797516367
    H            2.387303875624     0.011149173163     0.910853364689
    H            1.727449806123    -2.147941628802    -3.394352850794
    H            4.231608761137    -1.047699020773    -0.334453858483
    H           -3.210518029443     2.641218058395     2.553727229021

	Cleaning optimization helper files.

*** Psi4 exiting successfully. Buy a developer a beer!
