
    -----------------------------------------------------------------------
          Psi4: An Open-Source Ab Initio Electronic Structure Package
                               Psi4 1.1 release

                         Git: Rev {HEAD} add49b9 


    R. M. Parrish, L. A. Burns, D. G. A. Smith, A. C. Simmonett,
    A. E. DePrince III, E. G. Hohenstein, U. Bozkaya, A. Yu. Sokolov,
    R. Di Remigio, R. M. Richard, J. F. Gonthier, A. M. James,
    H. R. McAlexander, A. Kumar, M. Saitow, X. Wang, B. P. Pritchard,
    P. Verma, H. F. Schaefer III, K. Patkowski, R. A. King, E. F. Valeev,
    F. A. Evangelista, J. M. Turney, T. D. Crawford, and C. D. Sherrill,
    J. Chem. Theory Comput. in press (2017).
    (doi: 10.1021/acs.jctc.7b00174)

    -----------------------------------------------------------------------


    Psi4 started on: Saturday, 11 November 2017 06:12PM

    Process ID:  16564
    PSIDATADIR: /cbio/jclab/home/chayas/anaconda/envs/py35/share/psi4
    Memory:     500.0 MiB
    Threads:    8
    
  ==> Input File <==

--------------------------------------------------------------------------

memory 5 Gb

molecule phepyrF {
  symmetry C1
  0 1 
  C      1.885   -1.036   -0.112
  C      0.807   -0.463   0.561
  C      2.921   -1.631   0.608
  C      0.764   -0.484   1.955
  C      3.672   -3.119   3.809
  C      5.278   -2.018   2.397
  C      4.739   -3.687   4.487
  C      6.272   -2.634   3.138
  C      2.878   -1.652   2.002
  C      3.955   -2.270   2.745
  C      1.800   -1.079   2.676
  N      6.036   -3.465   4.178
  F      1.744   -1.089   4.016
  H      1.918   -1.020   -1.198
  H      0.000   -0.000   -0.000
  H      3.755   -2.073   0.068
  H      -0.076   -0.038   2.480
  H      2.653   -3.341   4.110
  H      5.537   -1.360   1.573
  H      4.571   -4.358   5.323
  H      7.320   -2.469   2.908
  units Angstrom
}

dih_string = "3 9 10 5 225"
set optking fixed_dihedral = $dih_string

optimize('MP2/aug-cc-PVTZ')
--------------------------------------------------------------------------

  Memory set to   4.657 GiB by Python driver.
gradient() will perform analytic gradient computation.

*** tstart() called on gpu-1-10.local
*** at Sat Nov 11 18:12:59 2017

    SCF Algorithm Type (re)set to DF.

*** tstart() called on gpu-1-10.local
*** at Sat Nov 11 18:12:59 2017

   => Loading Basis Set <=

    Name: AUG-CC-PVTZ
    Role: ORBITAL
    Keyword: BASIS
    atoms 1-11  entry C          line   221 file /cbio/jclab/home/chayas/anaconda/envs/py35/share/psi4/basis/aug-cc-pvtz.gbs 
    atoms 12    entry N          line   267 file /cbio/jclab/home/chayas/anaconda/envs/py35/share/psi4/basis/aug-cc-pvtz.gbs 
    atoms 13    entry F          line   359 file /cbio/jclab/home/chayas/anaconda/envs/py35/share/psi4/basis/aug-cc-pvtz.gbs 
    atoms 14-21 entry H          line    34 file /cbio/jclab/home/chayas/anaconda/envs/py35/share/psi4/basis/aug-cc-pvtz.gbs 


         ---------------------------------------------------------
                                   SCF
            by Justin Turney, Rob Parrish, and Andy Simmonett
                              RHF Reference
                        8 Threads,   4768 MiB Core
         ---------------------------------------------------------

  ==> Geometry <==

    Molecular point group: c1
    Full point group: C1

    Geometry (in Angstrom), charge = 0, multiplicity = 1:

       Center              X                  Y                   Z               Mass       
    ------------   -----------------  -----------------  -----------------  -----------------
           C         -1.369209130354     0.841106008381    -2.662372545489    12.000000000000
           C         -2.447209130354     1.414106008381    -1.989372545489    12.000000000000
           C         -0.333209130354     0.246106008381    -1.942372545489    12.000000000000
           C         -2.490209130354     1.393106008381    -0.595372545489    12.000000000000
           C          0.417790869646    -1.241893991619     1.258627454511    12.000000000000
           C          2.023790869646    -0.140893991619    -0.153372545489    12.000000000000
           C          1.484790869646    -1.809893991619     1.936627454511    12.000000000000
           C          3.017790869646    -0.756893991619     0.587627454511    12.000000000000
           C         -0.376209130354     0.225106008381    -0.548372545489    12.000000000000
           C          0.700790869646    -0.392893991619     0.194627454511    12.000000000000
           C         -1.454209130354     0.798106008381     0.125627454511    12.000000000000
           N          2.781790869646    -1.587893991619     1.627627454511    14.003074004780
           F         -1.510209130354     0.788106008381     1.465627454511    18.998403224000
           H         -1.336209130354     0.857106008381    -3.748372545489     1.007825032070
           H         -3.254209130354     1.877106008381    -2.550372545489     1.007825032070
           H          0.500790869646    -0.195893991619    -2.482372545489     1.007825032070
           H         -3.330209130354     1.839106008381    -0.070372545489     1.007825032070
           H         -0.601209130354    -1.463893991619     1.559627454511     1.007825032070
           H          2.282790869646     0.517106008381    -0.977372545489     1.007825032070
           H          1.316790869646    -2.480893991619     2.772627454511     1.007825032070
           H          4.065790869646    -0.591893991619     0.357627454511     1.007825032070

  Running in c1 symmetry.

  Rotational constants: A =      0.06383  B =      0.01823  C =      0.01501 [cm^-1]
  Rotational constants: A =   1913.70665  B =    546.57041  C =    449.95888 [MHz]
  Nuclear repulsion =  716.547198906315657

  Charge       = 0
  Multiplicity = 1
  Electrons    = 90
  Nalpha       = 45
  Nbeta        = 45

  ==> Algorithm <==

  SCF Algorithm Type is DF.
  DIIS enabled.
  MOM disabled.
  Fractional occupation disabled.
  Guess Type is SAD.
  Energy threshold   = 1.00e-10
  Density threshold  = 1.00e-10
  Integral threshold = 0.00e+00

  ==> Primary Basis <==

  Basis Set: AUG-CC-PVTZ
    Blend: AUG-CC-PVTZ
    Number of shells: 254
    Number of basis function: 782
    Number of Cartesian functions: 915
    Spherical Harmonics?: true
    Max angular momentum: 3

   => Loading Basis Set <=

    Name: (AUG-CC-PVTZ AUX)
    Role: JKFIT
    Keyword: DF_BASIS_SCF
    atoms 1-11  entry C          line   161 file /cbio/jclab/home/chayas/anaconda/envs/py35/share/psi4/basis/aug-cc-pvtz-jkfit.gbs 
    atoms 12    entry N          line   223 file /cbio/jclab/home/chayas/anaconda/envs/py35/share/psi4/basis/aug-cc-pvtz-jkfit.gbs 
    atoms 13    entry F          line   347 file /cbio/jclab/home/chayas/anaconda/envs/py35/share/psi4/basis/aug-cc-pvtz-jkfit.gbs 
    atoms 14-21 entry H          line    69 file /cbio/jclab/home/chayas/anaconda/envs/py35/share/psi4/basis/aug-cc-pvtz-jkfit.gbs 

  ==> Pre-Iterations <==

   -------------------------------------------------------
    Irrep   Nso     Nmo     Nalpha   Nbeta   Ndocc  Nsocc
   -------------------------------------------------------
     A        782     782       0       0       0       0
   -------------------------------------------------------
    Total     782     782      45      45      45       0
   -------------------------------------------------------

  ==> Integral Setup <==

  ==> DFJK: Density-Fitted J/K Matrices <==

    J tasked:                  Yes
    K tasked:                  Yes
    wK tasked:                  No
    OpenMP threads:              8
    Integrals threads:           8
    Memory (MB):              3576
    Algorithm:                Disk
    Integral Cache:           NONE
    Schwarz Cutoff:          1E-12
    Fitting Condition:       1E-12

   => Auxiliary Basis Set <=

  Basis Set: (AUG-CC-PVTZ AUX)
    Blend: AUG-CC-PVTZ-JKFIT
    Number of shells: 502
    Number of basis function: 1720
    Number of Cartesian functions: 2143
    Spherical Harmonics?: true
    Max angular momentum: 4

  Minimum eigenvalue in the overlap matrix is 6.6475944354E-07.
  Using Symmetric Orthogonalization.

  SCF Guess: Superposition of Atomic Densities via on-the-fly atomic UHF.

  ==> Iterations <==

                           Total Energy        Delta E     RMS |[F,P]|

   @DF-RHF iter   0:  -580.92105882604676   -5.80921e+02   1.98738e-02 
   @DF-RHF iter   1:  -574.93772407409256    5.98333e+00   1.90977e-03 
   @DF-RHF iter   2:  -575.22628892606872   -2.88565e-01   8.21441e-04 DIIS
   @DF-RHF iter   3:  -575.26824453366385   -4.19556e-02   3.17830e-04 DIIS
   @DF-RHF iter   4:  -575.28184732283125   -1.36028e-02   1.21753e-04 DIIS
   @DF-RHF iter   5:  -575.28316490685279   -1.31758e-03   4.66149e-05 DIIS
   @DF-RHF iter   6:  -575.28342783371500   -2.62927e-04   1.68234e-05 DIIS
   @DF-RHF iter   7:  -575.28346682404174   -3.89903e-05   5.58144e-06 DIIS
   @DF-RHF iter   8:  -575.28346992654326   -3.10250e-06   1.76773e-06 DIIS
   @DF-RHF iter   9:  -575.28347042991152   -5.03368e-07   6.48715e-07 DIIS
   @DF-RHF iter  10:  -575.28347056943176   -1.39520e-07   4.59541e-07 DIIS
   @DF-RHF iter  11:  -575.28347061648765   -4.70559e-08   1.32701e-07 DIIS
   @DF-RHF iter  12:  -575.28347062408329   -7.59565e-09   6.40762e-08 DIIS
   @DF-RHF iter  13:  -575.28347062469675   -6.13454e-10   1.34526e-08 DIIS
   @DF-RHF iter  14:  -575.28347062476576   -6.90079e-11   6.58123e-09 DIIS
   @DF-RHF iter  15:  -575.28347062476462    1.13687e-12   2.27844e-09 DIIS
   @DF-RHF iter  16:  -575.28347062477542   -1.08002e-11   1.25276e-09 DIIS
   @DF-RHF iter  17:  -575.28347062476666    8.75389e-12   9.37339e-10 DIIS
   @DF-RHF iter  18:  -575.28347062476701   -3.41061e-13   3.59540e-10 DIIS
   @DF-RHF iter  19:  -575.28347062476996   -2.95586e-12   1.44762e-10 DIIS
   @DF-RHF iter  20:  -575.28347062477724   -7.27596e-12   8.14554e-11 DIIS

  ==> Post-Iterations <==

    Orbital Energies (a.u.)
    -----------------------

    Doubly Occupied:                                                      

       1A    -26.323827     2A    -15.565716     3A    -11.342138  
       4A    -11.275240     5A    -11.274196     6A    -11.266693  
       7A    -11.261608     8A    -11.258848     9A    -11.258615  
      10A    -11.255936    11A    -11.250810    12A    -11.241049  
      13A    -11.238660    14A     -1.643236    15A     -1.250993  
      16A     -1.184029    17A     -1.114030    18A     -1.038556  
      19A     -1.032494    20A     -1.025863    21A     -0.892431  
      22A     -0.872555    23A     -0.845337    24A     -0.823474  
      25A     -0.757391    26A     -0.722455    27A     -0.717700  
      28A     -0.709488    29A     -0.669496    30A     -0.661612  
      31A     -0.652517    32A     -0.625766    33A     -0.611296  
      34A     -0.599176    35A     -0.587985    36A     -0.548773  
      37A     -0.538429    38A     -0.523202    39A     -0.515756  
      40A     -0.508377    41A     -0.419860    42A     -0.402812  
      43A     -0.353157    44A     -0.349860    45A     -0.332399  

    Virtual:                                                              

      46A      0.023611    47A      0.029815    48A      0.033717  
      49A      0.038050    50A      0.043752    51A      0.046788  
      52A      0.054112    53A      0.055758    54A      0.069717  
      55A      0.079050    56A      0.084069    57A      0.086919  
      58A      0.092186    59A      0.094278    60A      0.099067  
      61A      0.103215    62A      0.106914    63A      0.108773  
      64A      0.112822    65A      0.114374    66A      0.115816  
      67A      0.119809    68A      0.120695    69A      0.128871  
      70A      0.130177    71A      0.133130    72A      0.135597  
      73A      0.137280    74A      0.143347    75A      0.145503  
      76A      0.149507    77A      0.150930    78A      0.151541  
      79A      0.159137    80A      0.163709    81A      0.169694  
      82A      0.175747    83A      0.178561    84A      0.181092  
      85A      0.187882    86A      0.199125    87A      0.203329  
      88A      0.218035    89A      0.218734    90A      0.224911  
      91A      0.231016    92A      0.233204    93A      0.234673  
      94A      0.237303    95A      0.243247    96A      0.247310  
      97A      0.249044    98A      0.253363    99A      0.258566  
     100A      0.264816   101A      0.268065   102A      0.270356  
     103A      0.272946   104A      0.281940   105A      0.283595  
     106A      0.287910   107A      0.291130   108A      0.296784  
     109A      0.300412   110A      0.305183   111A      0.310225  
     112A      0.313583   113A      0.317689   114A      0.319263  
     115A      0.321465   116A      0.325285   117A      0.329857  
     118A      0.336755   119A      0.338731   120A      0.344726  
     121A      0.347129   122A      0.356524   123A      0.359091  
     124A      0.366591   125A      0.372590   126A      0.378674  
     127A      0.379147   128A      0.385979   129A      0.392623  
     130A      0.397718   131A      0.406469   132A      0.410115  
     133A      0.416008   134A      0.421379   135A      0.425382  
     136A      0.429838   137A      0.434910   138A      0.436405  
     139A      0.437671   140A      0.442021   141A      0.446708  
     142A      0.450048   143A      0.458349   144A      0.465972  
     145A      0.467989   146A      0.470061   147A      0.475640  
     148A      0.476971   149A      0.478552   150A      0.481301  
     151A      0.485336   152A      0.490698   153A      0.491283  
     154A      0.496333   155A      0.497613   156A      0.502142  
     157A      0.507747   158A      0.510447   159A      0.513817  
     160A      0.514503   161A      0.520619   162A      0.521379  
     163A      0.526881   164A      0.527914   165A      0.533050  
     166A      0.537315   167A      0.540059   168A      0.543789  
     169A      0.548930   170A      0.549798   171A      0.557347  
     172A      0.560765   173A      0.571132   174A      0.576467  
     175A      0.580057   176A      0.586091   177A      0.590940  
     178A      0.595552   179A      0.601461   180A      0.610161  
     181A      0.611765   182A      0.626431   183A      0.631751  
     184A      0.635849   185A      0.641347   186A      0.652512  
     187A      0.655199   188A      0.667241   189A      0.676868  
     190A      0.678553   191A      0.683952   192A      0.687606  
     193A      0.694857   194A      0.702309   195A      0.704325  
     196A      0.708922   197A      0.712733   198A      0.721166  
     199A      0.724752   200A      0.730110   201A      0.734004  
     202A      0.743308   203A      0.747767   204A      0.749259  
     205A      0.753189   206A      0.762960   207A      0.766082  
     208A      0.768165   209A      0.778237   210A      0.792769  
     211A      0.795131   212A      0.802022   213A      0.805124  
     214A      0.812698   215A      0.824009   216A      0.835076  
     217A      0.843758   218A      0.850875   219A      0.852436  
     220A      0.856711   221A      0.859536   222A      0.861520  
     223A      0.871643   224A      0.875532   225A      0.877582  
     226A      0.879919   227A      0.882926   228A      0.888546  
     229A      0.891425   230A      0.899427   231A      0.902404  
     232A      0.908452   233A      0.915286   234A      0.921343  
     235A      0.923210   236A      0.932087   237A      0.935476  
     238A      0.937872   239A      0.942836   240A      0.951394  
     241A      0.954097   242A      0.961781   243A      0.965030  
     244A      0.968669   245A      0.977107   246A      0.979734  
     247A      0.982838   248A      0.985348   249A      0.993362  
     250A      1.002149   251A      1.004528   252A      1.008426  
     253A      1.012983   254A      1.013861   255A      1.021983  
     256A      1.026822   257A      1.032303   258A      1.038364  
     259A      1.042493   260A      1.053609   261A      1.055117  
     262A      1.063643   263A      1.066015   264A      1.069541  
     265A      1.074101   266A      1.075403   267A      1.078869  
     268A      1.080412   269A      1.085081   270A      1.089686  
     271A      1.094044   272A      1.108433   273A      1.109974  
     274A      1.112763   275A      1.118180   276A      1.122628  
     277A      1.125633   278A      1.134138   279A      1.138724  
     280A      1.144564   281A      1.147470   282A      1.151785  
     283A      1.160845   284A      1.163736   285A      1.171094  
     286A      1.179321   287A      1.180900   288A      1.184612  
     289A      1.190402   290A      1.199067   291A      1.200697  
     292A      1.203636   293A      1.208132   294A      1.211306  
     295A      1.224337   296A      1.230389   297A      1.234675  
     298A      1.236024   299A      1.242546   300A      1.247038  
     301A      1.253956   302A      1.259707   303A      1.269491  
     304A      1.273989   305A      1.283892   306A      1.285052  
     307A      1.290955   308A      1.294648   309A      1.306703  
     310A      1.317360   311A      1.319210   312A      1.331769  
     313A      1.334009   314A      1.347093   315A      1.349055  
     316A      1.358125   317A      1.368280   318A      1.372661  
     319A      1.378507   320A      1.382413   321A      1.392136  
     322A      1.395720   323A      1.404090   324A      1.408736  
     325A      1.421906   326A      1.425357   327A      1.440312  
     328A      1.441701   329A      1.444863   330A      1.462592  
     331A      1.474907   332A      1.479914   333A      1.489495  
     334A      1.498193   335A      1.501740   336A      1.506316  
     337A      1.509268   338A      1.527681   339A      1.540180  
     340A      1.542774   341A      1.549742   342A      1.567596  
     343A      1.568919   344A      1.582014   345A      1.589264  
     346A      1.593184   347A      1.602656   348A      1.608991  
     349A      1.623732   350A      1.628282   351A      1.644961  
     352A      1.648997   353A      1.651521   354A      1.660409  
     355A      1.670741   356A      1.676870   357A      1.680182  
     358A      1.688803   359A      1.701277   360A      1.707489  
     361A      1.714582   362A      1.721580   363A      1.723378  
     364A      1.725824   365A      1.738228   366A      1.740550  
     367A      1.755968   368A      1.757390   369A      1.767660  
     370A      1.779070   371A      1.783672   372A      1.789984  
     373A      1.805397   374A      1.807998   375A      1.811480  
     376A      1.822905   377A      1.824655   378A      1.842329  
     379A      1.855707   380A      1.860619   381A      1.869626  
     382A      1.877682   383A      1.887147   384A      1.892465  
     385A      1.903627   386A      1.914363   387A      1.919541  
     388A      1.923203   389A      1.935830   390A      1.941674  
     391A      1.954409   392A      1.956975   393A      1.964676  
     394A      1.969617   395A      1.975750   396A      1.993141  
     397A      1.999398   398A      2.003320   399A      2.006652  
     400A      2.012796   401A      2.018305   402A      2.026349  
     403A      2.034871   404A      2.048582   405A      2.051016  
     406A      2.054171   407A      2.062343   408A      2.070889  
     409A      2.080927   410A      2.092603   411A      2.093747  
     412A      2.103101   413A      2.118169   414A      2.123068  
     415A      2.127931   416A      2.129771   417A      2.144521  
     418A      2.147848   419A      2.159058   420A      2.168106  
     421A      2.175429   422A      2.194528   423A      2.198047  
     424A      2.204389   425A      2.208425   426A      2.225255  
     427A      2.239364   428A      2.247635   429A      2.252071  
     430A      2.261295   431A      2.277970   432A      2.280623  
     433A      2.285049   434A      2.293366   435A      2.314769  
     436A      2.318361   437A      2.329333   438A      2.337387  
     439A      2.341314   440A      2.352552   441A      2.361022  
     442A      2.363337   443A      2.377783   444A      2.393593  
     445A      2.403800   446A      2.411193   447A      2.428134  
     448A      2.440848   449A      2.468760   450A      2.472679  
     451A      2.476651   452A      2.507672   453A      2.517680  
     454A      2.525607   455A      2.533052   456A      2.545657  
     457A      2.556264   458A      2.566451   459A      2.577311  
     460A      2.590191   461A      2.599255   462A      2.611738  
     463A      2.635249   464A      2.653099   465A      2.663121  
     466A      2.693181   467A      2.721654   468A      2.727207  
     469A      2.753951   470A      2.766259   471A      2.768657  
     472A      2.774602   473A      2.788481   474A      2.804849  
     475A      2.832027   476A      2.846194   477A      2.874398  
     478A      2.879604   479A      2.927258   480A      2.963084  
     481A      2.997119   482A      3.012885   483A      3.043313  
     484A      3.054535   485A      3.063044   486A      3.078855  
     487A      3.110075   488A      3.128884   489A      3.155634  
     490A      3.157003   491A      3.164345   492A      3.171098  
     493A      3.180493   494A      3.193293   495A      3.199633  
     496A      3.228659   497A      3.235967   498A      3.261339  
     499A      3.276277   500A      3.289911   501A      3.305021  
     502A      3.309949   503A      3.325975   504A      3.332639  
     505A      3.343668   506A      3.357837   507A      3.373199  
     508A      3.378424   509A      3.379762   510A      3.397467  
     511A      3.413717   512A      3.422970   513A      3.425506  
     514A      3.435825   515A      3.437872   516A      3.444961  
     517A      3.466329   518A      3.469618   519A      3.479672  
     520A      3.489700   521A      3.491806   522A      3.499212  
     523A      3.509660   524A      3.521629   525A      3.528292  
     526A      3.541395   527A      3.547008   528A      3.555137  
     529A      3.559435   530A      3.570073   531A      3.572360  
     532A      3.584817   533A      3.592031   534A      3.601636  
     535A      3.615283   536A      3.616235   537A      3.630031  
     538A      3.638704   539A      3.655315   540A      3.657157  
     541A      3.666503   542A      3.669757   543A      3.680226  
     544A      3.696270   545A      3.703235   546A      3.717088  
     547A      3.722513   548A      3.734751   549A      3.747566  
     550A      3.754656   551A      3.762852   552A      3.775060  
     553A      3.777406   554A      3.790696   555A      3.793368  
     556A      3.814313   557A      3.818729   558A      3.828877  
     559A      3.835046   560A      3.842223   561A      3.850736  
     562A      3.853021   563A      3.863124   564A      3.873326  
     565A      3.876242   566A      3.880655   567A      3.885537  
     568A      3.909420   569A      3.915716   570A      3.927728  
     571A      3.930931   572A      3.939952   573A      3.949498  
     574A      3.956922   575A      3.968206   576A      3.975739  
     577A      3.986862   578A      3.996409   579A      4.005851  
     580A      4.009286   581A      4.013466   582A      4.016052  
     583A      4.029028   584A      4.046999   585A      4.049838  
     586A      4.053344   587A      4.057693   588A      4.079680  
     589A      4.081397   590A      4.096624   591A      4.102834  
     592A      4.107186   593A      4.125171   594A      4.131656  
     595A      4.139740   596A      4.140358   597A      4.156507  
     598A      4.169635   599A      4.175312   600A      4.186404  
     601A      4.202743   602A      4.215582   603A      4.223543  
     604A      4.224678   605A      4.249108   606A      4.258600  
     607A      4.267570   608A      4.269289   609A      4.289237  
     610A      4.311680   611A      4.316129   612A      4.320169  
     613A      4.324006   614A      4.335068   615A      4.346729  
     616A      4.353702   617A      4.356223   618A      4.364311  
     619A      4.369389   620A      4.379593   621A      4.388012  
     622A      4.395989   623A      4.408295   624A      4.412016  
     625A      4.418236   626A      4.432538   627A      4.439068  
     628A      4.458976   629A      4.462451   630A      4.483448  
     631A      4.486231   632A      4.496233   633A      4.509924  
     634A      4.516065   635A      4.524001   636A      4.544212  
     637A      4.562568   638A      4.587930   639A      4.594936  
     640A      4.596583   641A      4.609041   642A      4.632836  
     643A      4.655450   644A      4.675316   645A      4.681157  
     646A      4.697005   647A      4.706140   648A      4.713205  
     649A      4.716257   650A      4.743728   651A      4.751736  
     652A      4.754606   653A      4.778713   654A      4.787704  
     655A      4.808989   656A      4.823085   657A      4.840907  
     658A      4.862260   659A      4.881320   660A      4.891467  
     661A      4.900471   662A      4.939079   663A      4.949436  
     664A      4.970353   665A      4.974081   666A      4.976837  
     667A      4.990701   668A      4.995944   669A      5.010599  
     670A      5.022895   671A      5.031817   672A      5.042856  
     673A      5.049080   674A      5.063122   675A      5.080519  
     676A      5.085769   677A      5.103923   678A      5.117329  
     679A      5.129421   680A      5.135581   681A      5.157938  
     682A      5.160285   683A      5.169427   684A      5.171436  
     685A      5.190292   686A      5.200719   687A      5.206258  
     688A      5.215833   689A      5.226538   690A      5.238943  
     691A      5.260845   692A      5.280916   693A      5.304543  
     694A      5.314653   695A      5.337355   696A      5.343532  
     697A      5.353895   698A      5.369467   699A      5.380400  
     700A      5.392728   701A      5.424656   702A      5.447294  
     703A      5.454526   704A      5.463617   705A      5.489434  
     706A      5.526239   707A      5.541218   708A      5.554772  
     709A      5.571830   710A      5.580233   711A      5.641870  
     712A      5.651340   713A      5.674208   714A      5.689368  
     715A      5.703258   716A      5.754876   717A      5.764516  
     718A      5.797404   719A      5.809311   720A      5.813391  
     721A      5.847486   722A      5.866212   723A      5.888082  
     724A      5.909652   725A      5.954598   726A      6.002312  
     727A      6.044763   728A      6.082341   729A      6.118918  
     730A      6.177274   731A      6.180081   732A      6.205303  
     733A      6.243192   734A      6.247594   735A      6.301951  
     736A      6.312418   737A      6.333474   738A      6.378876  
     739A      6.403336   740A      6.483412   741A      6.510651  
     742A      6.535896   743A      6.582618   744A      6.658319  
     745A      6.702264   746A      6.713113   747A      6.728884  
     748A      6.823022   749A      6.870436   750A      6.933834  
     751A      6.981097   752A      7.017997   753A      7.063045  
     754A      7.084467   755A      7.299970   756A      7.424241  
     757A      7.476311   758A      9.049336   759A      9.071259  
     760A      9.269265   761A      9.289994   762A      9.416666  
     763A      9.524185   764A      9.555918   765A      9.616357  
     766A      9.652332   767A      9.721112   768A     10.031257  
     769A     10.089294   770A     15.552471   771A     16.188320  
     772A     16.516608   773A     16.610400   774A     16.655078  
     775A     18.436484   776A     18.666079   777A     19.061342  
     778A     19.292717   779A     20.099314   780A     20.208767  
     781A     20.267482   782A     21.853753  

    Final Occupation by Irrep:
              A 
    DOCC [    45 ]

  Energy converged.

  @DF-RHF Final Energy:  -575.28347062477724

   => Energetics <=

    Nuclear Repulsion Energy =            716.5471989063156570
    One-Electron Energy =               -2204.9736573976197178
    Two-Electron Energy =                 913.1429878665267097
    DFT Exchange-Correlation Energy =       0.0000000000000000
    Empirical Dispersion Energy =           0.0000000000000000
    PCM Polarization Energy =               0.0000000000000000
    EFP Energy =                            0.0000000000000000
    Total Energy =                       -575.2834706247772374



Properties will be evaluated at   0.000000,   0.000000,   0.000000 Bohr

Properties computed using the SCF density matrix

  Nuclear Dipole Moment: (a.u.)
     X:     1.0831      Y:    -0.4034      Z:    -6.2050

  Electronic Dipole Moment: (a.u.)
     X:    -1.8814      Y:     0.8622      Z:     5.0683

  Dipole Moment: (a.u.)
     X:    -0.7982      Y:     0.4588      Z:    -1.1367     Total:     1.4628

  Dipole Moment: (Debye)
     X:    -2.0289      Y:     1.1662      Z:    -2.8891     Total:     3.7180


*** tstop() called on gpu-1-10.local at Sat Nov 11 18:19:55 2017
Module time:
	user time   =     975.41 seconds =      16.26 minutes
	system time =      52.95 seconds =       0.88 minutes
	total time  =        416 seconds =       6.93 minutes
Total time:
	user time   =     975.41 seconds =      16.26 minutes
	system time =      52.95 seconds =       0.88 minutes
	total time  =        416 seconds =       6.93 minutes

  //>>>>>>>>>>>>>>>>>>>>>>>>>>>>>>>>>>>//
  //               DFMP2               //
  //<<<<<<<<<<<<<<<<<<<<<<<<<<<<<<<<<<<//

   => Loading Basis Set <=

    Name: (AUG-CC-PVTZ AUX)
    Role: RIFIT
    Keyword: DF_BASIS_MP2
    atoms 1-11  entry C          line   147 file /cbio/jclab/home/chayas/anaconda/envs/py35/share/psi4/basis/aug-cc-pvtz-ri.gbs 
    atoms 12    entry N          line   205 file /cbio/jclab/home/chayas/anaconda/envs/py35/share/psi4/basis/aug-cc-pvtz-ri.gbs 
    atoms 13    entry F          line   321 file /cbio/jclab/home/chayas/anaconda/envs/py35/share/psi4/basis/aug-cc-pvtz-ri.gbs 
    atoms 14-21 entry H          line    29 file /cbio/jclab/home/chayas/anaconda/envs/py35/share/psi4/basis/aug-cc-pvtz-ri.gbs 

	 --------------------------------------------------------
	                          DF-MP2                         
	      2nd-Order Density-Fitted Moller-Plesset Theory     
	              RMP2 Wavefunction,   8 Threads             
	                                                         
	        Rob Parrish, Justin Turney, Andy Simmonett,      
	           Ed Hohenstein, and C. David Sherrill          
	 --------------------------------------------------------

   => Auxiliary Basis Set <=

  Basis Set: (AUG-CC-PVTZ AUX)
    Blend: AUG-CC-PVTZ-RI
    Number of shells: 476
    Number of basis function: 1746
    Number of Cartesian functions: 2208
    Spherical Harmonics?: true
    Max angular momentum: 4

	 --------------------------------------------------------
	                 NBF =   782, NAUX =  1746
	 --------------------------------------------------------
	   CLASS    FOCC     OCC    AOCC    AVIR     VIR    FVIR
	   PAIRS       0      45      45     737     737       0
	 --------------------------------------------------------


         ------------------------------------------------------------
                                     CPHF                           
                                  Rob Parrish                       
         ------------------------------------------------------------

  ==> Geometry <==

    Molecular point group: c1
    Full point group: C1

    Geometry (in Angstrom), charge = 0, multiplicity = 1:

       Center              X                  Y                   Z               Mass       
    ------------   -----------------  -----------------  -----------------  -----------------
           C         -1.369209130354     0.841106008381    -2.662372545489    12.000000000000
           C         -2.447209130354     1.414106008381    -1.989372545489    12.000000000000
           C         -0.333209130354     0.246106008381    -1.942372545489    12.000000000000
           C         -2.490209130354     1.393106008381    -0.595372545489    12.000000000000
           C          0.417790869646    -1.241893991619     1.258627454511    12.000000000000
           C          2.023790869646    -0.140893991619    -0.153372545489    12.000000000000
           C          1.484790869646    -1.809893991619     1.936627454511    12.000000000000
           C          3.017790869646    -0.756893991619     0.587627454511    12.000000000000
           C         -0.376209130354     0.225106008381    -0.548372545489    12.000000000000
           C          0.700790869646    -0.392893991619     0.194627454511    12.000000000000
           C         -1.454209130354     0.798106008381     0.125627454511    12.000000000000
           N          2.781790869646    -1.587893991619     1.627627454511    14.003074004780
           F         -1.510209130354     0.788106008381     1.465627454511    18.998403224000
           H         -1.336209130354     0.857106008381    -3.748372545489     1.007825032070
           H         -3.254209130354     1.877106008381    -2.550372545489     1.007825032070
           H          0.500790869646    -0.195893991619    -2.482372545489     1.007825032070
           H         -3.330209130354     1.839106008381    -0.070372545489     1.007825032070
           H         -0.601209130354    -1.463893991619     1.559627454511     1.007825032070
           H          2.282790869646     0.517106008381    -0.977372545489     1.007825032070
           H          1.316790869646    -2.480893991619     2.772627454511     1.007825032070
           H          4.065790869646    -0.591893991619     0.357627454511     1.007825032070

  Nuclear repulsion =  716.547198906315657
  Reference energy  = -575.283470624777237

  ==> Basis Set <==

  Basis Set: AUG-CC-PVTZ
    Blend: AUG-CC-PVTZ
    Number of shells: 254
    Number of basis function: 782
    Number of Cartesian functions: 915
    Spherical Harmonics?: true
    Max angular momentum: 3

  ==> CGRSolver (by Rob Parrish) <==

   Number of roots    =         1
   Preconditioning    =    JACOBI
   Convergence cutoff =     1E-06
   Maximum iterations =       100

  ==> CPHFRHamiltonian (by Rob Parrish) <== 

  ==> DFJK: Density-Fitted J/K Matrices <==

    J tasked:                  Yes
    K tasked:                  Yes
    wK tasked:                  No
    OpenMP threads:              8
    Integrals threads:           8
    Memory (MB):              3576
    Algorithm:                Disk
    Integral Cache:           NONE
    Schwarz Cutoff:          1E-12
    Fitting Condition:       1E-12

   => Auxiliary Basis Set <=

  Basis Set: (AUG-CC-PVTZ AUX)
    Blend: AUG-CC-PVTZ-JKFIT
    Number of shells: 502
    Number of basis function: 1720
    Number of Cartesian functions: 2143
    Spherical Harmonics?: true
    Max angular momentum: 4

  ==> CPHF Iterations <==

  => Iterations <=

             Iter  Converged  Remaining    Residual
  CGR           1          0          1   9.752E-02
  CGR           2          0          1   2.971E-02
  CGR           3          0          1   1.928E-02
  CGR           4          0          1   9.531E-03
  CGR           5          0          1   3.744E-03
  CGR           6          0          1   1.385E-03
  CGR           7          0          1   4.141E-04
  CGR           8          0          1   1.538E-04
  CGR           9          0          1   7.196E-05
  CGR          10          0          1   3.352E-05
  CGR          11          0          1   1.400E-05
  CGR          12          0          1   4.716E-06
  CGR          13          0          1   1.555E-06
  CGR          14          1          0   5.418E-07

    CGRSolver converged.

  ==> DFCorrGrad: Density-Fitted Correlated Gradients <==

    OpenMP threads:              8
    Integrals threads:           8
    Memory (MB):              3576
    Schwarz Cutoff:          0E+00
    Fitting Condition:       1E-12

   => Auxiliary Basis Set <=

  Basis Set: (AUG-CC-PVTZ AUX)
    Blend: AUG-CC-PVTZ-JKFIT
    Number of shells: 502
    Number of basis function: 1720
    Number of Cartesian functions: 2143
    Spherical Harmonics?: true
    Max angular momentum: 4

	-----------------------------------------------------------
	 ==================> DF-MP2 Energies <==================== 
	-----------------------------------------------------------
	 Reference Energy          =    -575.2834706247772374 [Eh]
	 Singles Energy            =      -0.0000000000000007 [Eh]
	 Same-Spin Energy          =      -0.6083675815048829 [Eh]
	 Opposite-Spin Energy      =      -1.8326024784015054 [Eh]
	 Correlation Energy        =      -2.4409700599063893 [Eh]
	 Total Energy              =    -577.7244406846836000 [Eh]
	-----------------------------------------------------------
	 ================> DF-SCS-MP2 Energies <================== 
	-----------------------------------------------------------
	 SCS Same-Spin Scale       =       0.3333333333333333 [-]
	 SCS Opposite-Spin Scale   =       1.2000000000000000 [-]
	 SCS Same-Spin Energy      =      -0.2027891938349610 [Eh]
	 SCS Opposite-Spin Energy  =      -2.1991229740818063 [Eh]
	 SCS Correlation Energy    =      -2.4019121679167683 [Eh]
	 SCS Total Energy          =    -577.6853827926939857 [Eh]
	-----------------------------------------------------------


  -Total Gradient:
     Atom            X                  Y                   Z
    ------   -----------------  -----------------  -----------------
       1       -0.001694087625     0.000554715279     0.000732062592
       2       -0.003812895677     0.002051787447    -0.002016836886
       3        0.011500312602    -0.009310768606     0.006402957135
       4        0.000661592798    -0.000221702847    -0.004738433591
       5       -0.007931585687     0.002438475269    -0.003782708299
       6       -0.002155370239     0.005532742134    -0.003974227357
       7       -0.012783064020     0.000987770108    -0.000302318845
       8       -0.003998008572     0.009203686230    -0.010273073536
       9       -0.000257351036     0.000493199901    -0.002731661763
      10        0.001046861111    -0.001123088142    -0.000856618364
      11        0.011637762367    -0.004298700283     0.024590264195
      12        0.012334834056    -0.007606859640     0.008621583204
      13       -0.000962190191    -0.001322648473     0.001732995682
      14        0.000291463187     0.000280811597    -0.005345182291
      15       -0.003499878209     0.002200494916    -0.003851029662
      16        0.003490152780    -0.000544778124    -0.006320765218
      17       -0.005061649162     0.002445672309     0.000869838335
      18       -0.005083641848    -0.001682909961     0.003025918007
      19        0.002809991172     0.001850042188    -0.004074441375
      20        0.000212142413    -0.001806653102     0.002432519750
      21        0.003254609788    -0.000121288196    -0.000140841700


*** tstop() called on gpu-1-10.local at Sat Nov 11 18:47:29 2017
Module time:
	user time   =    4521.74 seconds =      75.36 minutes
	system time =     114.74 seconds =       1.91 minutes
	total time  =       2070 seconds =      34.50 minutes
Total time:
	user time   =    4521.74 seconds =      75.36 minutes
	system time =     114.74 seconds =       1.91 minutes
	total time  =       2070 seconds =      34.50 minutes

			-----------------------------------------
			 OPTKING 2.0: for geometry optimizations 
			  - R.A. King,  Bethel University        
			-----------------------------------------

	Internal coordinates to be generated automatically.
	Detected frag 1 with atoms:  1 2 3 4 5 6 7 8 9 10 11 12 13 14 15 16 17 18 19 20
	 21
	---Fragment 1 Bond Connectivity---
	 1 : 2 3 14
	 2 : 1 4 15
	 3 : 1 9 16
	 4 : 2 11 17
	 5 : 7 10 18
	 6 : 8 10 19
	 7 : 5 12 20
	 8 : 6 12 21
	 9 : 3 10 11
	 10 : 5 6 9
	 11 : 4 9 13
	 12 : 7 8
	 13 : 11
	 14 : 1
	 15 : 2
	 16 : 3
	 17 : 4
	 18 : 5
	 19 : 6
	 20 : 7
	 21 : 8

	Assuming in current code that numbering for constraints corresponds to unified fragment.
	Fixed dihedral atom list: 
	     3     9    10     5
	---Fragment 1 Geometry and Gradient---
	 C          -2.5874302750        1.5894600046       -5.0311549747
	 C          -4.6245550463        2.6722730787       -3.7593692873
	 C          -0.6296740013        0.4650729555       -3.6705521590
	 C          -4.7058132700        2.6325888299       -1.1250910580
	 C           0.7895103245       -2.3468395302        2.3784611924
	 C           3.8244104939       -0.2662510579       -0.2898321073
	 C           2.8058481082       -3.4202039737        3.6596955105
	 C           5.7027982700       -1.4303223558        1.1104549572
	 C          -0.7109322251        0.4253887067       -1.0362739298
	 C           1.3243028201       -0.7424620434        0.3677925870
	 C          -2.7480569963        1.5082017809        0.2374014838
	 N           5.2568229026       -3.0006847722        3.0757701354
	 F          -2.8538816598        1.4893045195        2.7696345019
	 H          -2.5250693126        1.6196956227       -7.0833975550
	 H          -6.1495640355        3.5472162782       -4.8195056478
	 H           0.9463575935       -0.3701859952       -4.6910042708
	 H          -6.2931832216        3.4754066852       -0.1329848382
	 H          -1.1361206050       -2.7663587317        2.9472687584
	 H           4.3138495623        0.9771887375       -1.8469664408
	 H           2.4883741179       -4.6882102089        5.2395065575
	 H           7.6832312572       -1.1185175439        0.6758179466
	            -0.0016940876        0.0005547153        0.0007320626
	            -0.0038128957        0.0020517874       -0.0020168369
	             0.0115003126       -0.0093107686        0.0064029571
	             0.0006615928       -0.0002217028       -0.0047384336
	            -0.0079315857        0.0024384753       -0.0037827083
	            -0.0021553702        0.0055327421       -0.0039742274
	            -0.0127830640        0.0009877701       -0.0003023188
	            -0.0039980086        0.0092036862       -0.0102730735
	            -0.0002573510        0.0004931999       -0.0027316618
	             0.0010468611       -0.0011230881       -0.0008566184
	             0.0116377624       -0.0042987003        0.0245902642
	             0.0123348341       -0.0076068596        0.0086215832
	            -0.0009621902       -0.0013226485        0.0017329957
	             0.0002914632        0.0002808116       -0.0053451823
	            -0.0034998782        0.0022004949       -0.0038510297
	             0.0034901528       -0.0005447781       -0.0063207652
	            -0.0050616492        0.0024456723        0.0008698383
	            -0.0050836418       -0.0016829100        0.0030259180
	             0.0028099912        0.0018500422       -0.0040744414
	             0.0002121424       -0.0018066531        0.0024325198
	             0.0032546098       -0.0001212882       -0.0001408417

	Previous optimization step data not found.  Starting new optimization.

	---Fragment 1 Intrafragment Coordinates---
	 - Coordinate -           - BOHR/RAD -       - ANG/DEG -
	 R(1,2)           =         2.634350	       1.394038
	 R(1,3)           =         2.635962	       1.394891
	 R(1,14)          =         2.053412	       1.086619
	 R(2,4)           =         2.635830	       1.394821
	 R(2,15)          =         2.053063	       1.086434
	 R(3,9)           =         2.635830	       1.394821
	 R(3,16)          =         2.054959	       1.087437
	 R(4,11)          =         2.636938	       1.395407
	 R(4,17)          =         2.052891	       1.086343
	 R(5,7)           =         2.619025	       1.385928
	 R(5,10)          =         2.627322	       1.390319
	 R(5,18)          =         2.051242	       1.085470
	 R(6,8)           =         2.616143	       1.384403
	 R(6,10)          =         2.628647	       1.391020
	 R(6,19)          =         2.051916	       1.085827
	 R(7,12)          =         2.554260	       1.351656
	 R(7,20)          =         2.050471	       1.085063
	 R(8,12)          =         2.554877	       1.351983
	 R(8,21)          =         2.051401	       1.085555
	 R(9,10)          =         2.734494	       1.447032
	 R(9,11)          =         2.635263	       1.394521
	 R(11,13)         =         2.534514	       1.341207
	 B(1,2,4)         =         2.094553	     120.009056
	 B(1,2,15)        =         2.094721	     120.018646
	 B(1,3,9)         =         2.093692	     119.959722
	 B(1,3,16)        =         2.079074	     119.122177
	 B(2,1,3)         =         2.094940	     120.031219
	 B(2,1,14)        =         2.094311	     119.995189
	 B(2,4,11)        =         2.094306	     119.994870
	 B(2,4,17)        =         2.095140	     120.042665
	 B(3,1,14)        =         2.093934	     119.973570
	 B(3,9,10)        =         2.090528	     119.778448
	 B(3,9,11)        =         2.095181	     120.045019
	 B(4,2,15)        =         2.093912	     119.972298
	 B(4,11,9)        =         2.093699	     119.960108
	 B(4,11,13)       =         2.081063	     119.236128
	 B(5,7,12)        =         2.164702	     124.028262
	 B(5,7,20)        =         2.107321	     120.740591
	 B(5,10,6)        =         2.089416	     119.714706
	 B(5,10,9)        =         2.096994	     120.148921
	 B(6,8,12)        =         2.165057	     124.048627
	 B(6,8,21)        =         2.108451	     120.805352
	 B(6,10,9)        =         2.096775	     120.136353
	 B(7,5,10)        =         2.057753	     117.900590
	 B(7,5,18)        =         2.098166	     120.216033
	 B(7,12,8)        =         2.031197	     116.379028
	 B(8,6,10)        =         2.058245	     117.928757
	 B(8,6,19)        =         2.099668	     120.302137
	 B(9,3,16)        =         2.110419	     120.918077
	 B(9,11,13)       =         2.108422	     120.803676
	 B(10,5,18)       =         2.127265	     121.883295
	 B(10,6,19)       =         2.125271	     121.769070
	 B(10,9,11)       =         2.097476	     120.176533
	 B(11,4,17)       =         2.093740	     119.962450
	 B(12,7,20)       =         2.011162	     115.231120
	 B(12,8,21)       =         2.009676	     115.145975
	 D(1,2,4,11)      =        -0.000325	      -0.018609
	 D(1,2,4,17)      =        -3.141151	    -179.974682
	 D(1,3,9,10)      =        -3.141334	    -179.985190
	 D(1,3,9,11)      =         0.000325	       0.018608
	 D(2,1,3,9)       =        -0.000348	      -0.019945
	 D(2,1,3,16)      =        -3.140969	    -179.964243
	 D(2,4,11,9)      =         0.000301	       0.017261
	 D(2,4,11,13)     =         3.140029	     179.910408
	 D(3,1,2,4)       =         0.000348	       0.019955
	 D(3,1,2,15)      =        -3.141142	    -179.974167
	 D(3,9,10,5)      =        -2.356494	    -135.017170
	 D(3,9,10,6)      =         0.784181	      44.930276
	 D(3,9,11,4)      =        -0.000301	      -0.017270
	 D(3,9,11,13)     =        -3.139999	    -179.908714
	 D(4,2,1,14)      =         3.141002	     179.966134
	 D(4,11,9,10)     =         3.141358	     179.986543
	 D(5,7,12,8)      =        -0.000998	      -0.057204
	 D(5,10,6,8)      =        -0.000081	      -0.004638
	 D(5,10,6,19)     =        -3.140465	    -179.935410
	 D(5,10,9,11)     =         0.785032	      44.979027
	 D(6,8,12,7)      =         0.000220	       0.012594
	 D(6,10,5,7)      =        -0.000617	      -0.035326
	 D(6,10,5,18)     =        -3.140393	    -179.931248
	 D(6,10,9,11)     =        -2.357478	    -135.073527
	 D(7,5,10,9)      =         3.140063	     179.912342
	 D(7,12,8,21)     =         3.140455	     179.934845
	 D(8,6,10,9)      =        -3.140760	    -179.952312
	 D(8,12,7,20)     =         3.139557	     179.883386
	 D(9,3,1,14)      =        -3.141002	    -179.966136
	 D(9,10,5,18)     =         0.000287	       0.016420
	 D(9,10,6,19)     =         0.002041	       0.116915
	 D(9,11,4,17)     =         3.141128	     179.973370
	 D(10,5,7,12)     =         0.001208	       0.069233
	 D(10,5,7,20)     =        -3.139293	    -179.868239
	 D(10,6,8,12)     =         0.000297	       0.017008
	 D(10,6,8,21)     =        -3.139866	    -179.901051
	 D(10,9,3,16)     =        -0.000731	      -0.041910
	 D(10,9,11,13)    =         0.001660	       0.095099
	 D(11,4,2,15)     =         3.141165	     179.975516
	 D(11,9,3,16)     =         3.140927	     179.961888
	 D(12,7,5,18)     =         3.141016	     179.966963
	 D(12,8,6,19)     =         3.140700	     179.948838
	 D(13,11,4,17)    =        -0.002330	      -0.133484
	 D(14,1,2,15)     =        -0.000488	      -0.027988
	 D(14,1,3,16)     =         0.001563	       0.089566
	 D(15,2,4,17)     =         0.000339	       0.019443
	 D(18,5,7,20)     =         0.000515	       0.029492
	 D(19,6,8,21)     =         0.000537	       0.030780
	 R(5,13)          =         5.305028	       2.807300

	Current energy   :      -577.7244406847

	Generating empirical Hessian (Schlegel '84) for each fragment.
	Adding user-defined constraint: Fragment 1; Coordinate 67:
		Value =    -2.356494; Fixed value    =    -2.356194
		Force =     0.000150; Force constant =     0.500000
	Removing off-diagonal coupling between coordinate 67 and others.
	Taking RFO optimization step.
	Going to follow RFO solution 1.
	Using RFO vector 1.

	Determining step-restricting scale parameter for RS-RFO.
	Maximum step size allowed    0.10000

	 Iter      |step|        alpha        rfo_root  
	------------------------------------------------
	    0     0.18187       1.00000           1
	    1     0.14305       5.45656           1
	    2     0.11796      14.94681           1
	    3     0.10424      25.57236           1
	    4     0.10031      29.77211           1
	    5     0.10000      30.12613           1
	------------------------------------------------
	Norm of target step-size    0.10000
	Projected energy change by RFO approximation:        -0.0041959857

	Back-transformation to cartesian coordinates...
	Could not converge backtransformation.
	Using first guess instead.

	--- Internal Coordinate Step in ANG or DEG, aJ/ANG or AJ/DEG ---
	 ---------------------------------------------------------------------------
	   Coordinate                Previous        Force       Change         New 
	   ----------                --------       ------       ------       ------
	    1 R(1,2)          =      1.394038    -0.045626    -0.004961     1.389077
	    2 R(1,3)          =      1.394891    -0.057050    -0.006085     1.388806
	    3 R(1,14)         =      1.086619    -0.044119    -0.005883     1.080736
	    4 R(2,4)          =      1.394821    -0.066726    -0.007343     1.387478
	    5 R(2,15)         =      1.086434    -0.045527    -0.006041     1.080393
	    6 R(3,9)          =      1.394821    -0.019899    -0.001869     1.392952
	    7 R(3,16)         =      1.087437    -0.049737    -0.006632     1.080805
	    8 R(4,11)         =      1.395407    -0.109952    -0.011859     1.383549
	    9 R(4,17)         =      1.086343    -0.043981    -0.005739     1.080604
	   10 R(5,7)          =      1.385928    -0.001444    -0.000175     1.385753
	   11 R(5,10)         =      1.390319    -0.009393    -0.000444     1.389875
	   12 R(5,18)         =      1.085470    -0.049067    -0.006528     1.078943
	   13 R(6,8)          =      1.384403     0.007180     0.000750     1.385154
	   14 R(6,10)         =      1.391020    -0.013991    -0.000915     1.390105
	   15 R(6,19)         =      1.085827    -0.040232    -0.005356     1.080472
	   16 R(7,12)         =      1.351656    -0.115696    -0.011335     1.340321
	   17 R(7,20)         =      1.085063    -0.024375    -0.003229     1.081833
	   18 R(8,12)         =      1.351983    -0.121329    -0.011866     1.340116
	   19 R(8,21)         =      1.085555    -0.025980    -0.003456     1.082098
	   20 R(9,10)         =      1.447032     0.120986     0.015394     1.462426
	   21 R(9,11)         =      1.394521    -0.052929    -0.005227     1.389294
	   22 R(11,13)        =      1.341207    -0.017260    -0.001503     1.339704
	   23 B(1,2,4)        =    120.009056     0.000039     0.068243   120.077299
	   24 B(1,2,15)       =    120.018646     0.000072     0.205412   120.224057
	   25 B(1,3,9)        =    119.959722     0.000317     0.743817   120.703539
	   26 B(1,3,16)       =    119.122177     0.000144     0.417399   119.539576
	   27 B(2,1,3)        =    120.031219    -0.000080    -0.148982   119.882237
	   28 B(2,1,14)       =    119.995189     0.000039     0.071001   120.066190
	   29 B(2,4,11)       =    119.994870    -0.000275    -0.619995   119.374876
	   30 B(2,4,17)       =    120.042665     0.000289     0.706476   120.749141
	   31 B(3,1,14)       =    119.973570     0.000041     0.077905   120.051475
	   32 B(3,9,10)       =    119.778448     0.000624     1.147597   120.926045
	   33 B(3,9,11)       =    120.045019    -0.000835    -1.677657   118.367362
	   34 B(4,2,15)       =    119.972298    -0.000111    -0.273665   119.698633
	   35 B(4,11,9)       =    119.960108     0.000835     1.634450   121.594559
	   36 B(4,11,13)      =    119.236128    -0.000108    -0.271677   118.964450
	   37 B(5,7,12)       =    124.028262     0.000029    -0.015058   124.013204
	   38 B(5,7,20)       =    120.740591    -0.000067    -0.130147   120.610444
	   39 B(5,10,6)       =    119.714706    -0.000860    -1.614807   118.099899
	   40 B(5,10,9)       =    120.148921     0.000439     0.878992   121.027913
	   41 B(6,8,12)       =    124.048627    -0.000029    -0.135955   123.912672
	   42 B(6,8,21)       =    120.805352    -0.000049    -0.098578   120.706774
	   43 B(6,10,9)       =    120.136353     0.000421     0.735619   120.871972
	   44 B(7,5,10)       =    117.900590     0.000342     0.803797   118.704387
	   45 B(7,5,18)       =    120.216033    -0.000058    -0.106824   120.109209
	   46 B(7,12,8)       =    116.379028     0.000135     0.061834   116.440862
	   47 B(8,6,10)       =    117.928757     0.000383     0.900077   118.828834
	   48 B(8,6,19)       =    120.302137    -0.000058    -0.102659   120.199478
	   49 B(9,3,16)       =    120.918077    -0.000460    -1.161374   119.756703
	   50 B(9,11,13)      =    120.803676    -0.000727    -1.363661   119.440016
	   51 B(10,5,18)      =    121.883295    -0.000284    -0.697572   121.185723
	   52 B(10,6,19)      =    121.769070    -0.000325    -0.797768   120.971303
	   53 B(10,9,11)      =    120.176533     0.000211     0.530035   120.706568
	   54 B(11,4,17)      =    119.962450    -0.000015    -0.086469   119.875982
	   55 B(12,7,20)      =    115.231120     0.000038     0.145184   115.376304
	   56 B(12,8,21)      =    115.145975     0.000078     0.234359   115.380334
	   57 D(1,2,4,11)     =     -0.018609    -0.000002    -0.037097    -0.055706
	   58 D(1,2,4,17)     =   -179.974682    -0.000003    -0.065963  -180.040644
	   59 D(1,3,9,10)     =   -179.985190    -0.000001    -0.023425  -180.008615
	   60 D(1,3,9,11)     =      0.018608     0.000001     0.029981     0.048589
	   61 D(2,1,3,9)      =     -0.019945     0.000002     0.043596     0.023652
	   62 D(2,1,3,16)     =   -179.964243    -0.000007    -0.167691  -180.131934
	   63 D(2,4,11,9)     =      0.017261     0.000005     0.114371     0.131633
	   64 D(2,4,11,13)    =    179.910408    -0.000005    -0.140166   179.770242
	   65 D(3,1,2,4)      =      0.019955    -0.000002    -0.040333    -0.020379
	   66 D(3,1,2,15)     =   -179.974167    -0.000000    -0.008412  -179.982580
	   67 D(3,9,10,5)     =   -135.017170    -0.000007    -0.043371  -135.060541
	   68 D(3,9,10,6)     =     44.930276    -0.000010    -0.163198    44.767078
	   69 D(3,9,11,4)     =     -0.017270    -0.000005    -0.110030    -0.127300
	   70 D(3,9,11,13)    =   -179.908714     0.000005     0.144485  -179.764229
	   71 D(4,2,1,14)     =    179.966134    -0.000005    -0.100554   179.865580
	   72 D(4,11,9,10)    =    179.986543    -0.000003    -0.056770   179.929772
	   73 D(5,7,12,8)     =     -0.057204    -0.000002    -0.055666    -0.112870
	   74 D(5,10,6,8)     =     -0.004638     0.000003     0.031130     0.026492
	   75 D(5,10,6,19)    =   -179.935410     0.000010     0.187415  -179.747995
	   76 D(5,10,9,11)    =     44.979027    -0.000009    -0.098111    44.880917
	   77 D(6,8,12,7)     =      0.012594     0.000001     0.017297     0.029891
	   78 D(6,10,5,7)     =     -0.035326    -0.000004    -0.066048    -0.101374
	   79 D(6,10,5,18)    =   -179.931248     0.000005     0.129749  -179.801499
	   80 D(6,10,9,11)    =   -135.073527    -0.000012    -0.217938  -135.291464
	   81 D(7,5,10,9)     =    179.912342    -0.000007    -0.181444   179.730898
	   82 D(7,12,8,21)    =    179.934845    -0.000004    -0.074827   179.860018
	   83 D(8,6,10,9)     =   -179.952312     0.000005     0.146259  -179.806053
	   84 D(8,12,7,20)    =    179.883386    -0.000003    -0.075731   179.807655
	   85 D(9,3,1,14)     =   -179.966136     0.000005     0.103811  -179.862325
	   86 D(9,10,5,18)    =      0.016420     0.000002     0.014353     0.030773
	   87 D(9,10,6,19)    =      0.116915     0.000012     0.302544     0.419459
	   88 D(9,11,4,17)    =    179.973370     0.000006     0.143335   180.116705
	   89 D(10,5,7,12)    =      0.069233     0.000004     0.082410     0.151643
	   90 D(10,5,7,20)    =   -179.868239     0.000005     0.103315  -179.764924
	   91 D(10,6,8,12)    =      0.017008    -0.000001    -0.006405     0.010602
	   92 D(10,6,8,21)    =   -179.901051     0.000004     0.090159  -179.810892
	   93 D(10,9,3,16)    =     -0.041910     0.000009     0.189217     0.147307
	   94 D(10,9,11,13)   =      0.095099     0.000007     0.197745     0.292844
	   95 D(11,4,2,15)    =    179.975516    -0.000003    -0.068821   179.906694
	   96 D(11,9,3,16)    =    179.961888     0.000011     0.242623   180.204510
	   97 D(12,7,5,18)    =    179.966963    -0.000005    -0.111875   179.855088
	   98 D(12,8,6,19)    =    179.948838    -0.000008    -0.161960   179.786878
	   99 D(13,11,4,17)   =     -0.133484    -0.000004    -0.111202    -0.244686
	  100 D(14,1,2,15)    =     -0.027988    -0.000003    -0.068633    -0.096620
	  101 D(14,1,3,16)    =      0.089566    -0.000005    -0.107476    -0.017910
	  102 D(15,2,4,17)    =      0.019443    -0.000004    -0.097687    -0.078244
	  103 D(18,5,7,20)    =      0.029492    -0.000004    -0.090970    -0.061478
	  104 D(19,6,8,21)    =      0.030780    -0.000003    -0.065396    -0.034616
	  105 R(5,13)         =      2.807300     0.026637     0.010269     2.817569
	 ---------------------------------------------------------------------------
	Successfully symmetrized geometry.
	 Forces used to impose fixed constraints are not included.
	  Forces zeroed: 67 

  ==> Convergence Check <==

  Measures of convergence in internal coordinates in au.
  Criteria marked as inactive (o), active & met (*), and active & unmet ( ).
  --------------------------------------------------------------------------------------------- ~
   Step     Total Energy     Delta E     MAX Force     RMS Force      MAX Disp      RMS Disp    ~
  --------------------------------------------------------------------------------------------- ~
    Convergence Criteria    1.00e-06 *    3.00e-04 *             o    1.20e-03 *             o  ~
  --------------------------------------------------------------------------------------------- ~
      1    -577.72444068   -5.78e+02      1.47e-02      4.37e-03 o    2.93e-02      9.77e-03 o  ~
  ---------------------------------------------------------------------------------------------

	Writing optimization data to binary file.
	Structure for next step:
	Cartesian Geometry (in Angstrom)
	    C    -1.3875056281   0.8515314255  -2.6695205344
	    C    -2.4596538369   1.4203101677  -1.9938556919
	    C    -0.3545520473   0.2594469398  -1.9545196264
	    C    -2.4991299449   1.3967991984  -0.6071381831
	    C     0.4379549804  -1.2430593362   1.2633911749
	    C     2.0339085262  -0.1558664951  -0.1348725744
	    C     1.5027867229  -1.8110924915   1.9444072848
	    C     3.0277422350  -0.7705945448   0.6088036724
	    C    -0.3800989323   0.2280038768  -0.5621565349
	    C     0.7048823004  -0.3943384536   0.1956012144
	    C    -1.4634884687   0.8019462240   0.0912914689
	    N     2.7896980210  -1.5920223394   1.6405512538
	    F    -1.5077253974   0.7879992371   1.4301924988
	    H    -1.3579978897   0.8680241156  -3.7497274495
	    H    -3.2663241824   1.8821181590  -2.5445512053
	    H     0.4759210463  -0.1833353517  -2.4859316718
	    H    -3.3275629769   1.8365623242  -0.0704709969
	    H    -0.5751232157  -1.4652671530   1.5607348439
	    H     2.2943302070   0.4991449806  -0.9537497907
	    H     1.3303822704  -2.4791063758   2.7777124407
	    H     4.0721644735  -0.6039779316   0.3799849515
			--------------------------
			 OPTKING Finished Execution 
			--------------------------

    Structure for next step:
    Molecular point group: c1
    Full point group: C1

    Geometry (in Angstrom), charge = 0, multiplicity = 1:

    C           -1.387604676325     0.851349453307    -2.664872068036
    C           -2.459752885144     1.420128195501    -1.989207225534
    C           -0.354651095557     0.259264967656    -1.949871160015
    C           -2.499228993107     1.396617226251    -0.602489716762
    C            0.437855932121    -1.243241308397     1.268039641275
    C            2.033809477928    -0.156048467281    -0.130224108001
    C            1.502687674638    -1.811274463624     1.949055751151
    C            3.027643186755    -0.770776516957     0.613452138734
    C           -0.380197980576     0.227821904595    -0.557508068563
    C            0.704783252202    -0.394520425735     0.200249680774
    C           -1.463587516976     0.801764251846     0.095939935283
    N            2.789598972737    -1.592204311528     1.645199720121
    F           -1.507824445667     0.787817264902     1.434840965206
    H           -1.358096937947     0.867842143458    -3.745078983182
    H           -3.266423230636     1.881936186845    -2.539902738971
    H            0.475821998052    -0.183517323841    -2.481283205473
    H           -3.327662025121     1.836380352092    -0.065822530582
    H           -0.575222263986    -1.465449125196     1.565383310300
    H            2.294231158789     0.498963008489    -0.949101324354
    H            1.330283222124    -2.479288347908     2.782360907046
    H            4.072065425242    -0.604159903768     0.384633417887

gradient() will perform analytic gradient computation.

*** tstart() called on gpu-1-10.local
*** at Sat Nov 11 18:47:30 2017

    SCF Algorithm Type (re)set to DF.

*** tstart() called on gpu-1-10.local
*** at Sat Nov 11 18:47:30 2017

   => Loading Basis Set <=

    Name: AUG-CC-PVTZ
    Role: ORBITAL
    Keyword: BASIS
    atoms 1-11  entry C          line   221 file /cbio/jclab/home/chayas/anaconda/envs/py35/share/psi4/basis/aug-cc-pvtz.gbs 
    atoms 12    entry N          line   267 file /cbio/jclab/home/chayas/anaconda/envs/py35/share/psi4/basis/aug-cc-pvtz.gbs 
    atoms 13    entry F          line   359 file /cbio/jclab/home/chayas/anaconda/envs/py35/share/psi4/basis/aug-cc-pvtz.gbs 
    atoms 14-21 entry H          line    34 file /cbio/jclab/home/chayas/anaconda/envs/py35/share/psi4/basis/aug-cc-pvtz.gbs 


         ---------------------------------------------------------
                                   SCF
            by Justin Turney, Rob Parrish, and Andy Simmonett
                              RHF Reference
                        8 Threads,   4768 MiB Core
         ---------------------------------------------------------

  ==> Geometry <==

    Molecular point group: c1
    Full point group: C1

    Geometry (in Angstrom), charge = 0, multiplicity = 1:

       Center              X                  Y                   Z               Mass       
    ------------   -----------------  -----------------  -----------------  -----------------
           C         -1.387604676325     0.851349453307    -2.664872068036    12.000000000000
           C         -2.459752885144     1.420128195501    -1.989207225534    12.000000000000
           C         -0.354651095557     0.259264967656    -1.949871160015    12.000000000000
           C         -2.499228993107     1.396617226251    -0.602489716762    12.000000000000
           C          0.437855932121    -1.243241308397     1.268039641275    12.000000000000
           C          2.033809477928    -0.156048467281    -0.130224108001    12.000000000000
           C          1.502687674638    -1.811274463624     1.949055751151    12.000000000000
           C          3.027643186755    -0.770776516957     0.613452138734    12.000000000000
           C         -0.380197980576     0.227821904595    -0.557508068563    12.000000000000
           C          0.704783252202    -0.394520425735     0.200249680774    12.000000000000
           C         -1.463587516976     0.801764251846     0.095939935283    12.000000000000
           N          2.789598972737    -1.592204311528     1.645199720121    14.003074004780
           F         -1.507824445667     0.787817264902     1.434840965206    18.998403224000
           H         -1.358096937947     0.867842143458    -3.745078983182     1.007825032070
           H         -3.266423230636     1.881936186845    -2.539902738971     1.007825032070
           H          0.475821998052    -0.183517323841    -2.481283205473     1.007825032070
           H         -3.327662025121     1.836380352092    -0.065822530582     1.007825032070
           H         -0.575222263986    -1.465449125196     1.565383310300     1.007825032070
           H          2.294231158789     0.498963008489    -0.949101324354     1.007825032070
           H          1.330283222124    -2.479288347908     2.782360907046     1.007825032070
           H          4.072065425242    -0.604159903768     0.384633417887     1.007825032070

  Running in c1 symmetry.

  Rotational constants: A =      0.06504  B =      0.01800  C =      0.01490 [cm^-1]
  Rotational constants: A =   1949.88671  B =    539.73343  C =    446.75202 [MHz]
  Nuclear repulsion =  716.925630796249720

  Charge       = 0
  Multiplicity = 1
  Electrons    = 90
  Nalpha       = 45
  Nbeta        = 45

  ==> Algorithm <==

  SCF Algorithm Type is DF.
  DIIS enabled.
  MOM disabled.
  Fractional occupation disabled.
  Guess Type is READ.
  Energy threshold   = 1.00e-10
  Density threshold  = 1.00e-10
  Integral threshold = 0.00e+00

  ==> Primary Basis <==

  Basis Set: AUG-CC-PVTZ
    Blend: AUG-CC-PVTZ
    Number of shells: 254
    Number of basis function: 782
    Number of Cartesian functions: 915
    Spherical Harmonics?: true
    Max angular momentum: 3

   => Loading Basis Set <=

    Name: (AUG-CC-PVTZ AUX)
    Role: JKFIT
    Keyword: DF_BASIS_SCF
    atoms 1-11  entry C          line   161 file /cbio/jclab/home/chayas/anaconda/envs/py35/share/psi4/basis/aug-cc-pvtz-jkfit.gbs 
    atoms 12    entry N          line   223 file /cbio/jclab/home/chayas/anaconda/envs/py35/share/psi4/basis/aug-cc-pvtz-jkfit.gbs 
    atoms 13    entry F          line   347 file /cbio/jclab/home/chayas/anaconda/envs/py35/share/psi4/basis/aug-cc-pvtz-jkfit.gbs 
    atoms 14-21 entry H          line    69 file /cbio/jclab/home/chayas/anaconda/envs/py35/share/psi4/basis/aug-cc-pvtz-jkfit.gbs 

  Reading orbitals from file 180, no projection.

  ==> Pre-Iterations <==

   -------------------------------------------------------
    Irrep   Nso     Nmo     Nalpha   Nbeta   Ndocc  Nsocc
   -------------------------------------------------------
     A        782     782       0       0       0       0
   -------------------------------------------------------
    Total     782     782      45      45      45       0
   -------------------------------------------------------

  ==> Integral Setup <==

  ==> DFJK: Density-Fitted J/K Matrices <==

    J tasked:                  Yes
    K tasked:                  Yes
    wK tasked:                  No
    OpenMP threads:              8
    Integrals threads:           8
    Memory (MB):              3576
    Algorithm:                Disk
    Integral Cache:           NONE
    Schwarz Cutoff:          1E-12
    Fitting Condition:       1E-12

   => Auxiliary Basis Set <=

  Basis Set: (AUG-CC-PVTZ AUX)
    Blend: AUG-CC-PVTZ-JKFIT
    Number of shells: 502
    Number of basis function: 1720
    Number of Cartesian functions: 2143
    Spherical Harmonics?: true
    Max angular momentum: 4

  Minimum eigenvalue in the overlap matrix is 6.4237005306E-07.
  Using Symmetric Orthogonalization.

  SCF Guess: Orbitals guess was supplied from a previous computation.

  ==> Iterations <==

                           Total Energy        Delta E     RMS |[F,P]|

   @DF-RHF iter   0:  -575.37928013666772   -5.75379e+02   3.23449e-04 
   @DF-RHF iter   1:  -575.28836948588128    9.09107e-02   1.07695e-04 
   @DF-RHF iter   2:  -575.28883234907221   -4.62863e-04   8.10676e-05 DIIS
   @DF-RHF iter   3:  -575.28915825663535   -3.25908e-04   1.16170e-05 DIIS
   @DF-RHF iter   4:  -575.28916604851884   -7.79188e-06   4.60544e-06 DIIS
   @DF-RHF iter   5:  -575.28916798298394   -1.93447e-06   1.16496e-06 DIIS
   @DF-RHF iter   6:  -575.28916842173271   -4.38749e-07   9.17663e-07 DIIS
   @DF-RHF iter   7:  -575.28916860506104   -1.83328e-07   4.01211e-07 DIIS
   @DF-RHF iter   8:  -575.28916864601626   -4.09552e-08   1.15518e-07 DIIS
   @DF-RHF iter   9:  -575.28916864859013   -2.57387e-09   3.02727e-08 DIIS
   @DF-RHF iter  10:  -575.28916864878715   -1.97019e-10   1.18505e-08 DIIS
   @DF-RHF iter  11:  -575.28916864881523   -2.80806e-11   2.25323e-09 DIIS
   @DF-RHF iter  12:  -575.28916864882103   -5.79803e-12   1.54630e-09 DIIS
   @DF-RHF iter  13:  -575.28916864882035    6.82121e-13   6.44543e-10 DIIS
   @DF-RHF iter  14:  -575.28916864881546    4.88853e-12   2.34057e-10 DIIS
   @DF-RHF iter  15:  -575.28916864883377   -1.83036e-11   9.85226e-11 DIIS

  ==> Post-Iterations <==

    Orbital Energies (a.u.)
    -----------------------

    Doubly Occupied:                                                      

       1A    -26.320966     2A    -15.563928     3A    -11.339055  
       4A    -11.273250     5A    -11.272017     6A    -11.268178  
       7A    -11.261642     8A    -11.257236     9A    -11.256680  
      10A    -11.252283    11A    -11.248261    12A    -11.240171  
      13A    -11.237593    14A     -1.642178    15A     -1.257128  
      16A     -1.186100    17A     -1.114995    18A     -1.039294  
      19A     -1.033989    20A     -1.028571    21A     -0.892606  
      22A     -0.873035    23A     -0.847835    24A     -0.825836  
      25A     -0.758112    26A     -0.722949    27A     -0.717852  
      28A     -0.708535    29A     -0.671583    30A     -0.663181  
      31A     -0.652774    32A     -0.626537    33A     -0.612230  
      34A     -0.597970    35A     -0.590864    36A     -0.550369  
      37A     -0.539523    38A     -0.525257    39A     -0.518239  
      40A     -0.509425    41A     -0.419562    42A     -0.404483  
      43A     -0.354491    44A     -0.348864    45A     -0.334440  

    Virtual:                                                              

      46A      0.023627    47A      0.029851    48A      0.033752  
      49A      0.038131    50A      0.043703    51A      0.046963  
      52A      0.054194    53A      0.055746    54A      0.070516  
      55A      0.079229    56A      0.084098    57A      0.086947  
      58A      0.092618    59A      0.094565    60A      0.099089  
      61A      0.103444    62A      0.107222    63A      0.108799  
      64A      0.112943    65A      0.114479    66A      0.115638  
      67A      0.119905    68A      0.120519    69A      0.128858  
      70A      0.130319    71A      0.133171    72A      0.135709  
      73A      0.137297    74A      0.143318    75A      0.145542  
      76A      0.149866    77A      0.150811    78A      0.151536  
      79A      0.159121    80A      0.163589    81A      0.169531  
      82A      0.175683    83A      0.178611    84A      0.180969  
      85A      0.187698    86A      0.199507    87A      0.203355  
      88A      0.217677    89A      0.218728    90A      0.224706  
      91A      0.231403    92A      0.232841    93A      0.234520  
      94A      0.237807    95A      0.242746    96A      0.246954  
      97A      0.248648    98A      0.253060    99A      0.258501  
     100A      0.264159   101A      0.268081   102A      0.270056  
     103A      0.273019   104A      0.282157   105A      0.283890  
     106A      0.288563   107A      0.292531   108A      0.296549  
     109A      0.301574   110A      0.305741   111A      0.311102  
     112A      0.314612   113A      0.317968   114A      0.319632  
     115A      0.321495   116A      0.326051   117A      0.330657  
     118A      0.337294   119A      0.338955   120A      0.345817  
     121A      0.347902   122A      0.356970   123A      0.359293  
     124A      0.366995   125A      0.372732   126A      0.379049  
     127A      0.379951   128A      0.387166   129A      0.393862  
     130A      0.398348   131A      0.406946   132A      0.409931  
     133A      0.415618   134A      0.422238   135A      0.424871  
     136A      0.430938   137A      0.434935   138A      0.436984  
     139A      0.437778   140A      0.443053   141A      0.447013  
     142A      0.450831   143A      0.458393   144A      0.465948  
     145A      0.469372   146A      0.470826   147A      0.476174  
     148A      0.477072   149A      0.478661   150A      0.481463  
     151A      0.485542   152A      0.491174   153A      0.492222  
     154A      0.496950   155A      0.497798   156A      0.501669  
     157A      0.507956   158A      0.511323   159A      0.514120  
     160A      0.514716   161A      0.521245   162A      0.522702  
     163A      0.527087   164A      0.529226   165A      0.533628  
     166A      0.538844   167A      0.540159   168A      0.543370  
     169A      0.548494   170A      0.549753   171A      0.556340  
     172A      0.561134   173A      0.572005   174A      0.575823  
     175A      0.579232   176A      0.585445   177A      0.591857  
     178A      0.597075   179A      0.602351   180A      0.608450  
     181A      0.611871   182A      0.624805   183A      0.631501  
     184A      0.636250   185A      0.641153   186A      0.652593  
     187A      0.656566   188A      0.667284   189A      0.677622  
     190A      0.680433   191A      0.683862   192A      0.687412  
     193A      0.695064   194A      0.700896   195A      0.703208  
     196A      0.710191   197A      0.713399   198A      0.723447  
     199A      0.725519   200A      0.731551   201A      0.737100  
     202A      0.742695   203A      0.748250   204A      0.750823  
     205A      0.754305   206A      0.763299   207A      0.766865  
     208A      0.768914   209A      0.779372   210A      0.791178  
     211A      0.796491   212A      0.803831   213A      0.806159  
     214A      0.814458   215A      0.826000   216A      0.835729  
     217A      0.845472   218A      0.851443   219A      0.853211  
     220A      0.857398   221A      0.859164   222A      0.863337  
     223A      0.872441   224A      0.876605   225A      0.878352  
     226A      0.879070   227A      0.882480   228A      0.888538  
     229A      0.892360   230A      0.899364   231A      0.902309  
     232A      0.910917   233A      0.914236   234A      0.920772  
     235A      0.924685   236A      0.932087   237A      0.937069  
     238A      0.938895   239A      0.942061   240A      0.950432  
     241A      0.953158   242A      0.961610   243A      0.964230  
     244A      0.968813   245A      0.977938   246A      0.980353  
     247A      0.984505   248A      0.985083   249A      0.993035  
     250A      1.001671   251A      1.002720   252A      1.009692  
     253A      1.012012   254A      1.015214   255A      1.022061  
     256A      1.026618   257A      1.033037   258A      1.039693  
     259A      1.042149   260A      1.052537   261A      1.053744  
     262A      1.064154   263A      1.068387   264A      1.068727  
     265A      1.073383   266A      1.076194   267A      1.076545  
     268A      1.081809   269A      1.085001   270A      1.089900  
     271A      1.095442   272A      1.108519   273A      1.110301  
     274A      1.113067   275A      1.118875   276A      1.122666  
     277A      1.125633   278A      1.134194   279A      1.138522  
     280A      1.144462   281A      1.147913   282A      1.152734  
     283A      1.160141   284A      1.163952   285A      1.171188  
     286A      1.181505   287A      1.183112   288A      1.185130  
     289A      1.192504   290A      1.198063   291A      1.200044  
     292A      1.203438   293A      1.208320   294A      1.212735  
     295A      1.225848   296A      1.231192   297A      1.235814  
     298A      1.236815   299A      1.242499   300A      1.245661  
     301A      1.254553   302A      1.262123   303A      1.270490  
     304A      1.274357   305A      1.282374   306A      1.286969  
     307A      1.291511   308A      1.296464   309A      1.309887  
     310A      1.319517   311A      1.320948   312A      1.333167  
     313A      1.335275   314A      1.346154   315A      1.350546  
     316A      1.359218   317A      1.367237   318A      1.372613  
     319A      1.379973   320A      1.380954   321A      1.394040  
     322A      1.397756   323A      1.405578   324A      1.410161  
     325A      1.423225   326A      1.424203   327A      1.438967  
     328A      1.442929   329A      1.446433   330A      1.465140  
     331A      1.476040   332A      1.482279   333A      1.489819  
     334A      1.497439   335A      1.500722   336A      1.506885  
     337A      1.509121   338A      1.527802   339A      1.540966  
     340A      1.543786   341A      1.550698   342A      1.567173  
     343A      1.569209   344A      1.583422   345A      1.589207  
     346A      1.592902   347A      1.603902   348A      1.605892  
     349A      1.625875   350A      1.627940   351A      1.645347  
     352A      1.651082   353A      1.654744   354A      1.659430  
     355A      1.669940   356A      1.677852   357A      1.681440  
     358A      1.690199   359A      1.702329   360A      1.710896  
     361A      1.717058   362A      1.721230   363A      1.725824  
     364A      1.730440   365A      1.741457   366A      1.746399  
     367A      1.756456   368A      1.757799   369A      1.768675  
     370A      1.782661   371A      1.787413   372A      1.793367  
     373A      1.810940   374A      1.812332   375A      1.815539  
     376A      1.825412   377A      1.831484   378A      1.845838  
     379A      1.854981   380A      1.867697   381A      1.870810  
     382A      1.879292   383A      1.887361   384A      1.896215  
     385A      1.907911   386A      1.916489   387A      1.921938  
     388A      1.927345   389A      1.936806   390A      1.943145  
     391A      1.953900   392A      1.956599   393A      1.963977  
     394A      1.968931   395A      1.977795   396A      1.993048  
     397A      2.002533   398A      2.004727   399A      2.009965  
     400A      2.013442   401A      2.019519   402A      2.027386  
     403A      2.037688   404A      2.048444   405A      2.051422  
     406A      2.059242   407A      2.064427   408A      2.073999  
     409A      2.080507   410A      2.092469   411A      2.093776  
     412A      2.103405   413A      2.117743   414A      2.121403  
     415A      2.129625   416A      2.130503   417A      2.144094  
     418A      2.146158   419A      2.157408   420A      2.170367  
[...]
	 R(5,7)           =         2.618462	       1.385630
	 R(5,10)          =         2.629130	       1.391276
	 R(5,18)          =         2.037357	       1.078123
	 R(6,8)           =         2.618427	       1.385612
	 R(6,10)          =         2.629239	       1.391333
	 R(6,19)          =         2.040402	       1.079734
	 R(7,12)          =         2.523288	       1.335267
	 R(7,20)          =         2.042522	       1.080856
	 R(8,12)          =         2.522095	       1.334635
	 R(8,21)          =         2.042835	       1.081022
	 R(9,10)          =         2.763455	       1.462357
	 R(9,11)          =         2.626016	       1.389628
	 R(11,13)         =         2.545077	       1.346797
	 B(1,2,4)         =         2.092831	     119.910377
	 B(1,2,15)        =         2.102269	     120.451161
	 B(1,3,9)         =         2.120751	     121.510083
	 B(1,3,16)        =         2.095914	     120.087009
	 B(2,1,3)         =         2.092067	     119.866638
	 B(2,1,14)        =         2.098028	     120.208165
	 B(2,4,11)        =         2.077072	     119.007439
	 B(2,4,17)        =         2.127126	     121.875366
	 B(3,1,14)        =         2.093057	     119.923310
	 B(3,9,10)        =         2.107722	     120.763600
	 B(3,9,11)        =         2.039610	     116.861050
	 B(4,2,15)        =         2.088084	     119.638397
	 B(4,11,9)        =         2.144029	     122.843825
	 B(4,11,13)       =         2.060884	     118.079953
	 B(5,7,12)        =         2.161050	     123.819031
	 B(5,7,20)        =         2.093923	     119.972968
	 B(5,10,6)        =         2.043697	     117.095202
	 B(5,10,9)        =         2.134423	     122.293404
	 B(6,8,12)        =         2.157160	     123.596180
	 B(6,8,21)        =         2.096162	     120.101242
	 B(6,10,9)        =         2.104444	     120.575748
	 B(7,5,10)        =         2.081481	     119.260062
	 B(7,5,18)        =         2.096273	     120.107622
	 B(7,12,8)        =         2.037501	     116.740190
	 B(8,6,10)        =         2.085476	     119.488974
	 B(8,6,19)        =         2.096677	     120.130759
	 B(9,3,16)        =         2.066312	     118.390933
	 B(9,11,13)       =         2.078045	     119.063210
	 B(10,5,18)       =         2.105368	     120.628706
	 B(10,6,19)       =         2.100872	     120.371120
	 B(10,9,11)       =         2.135838	     122.374512
	 B(11,4,17)       =         2.078975	     119.116481
	 B(12,7,20)       =         2.028210	     116.207888
	 B(12,8,21)       =         2.029859	     116.302347
	 D(1,2,4,11)      =        -0.002551	      -0.146153
	 D(1,2,4,17)      =         3.133628	     179.543669
	 D(1,3,9,10)      =         3.138215	     179.806463
	 D(1,3,9,11)      =         0.002300	       0.131768
	 D(2,1,3,9)       =        -0.000090	      -0.005159
	 D(2,1,3,16)      =         3.119175	     178.715577
	 D(2,4,11,9)      =         0.005021	       0.287687
	 D(2,4,11,13)     =         3.123471	     178.961708
	 D(3,1,2,4)       =         0.000185	       0.010576
	 D(3,1,2,15)      =        -3.139796	    -179.897035
	 D(3,9,10,5)      =        -2.358024	    -135.104835
	 D(3,9,10,6)      =         0.744556	      42.659900
	 D(3,9,11,4)      =        -0.004828	      -0.276649
	 D(3,9,11,13)     =        -3.123061	    -178.938216
	 D(4,2,1,14)      =         3.133049	     179.510503
	 D(4,11,9,10)     =        -3.140644	    -179.945675
	 D(5,7,12,8)      =        -0.000880	      -0.050430
	 D(5,10,6,8)      =         0.000462	       0.026484
	 D(5,10,6,19)     =        -3.121956	    -178.874875
	 D(5,10,9,11)     =         0.777571	      44.551549
	 D(6,8,12,7)      =        -0.001944	      -0.111412
	 D(6,10,5,7)      =        -0.003042	      -0.174269
	 D(6,10,5,18)     =        -3.132582	    -179.483736
	 D(6,10,9,11)     =        -2.403034	    -137.683716
	 D(7,5,10,9)      =         3.100823	     177.664052
	 D(7,12,8,21)     =         3.136589	     179.713293
	 D(8,6,10,9)      =        -3.104087	    -177.851109
	 D(8,12,7,20)     =         3.138569	     179.826736
	 D(9,3,1,14)      =        -3.132980	    -179.506524
	 D(9,10,5,18)     =        -0.028718	      -1.645415
	 D(9,10,6,19)     =         0.056680	       3.247532
	 D(9,11,4,17)     =        -3.131309	    -179.410810
	 D(10,5,7,12)     =         0.003423	       0.196148
	 D(10,5,7,20)     =        -3.135949	    -179.676631
	 D(10,6,8,12)     =         0.002152	       0.123313
	 D(10,6,8,21)     =        -3.136270	    -179.695044
	 D(10,9,3,16)     =         0.018582	       1.064698
	 D(10,9,11,13)    =         0.024308	       1.392758
	 D(11,4,2,15)     =         3.137442	     179.762213
	 D(11,9,3,16)     =        -3.117333	    -178.609997
	 D(12,7,5,18)     =         3.133028	     179.509285
	 D(12,8,6,19)     =         3.124617	     179.027357
	 D(13,11,4,17)    =        -0.012859	      -0.736790
	 D(14,1,2,15)     =        -0.006931	      -0.397107
	 D(14,1,3,16)     =        -0.013715	      -0.785788
	 D(15,2,4,17)     =        -0.009564	      -0.547965
	 D(18,5,7,20)     =        -0.006344	      -0.363494
	 D(19,6,8,21)     =        -0.013806	      -0.791000
	 R(5,13)          =         5.461259	       2.889974

	Current energy   :      -577.7279405018

	Energy change for the previous step:
		Projected    :         0.0000025325
		Actual       :        -0.0000009053

	Performing BFGS update.
	Previous computed or guess Hessian on step 1.
	Steps to be used in Hessian update: 5 4
	Adding user-defined constraint: Fragment 1; Coordinate 67:
		Value =    -2.358024; Fixed value    =    -2.356190
		Force =     0.001146; Force constant =     0.625000
	Removing off-diagonal coupling between coordinate 67 and others.
	Taking RFO optimization step.
	Going to follow RFO solution 1.
	Using RFO vector 1.
	Norm of target step-size    0.00466
	Projected energy change by RFO approximation:        -0.0000004122

	Back-transformation to cartesian coordinates...
	Could not converge backtransformation.
	Using first guess instead.

	--- Internal Coordinate Step in ANG or DEG, aJ/ANG or AJ/DEG ---
	 ---------------------------------------------------------------------------
	   Coordinate                Previous        Force       Change         New 
	   ----------                --------       ------       ------       ------
	    1 R(1,2)          =      1.388072     0.000236     0.000048     1.388121
	    2 R(1,3)          =      1.385453    -0.000070    -0.000011     1.385441
	    3 R(1,14)         =      1.078467    -0.000091    -0.000010     1.078457
	    4 R(2,4)          =      1.386887    -0.000284    -0.000049     1.386837
	    5 R(2,15)         =      1.078787    -0.000095    -0.000015     1.078772
	    6 R(3,9)          =      1.395363     0.000156     0.000050     1.395413
	    7 R(3,16)         =      1.079742    -0.000155    -0.000025     1.079717
	    8 R(4,11)         =      1.379436     0.000202     0.000050     1.379486
	    9 R(4,17)         =      1.077887    -0.000051    -0.000002     1.077884
	   10 R(5,7)          =      1.385630     0.000123     0.000017     1.385647
	   11 R(5,10)         =      1.391276    -0.000182    -0.000030     1.391246
	   12 R(5,18)         =      1.078123    -0.000061     0.000001     1.078124
	   13 R(6,8)          =      1.385612    -0.000020    -0.000010     1.385602
	   14 R(6,10)         =      1.391333    -0.000129    -0.000012     1.391321
	   15 R(6,19)         =      1.079734    -0.000134    -0.000022     1.079713
	   16 R(7,12)         =      1.335267    -0.000108    -0.000005     1.335262
	   17 R(7,20)         =      1.080856    -0.000093    -0.000013     1.080843
	   18 R(8,12)         =      1.334635     0.000089     0.000029     1.334664
	   19 R(8,21)         =      1.081022    -0.000072    -0.000008     1.081014
	   20 R(9,10)         =      1.462357     0.000748     0.000139     1.462497
	   21 R(9,11)         =      1.389628    -0.000432    -0.000064     1.389563
	   22 R(11,13)        =      1.346797    -0.000771    -0.000079     1.346718
	   23 B(1,2,4)        =    119.910377    -0.000000    -0.003752   119.906625
	   24 B(1,2,15)       =    120.451161     0.000000     0.001767   120.452929
	   25 B(1,3,9)        =    121.510083     0.000001     0.004682   121.514764
	   26 B(1,3,16)       =    120.087009    -0.000001    -0.006799   120.080211
	   27 B(2,1,3)        =    119.866638    -0.000001    -0.003601   119.863037
	   28 B(2,1,14)       =    120.208165     0.000001     0.004136   120.212301
	   29 B(2,4,11)       =    119.007439     0.000001     0.008542   119.015981
	   30 B(2,4,17)       =    121.875366    -0.000001    -0.003103   121.872263
	   31 B(3,1,14)       =    119.923310     0.000000    -0.000392   119.922917
	   32 B(3,9,10)       =    120.763600    -0.000001    -0.017593   120.746006
	   33 B(3,9,11)       =    116.861050     0.000000    -0.000600   116.860450
	   34 B(4,2,15)       =    119.638397     0.000000     0.001960   119.640358
	   35 B(4,11,9)       =    122.843825    -0.000001    -0.005336   122.838489
	   36 B(4,11,13)      =    118.079953     0.000001    -0.003510   118.076442
	   37 B(5,7,12)       =    123.819031    -0.000001    -0.001238   123.817793
	   38 B(5,7,20)       =    119.972968     0.000001     0.005948   119.978916
	   39 B(5,10,6)       =    117.095202     0.000000    -0.001384   117.093818
	   40 B(5,10,9)       =    122.293404    -0.000002     0.000481   122.293885
	   41 B(6,8,12)       =    123.596180    -0.000000     0.001347   123.597527
	   42 B(6,8,21)       =    120.101242     0.000001     0.006753   120.107994
	   43 B(6,10,9)       =    120.575748     0.000002     0.000760   120.576508
	   44 B(7,5,10)       =    119.260062     0.000001     0.003008   119.263069
	   45 B(7,5,18)       =    120.107622     0.000001     0.004123   120.111744
	   46 B(7,12,8)       =    116.740190    -0.000000    -0.002047   116.738143
	   47 B(8,6,10)       =    119.488974     0.000000     0.000486   119.489460
	   48 B(8,6,19)       =    120.130759    -0.000000    -0.001592   120.129167
	   49 B(9,3,16)       =    118.390933     0.000000     0.002099   118.393031
	   50 B(9,11,13)      =    119.063210    -0.000001     0.008066   119.071276
	   51 B(10,5,18)      =    120.628706    -0.000001    -0.006988   120.621717
	   52 B(10,6,19)      =    120.371120    -0.000000     0.001430   120.372550
	   53 B(10,9,11)      =    122.374512     0.000000     0.018212   122.392724
	   54 B(11,4,17)      =    119.116481    -0.000001    -0.005488   119.110993
	   55 B(12,7,20)      =    116.207888    -0.000001    -0.004932   116.202956
	   56 B(12,8,21)      =    116.302347    -0.000001    -0.008568   116.293779
	   57 D(1,2,4,11)     =     -0.146153     0.000000     0.018243    -0.127910
	   58 D(1,2,4,17)     =    179.543669     0.000000     0.007725   179.551394
	   59 D(1,3,9,10)     =    179.806463    -0.000000     0.009227   179.815690
	   60 D(1,3,9,11)     =      0.131768     0.000000     0.005513     0.137282
	   61 D(2,1,3,9)      =     -0.005159     0.000000     0.020884     0.015725
	   62 D(2,1,3,16)     =    178.715577     0.000000     0.019936   178.735514
	   63 D(2,4,11,9)     =      0.287687     0.000000     0.009065     0.296753
	   64 D(2,4,11,13)    =    178.961708    -0.000000    -0.030022   178.931686
	   65 D(3,1,2,4)      =      0.010576    -0.000000    -0.032890    -0.022314
	   66 D(3,1,2,15)     =   -179.897035    -0.000000    -0.016481  -179.913516
	   67 D(3,9,10,5)     =   -135.104835     0.000002     0.017846  -135.086989
	   68 D(3,9,10,6)     =     42.659900     0.000001     0.013327    42.673227
	   69 D(3,9,11,4)     =     -0.276649    -0.000001    -0.020694    -0.297343
	   70 D(3,9,11,13)    =   -178.938216    -0.000000     0.018913  -178.919304
	   71 D(4,2,1,14)     =    179.510503    -0.000000    -0.013618   179.496886
	   72 D(4,11,9,10)    =   -179.945675     0.000000    -0.024346  -179.970021
	   73 D(5,7,12,8)     =     -0.050430     0.000000     0.013440    -0.036990
	   74 D(5,10,6,8)     =      0.026484    -0.000000     0.025620     0.052105
	   75 D(5,10,6,19)    =   -178.874875    -0.000000     0.005992  -178.868883
	   76 D(5,10,9,11)    =     44.551549     0.000001     0.021698    44.573247
	   77 D(6,8,12,7)     =     -0.111412     0.000000     0.045516    -0.065896
	   78 D(6,10,5,7)     =     -0.174269     0.000000     0.028304    -0.145965
	   79 D(6,10,5,18)    =   -179.483736     0.000000     0.014566  -179.469170
	   80 D(6,10,9,11)    =   -137.683716     0.000000     0.017179  -137.666537
	   81 D(7,5,10,9)     =    177.664052    -0.000000     0.023978   177.688031
	   82 D(7,12,8,21)    =    179.713293    -0.000000    -0.083994   179.629300
	   83 D(8,6,10,9)     =   -177.851109     0.000001     0.029873  -177.821236
	   84 D(8,12,7,20)    =    179.826736    -0.000001    -0.075132   179.751604
	   85 D(9,3,1,14)     =   -179.506524    -0.000000     0.001645  -179.504879
	   86 D(9,10,5,18)    =     -1.645415    -0.000000     0.010240    -1.635175
	   87 D(9,10,6,19)    =      3.247532     0.000000     0.010244     3.257776
	   88 D(9,11,4,17)    =   -179.410810     0.000000     0.019283  -179.391527
	   89 D(10,5,7,12)    =      0.196148    -0.000000    -0.050499     0.145649
	   90 D(10,5,7,20)    =   -179.676631     0.000000     0.041259  -179.635373
	   91 D(10,6,8,12)    =      0.123313    -0.000000    -0.065926     0.057388
	   92 D(10,6,8,21)    =   -179.695044     0.000001     0.068319  -179.626726
	   93 D(10,9,3,16)    =      1.064698    -0.000000     0.010270     1.074969
	   94 D(10,9,11,13)   =      1.392758     0.000001     0.015261     1.408019
	   95 D(11,4,2,15)    =    179.762213    -0.000000     0.001968   179.764181
	   96 D(11,9,3,16)    =   -178.609997     0.000000     0.006557  -178.603440
	   97 D(12,7,5,18)    =    179.509285    -0.000000    -0.036910   179.472375
	   98 D(12,8,6,19)    =    179.027357    -0.000000    -0.046312   178.981046
	   99 D(13,11,4,17)   =     -0.736790    -0.000000    -0.019804    -0.756593
	  100 D(14,1,2,15)    =     -0.397107     0.000000     0.002791    -0.394316
	  101 D(14,1,3,16)    =     -0.785788    -0.000000     0.000698    -0.785090
	  102 D(15,2,4,17)    =     -0.547965    -0.000000    -0.008550    -0.556516
	  103 D(18,5,7,20)    =     -0.363494     0.000000     0.054847    -0.308647
	  104 D(19,6,8,21)    =     -0.791000     0.000001     0.087932    -0.703067
	  105 R(5,13)         =      2.889974     0.000421     0.001163     2.891136
	 ---------------------------------------------------------------------------
	Successfully symmetrized geometry.
	 Forces used to impose fixed constraints are not included.
	  Forces zeroed: 67 

  ==> Convergence Check <==

  Measures of convergence in internal coordinates in au.
  Criteria marked as inactive (o), active & met (*), and active & unmet ( ).
  ---------------------------------------------------------------------------------------------
   Step     Total Energy     Delta E     MAX Force     RMS Force      MAX Disp      RMS Disp   
  ---------------------------------------------------------------------------------------------
    Convergence Criteria    1.00e-06 *    3.00e-04 *             o    1.20e-03 *             o
  ---------------------------------------------------------------------------------------------
      6    -577.72794050   -9.05e-07 *    9.35e-05 *    2.37e-05 o    2.20e-03      4.54e-04 o  ~
  ---------------------------------------------------------------------------------------------


  **** Optimization is complete! (in 6 steps) ****

  ==> Optimization Summary <==

  Measures of convergence in internal coordinates in au.
  --------------------------------------------------------------------------------------------------------------- ~
   Step         Total Energy             Delta E       MAX Force       RMS Force        MAX Disp        RMS Disp  ~
  --------------------------------------------------------------------------------------------------------------- ~
      1    -577.724440684684   -577.724440684684      0.01472663      0.00436617      0.02928064      0.00977097  ~
      2    -577.727224716929     -0.002784032245      0.00418685      0.00136069      0.05498870      0.00977021  ~
      3    -577.727824715039     -0.000599998110      0.00198429      0.00035491      0.04698307      0.00684386  ~
      4    -577.727922937120     -0.000098222081      0.00063156      0.00014002      0.02779407      0.00322825  ~
      5    -577.727939596481     -0.000016659361      0.00028466      0.00005874      0.00705998      0.00091353  ~
      6    -577.727940501828     -0.000000905347      0.00011278      0.00002610      0.00219697      0.00045447  ~
  --------------------------------------------------------------------------------------------------------------- ~

	Writing optimization data to binary file.
	Final energy is   -577.7279405018279
	Final (previous) structure:
	Cartesian Geometry (in Angstrom)
	    C    -1.3441377089   0.8466434530  -2.6735613954
	    C    -2.4391249316   1.4098982414  -2.0328648349
	    C    -0.3297860096   0.2692491650  -1.9271127767
	    C    -2.5141868849   1.3931079076  -0.6481126850
	    C     0.4531327461  -1.2356842096   1.3076434907
	    C     2.0306557256  -0.1641022582  -0.1058353942
	    C     1.5215838267  -1.8245296293   1.9646401290
	    C     3.0325900506  -0.7959677766   0.6130486296
	    C    -0.3777956302   0.2373648141  -0.5329407694
	    C     0.7000725501  -0.3801159703   0.2386853611
	    C    -1.4915097435   0.8091470789   0.0701933538
	    N     2.7997285246  -1.6195716330   1.6371109145
	    F    -1.5731834693   0.8221263447   1.4144484854
	    H    -1.2846021927   0.8500225833  -3.7503786607
	    H    -3.2350872851   1.8605096748  -2.6048557516
	    H     0.5135519726  -0.1882866934  -2.4223749277
	    H    -3.3460380686   1.8274943618  -0.1178565151
	    H    -0.5569648655  -1.4498647116   1.6177699856
	    H     2.2833943227   0.5042307406  -0.9153295242
	    H     1.3427773787  -2.4951621983   2.7932114233
	    H     4.0698764780  -0.6313520764   0.3570286703
	Saving final (previous) structure.
			--------------------------
			 OPTKING Finished Execution 
			--------------------------

    Final optimized geometry and variables:
    Molecular point group: c1
    Full point group: C1

    Geometry (in Angstrom), charge = 0, multiplicity = 1:

    C           -1.344137708888     0.846643452965    -2.673561395417
    C           -2.439124931568     1.409898241351    -2.032864834889
    C           -0.329786009616     0.269249164992    -1.927112776702
    C           -2.514186884907     1.393107907628    -0.648112685049
    C            0.453132746145    -1.235684209626     1.307643490724
    C            2.030655725627    -0.164102258221    -0.105835394169
    C            1.521583826698    -1.824529629343     1.964640129014
    C            3.032590050572    -0.795967776643     0.613048629558
    C           -0.377795630220     0.237364814094    -0.532940769413
    C            0.700072550148    -0.380115970260     0.238685361059
    C           -1.491509743480     0.809147078942     0.070193353807
    N            2.799728524572    -1.619571633006     1.637110914501
    F           -1.573183469310     0.822126344711     1.414448485376
    H           -1.284602192723     0.850022583258    -3.750378660747
    H           -3.235087285120     1.860509674829    -2.604855751589
    H            0.513551972624    -0.188286693381    -2.422374927691
    H           -3.346038068580     1.827494361807    -0.117856515070
    H           -0.556964865508    -1.449864711629     1.617769985599
    H            2.283394322701     0.504230740619    -0.915329524178
    H            1.342777378673    -2.495162198341     2.793211423287
    H            4.069876477982    -0.631352076361     0.357028670275

	Cleaning optimization helper files.

*** Psi4 exiting successfully. Buy a developer a beer!
