
    -----------------------------------------------------------------------
          Psi4: An Open-Source Ab Initio Electronic Structure Package
                               Psi4 1.1 release

                         Git: Rev {HEAD} add49b9 


    R. M. Parrish, L. A. Burns, D. G. A. Smith, A. C. Simmonett,
    A. E. DePrince III, E. G. Hohenstein, U. Bozkaya, A. Yu. Sokolov,
    R. Di Remigio, R. M. Richard, J. F. Gonthier, A. M. James,
    H. R. McAlexander, A. Kumar, M. Saitow, X. Wang, B. P. Pritchard,
    P. Verma, H. F. Schaefer III, K. Patkowski, R. A. King, E. F. Valeev,
    F. A. Evangelista, J. M. Turney, T. D. Crawford, and C. D. Sherrill,
    J. Chem. Theory Comput. in press (2017).
    (doi: 10.1021/acs.jctc.7b00174)

    -----------------------------------------------------------------------


    Psi4 started on: Sunday, 12 November 2017 06:40AM

    Process ID:  21241
    PSIDATADIR: /cbio/jclab/home/chayas/anaconda/envs/py35/share/psi4
    Memory:     500.0 MiB
    Threads:    8
    
  ==> Input File <==

--------------------------------------------------------------------------

memory 5 Gb

molecule phepyrOH_cation {
  symmetry C1
  1 1 
  C      1.885   -1.036   -0.112
  C      2.878   -1.652   2.002
  C      0.807   -0.463   0.561
  C      1.800   -1.079   2.676
  C      5.329   -1.752   0.130
  C      3.828   -3.271   -0.984
  C      6.383   -2.341   -0.554
  C      4.920   -3.821   -1.640
  C      2.921   -1.631   0.608
  C      4.040   -2.225   -0.090
  C      0.764   -0.484   1.955
  N      6.151   -3.346   -1.409
  O      -0.288   0.076   2.612
  H      1.904   -1.012   -1.199
  H      3.678   -2.112   2.578
  H      0.003   -0.001   -0.006
  H      1.772   -1.098   3.762
  H      5.524   -0.938   0.822
  H      2.832   -3.660   -1.175
  H      7.416   -2.039   -0.445
  H      4.850   -4.635   -2.349
  H      6.940   -3.764   -1.902
  H      -0.175   -0.018   3.571
  units Angstrom
}

dih_string = "1 9 10 5 120"
set optking fixed_dihedral = $dih_string

optimize('MP2/aug-cc-PVTZ')
--------------------------------------------------------------------------

  Memory set to   4.657 GiB by Python driver.
gradient() will perform analytic gradient computation.

*** tstart() called on gpu-2-9.local
*** at Sun Nov 12 06:40:09 2017

    SCF Algorithm Type (re)set to DF.

*** tstart() called on gpu-2-9.local
*** at Sun Nov 12 06:40:09 2017

   => Loading Basis Set <=

    Name: AUG-CC-PVTZ
    Role: ORBITAL
    Keyword: BASIS
    atoms 1-11  entry C          line   221 file /cbio/jclab/home/chayas/anaconda/envs/py35/share/psi4/basis/aug-cc-pvtz.gbs 
    atoms 12    entry N          line   267 file /cbio/jclab/home/chayas/anaconda/envs/py35/share/psi4/basis/aug-cc-pvtz.gbs 
    atoms 13    entry O          line   313 file /cbio/jclab/home/chayas/anaconda/envs/py35/share/psi4/basis/aug-cc-pvtz.gbs 
    atoms 14-23 entry H          line    34 file /cbio/jclab/home/chayas/anaconda/envs/py35/share/psi4/basis/aug-cc-pvtz.gbs 


         ---------------------------------------------------------
                                   SCF
            by Justin Turney, Rob Parrish, and Andy Simmonett
                              RHF Reference
                        8 Threads,   4768 MiB Core
         ---------------------------------------------------------

  ==> Geometry <==

    Molecular point group: c1
    Full point group: C1

    Geometry (in Angstrom), charge = 1, multiplicity = 1:

       Center              X                  Y                   Z               Mass       
    ------------   -----------------  -----------------  -----------------  -----------------
           C         -1.271753361402     0.719771262229    -0.578990691733    12.000000000000
           C         -0.278753361402     0.103771262229     1.535009308267    12.000000000000
           C         -2.349753361402     1.292771262229     0.094009308267    12.000000000000
           C         -1.356753361402     0.676771262229     2.209009308267    12.000000000000
           C          2.172246638598     0.003771262229    -0.336990691733    12.000000000000
           C          0.671246638598    -1.515228737771    -1.450990691733    12.000000000000
           C          3.226246638598    -0.585228737771    -1.020990691733    12.000000000000
           C          1.763246638598    -2.065228737771    -2.106990691733    12.000000000000
           C         -0.235753361402     0.124771262229     0.141009308267    12.000000000000
           C          0.883246638598    -0.469228737771    -0.556990691733    12.000000000000
           C         -2.392753361402     1.271771262229     1.488009308267    12.000000000000
           N          2.994246638598    -1.590228737771    -1.875990691733    14.003074004780
           O         -3.444753361402     1.831771262229     2.145009308267    15.994914619560
           H         -1.252753361402     0.743771262229    -1.665990691733     1.007825032070
           H          0.521246638598    -0.356228737771     2.111009308267     1.007825032070
           H         -3.153753361402     1.754771262229    -0.472990691733     1.007825032070
           H         -1.384753361402     0.657771262229     3.295009308267     1.007825032070
           H          2.367246638598     0.817771262229     0.355009308267     1.007825032070
           H         -0.324753361402    -1.904228737771    -1.641990691733     1.007825032070
           H          4.259246638598    -0.283228737771    -0.911990691733     1.007825032070
           H          1.693246638598    -2.879228737771    -2.815990691733     1.007825032070
           H          3.783246638598    -2.008228737771    -2.368990691733     1.007825032070
           H         -3.331753361402     1.737771262229     3.104009308267     1.007825032070

  Running in c1 symmetry.

  Rotational constants: A =      0.09612  B =      0.01303  C =      0.01220 [cm^-1]
  Rotational constants: A =   2881.65955  B =    390.49519  C =    365.68802 [MHz]
  Nuclear repulsion =  712.217035060566218

  Charge       = 1
  Multiplicity = 1
  Electrons    = 90
  Nalpha       = 45
  Nbeta        = 45

  ==> Algorithm <==

  SCF Algorithm Type is DF.
  DIIS enabled.
  MOM disabled.
  Fractional occupation disabled.
  Guess Type is SAD.
  Energy threshold   = 1.00e-10
  Density threshold  = 1.00e-10
  Integral threshold = 0.00e+00

  ==> Primary Basis <==

  Basis Set: AUG-CC-PVTZ
    Blend: AUG-CC-PVTZ
    Number of shells: 272
    Number of basis function: 828
    Number of Cartesian functions: 965
    Spherical Harmonics?: true
    Max angular momentum: 3

   => Loading Basis Set <=

    Name: (AUG-CC-PVTZ AUX)
    Role: JKFIT
    Keyword: DF_BASIS_SCF
    atoms 1-11  entry C          line   161 file /cbio/jclab/home/chayas/anaconda/envs/py35/share/psi4/basis/aug-cc-pvtz-jkfit.gbs 
    atoms 12    entry N          line   223 file /cbio/jclab/home/chayas/anaconda/envs/py35/share/psi4/basis/aug-cc-pvtz-jkfit.gbs 
    atoms 13    entry O          line   285 file /cbio/jclab/home/chayas/anaconda/envs/py35/share/psi4/basis/aug-cc-pvtz-jkfit.gbs 
    atoms 14-23 entry H          line    69 file /cbio/jclab/home/chayas/anaconda/envs/py35/share/psi4/basis/aug-cc-pvtz-jkfit.gbs 

  ==> Pre-Iterations <==

   -------------------------------------------------------
    Irrep   Nso     Nmo     Nalpha   Nbeta   Ndocc  Nsocc
   -------------------------------------------------------
     A        828     828       0       0       0       0
   -------------------------------------------------------
    Total     828     828      45      45      45       0
   -------------------------------------------------------

  ==> Integral Setup <==

  ==> DFJK: Density-Fitted J/K Matrices <==

    J tasked:                  Yes
    K tasked:                  Yes
    wK tasked:                  No
    OpenMP threads:              8
    Integrals threads:           8
    Memory (MB):              3576
    Algorithm:                Disk
    Integral Cache:           NONE
    Schwarz Cutoff:          1E-12
    Fitting Condition:       1E-12

   => Auxiliary Basis Set <=

  Basis Set: (AUG-CC-PVTZ AUX)
    Blend: AUG-CC-PVTZ-JKFIT
    Number of shells: 530
    Number of basis function: 1812
    Number of Cartesian functions: 2253
    Spherical Harmonics?: true
    Max angular momentum: 4

  Minimum eigenvalue in the overlap matrix is 5.6349213475E-07.
  Using Symmetric Orthogonalization.

  SCF Guess: Superposition of Atomic Densities via on-the-fly atomic UHF.

  ==> Iterations <==

                           Total Energy        Delta E     RMS |[F,P]|

   @DF-RHF iter   0:  -553.66796219213074   -5.53668e+02   1.93999e-02 
   @DF-RHF iter   1:  -551.23280735389926    2.43515e+00   2.13195e-03 
   @DF-RHF iter   2:  -551.58276143526496   -3.49954e-01   1.16603e-03 DIIS
   @DF-RHF iter   3:  -551.65409834173056   -7.13369e-02   4.13038e-04 DIIS
   @DF-RHF iter   4:  -551.67015842853436   -1.60601e-02   1.62381e-04 DIIS
   @DF-RHF iter   5:  -551.67258315635218   -2.42473e-03   5.45176e-05 DIIS
   @DF-RHF iter   6:  -551.67298248330860   -3.99327e-04   1.93435e-05 DIIS
   @DF-RHF iter   7:  -551.67303228682738   -4.98035e-05   6.77486e-06 DIIS
   @DF-RHF iter   8:  -551.67303774179334   -5.45497e-06   2.13988e-06 DIIS
   @DF-RHF iter   9:  -551.67303862335314   -8.81560e-07   1.13772e-06 DIIS
   @DF-RHF iter  10:  -551.67303890728647   -2.83933e-07   5.26781e-07 DIIS
   @DF-RHF iter  11:  -551.67303898682610   -7.95396e-08   1.80737e-07 DIIS
   @DF-RHF iter  12:  -551.67303899533226   -8.50616e-09   6.87860e-08 DIIS
   @DF-RHF iter  13:  -551.67303899605690   -7.24640e-10   2.44331e-08 DIIS
   @DF-RHF iter  14:  -551.67303899618014   -1.23237e-10   9.42900e-09 DIIS
   @DF-RHF iter  15:  -551.67303899620322   -2.30784e-11   4.16876e-09 DIIS
   @DF-RHF iter  16:  -551.67303899622505   -2.18279e-11   2.03215e-09 DIIS
   @DF-RHF iter  17:  -551.67303899620106    2.39879e-11   9.11270e-10 DIIS
   @DF-RHF iter  18:  -551.67303899620958   -8.52651e-12   4.00884e-10 DIIS
   @DF-RHF iter  19:  -551.67303899619174    1.78488e-11   1.57161e-10 DIIS
   @DF-RHF iter  20:  -551.67303899620993   -1.81899e-11   7.03009e-11 DIIS

  ==> Post-Iterations <==

    Orbital Energies (a.u.)
    -----------------------

    Doubly Occupied:                                                      

       1A    -20.695572     2A    -15.841714     3A    -11.488541  
       4A    -11.488261     5A    -11.447461     6A    -11.424476  
       7A    -11.419014     8A    -11.418939     9A    -11.373201  
      10A    -11.371686    11A    -11.367869    12A    -11.352481  
      13A    -11.349032    14A     -1.517356    15A     -1.510915  
      16A     -1.320173    17A     -1.261837    18A     -1.241501  
      19A     -1.152419    20A     -1.144483    21A     -1.070629  
      22A     -1.055239    23A     -0.971138    24A     -0.966692  
      25A     -0.946267    26A     -0.873111    27A     -0.858509  
      28A     -0.849274    29A     -0.821789    30A     -0.800131  
      31A     -0.787661    32A     -0.775412    33A     -0.750515  
      34A     -0.729961    35A     -0.716173    36A     -0.711463  
      37A     -0.697474    38A     -0.682510    39A     -0.648366  
      40A     -0.620469    41A     -0.611310    42A     -0.574124  
      43A     -0.540254    44A     -0.464667    45A     -0.435881  

    Virtual:                                                              

      46A     -0.102747    47A     -0.086932    48A     -0.067295  
      49A     -0.063337    50A     -0.059615    51A     -0.052652  
      52A     -0.042182    53A     -0.039902    54A     -0.038210  
      55A     -0.031224    56A     -0.023746    57A     -0.021469  
      58A     -0.014121    59A     -0.010155    60A     -0.003964  
      61A     -0.002586    62A     -0.001160    63A      0.008280  
      64A      0.009268    65A      0.012347    66A      0.013277  
      67A      0.018450    68A      0.019048    69A      0.026674  
      70A      0.029907    71A      0.032815    72A      0.034226  
      73A      0.037207    74A      0.039776    75A      0.043941  
      76A      0.045894    77A      0.048690    78A      0.053324  
      79A      0.056566    80A      0.062617    81A      0.063251  
      82A      0.071055    83A      0.076044    84A      0.079069  
      85A      0.083931    86A      0.086315    87A      0.092695  
      88A      0.094936    89A      0.097052    90A      0.104874  
      91A      0.107364    92A      0.112251    93A      0.118221  
      94A      0.121788    95A      0.130344    96A      0.131825  
      97A      0.133736    98A      0.134520    99A      0.141141  
     100A      0.143397   101A      0.149967   102A      0.158008  
     103A      0.161709   104A      0.162183   105A      0.166328  
     106A      0.167781   107A      0.170040   108A      0.174907  
     109A      0.175525   110A      0.177330   111A      0.184575  
     112A      0.186575   113A      0.188561   114A      0.195799  
     115A      0.197956   116A      0.203139   117A      0.211031  
     118A      0.212695   119A      0.213396   120A      0.219254  
     121A      0.221800   122A      0.226814   123A      0.227950  
     124A      0.232356   125A      0.234105   126A      0.238857  
     127A      0.243821   128A      0.248205   129A      0.251945  
     130A      0.257512   131A      0.260485   132A      0.264521  
     133A      0.272220   134A      0.279503   135A      0.280838  
     136A      0.282415   137A      0.288651   138A      0.293643  
     139A      0.296310   140A      0.304221   141A      0.311174  
     142A      0.314627   143A      0.316110   144A      0.320392  
     145A      0.323356   146A      0.326058   147A      0.328835  
     148A      0.330593   149A      0.334470   150A      0.341048  
     151A      0.342625   152A      0.345429   153A      0.348173  
     154A      0.350038   155A      0.353747   156A      0.356425  
     157A      0.359433   158A      0.362677   159A      0.370597  
     160A      0.372605   161A      0.373108   162A      0.375414  
     163A      0.379377   164A      0.385512   165A      0.388975  
     166A      0.389971   167A      0.394250   168A      0.399288  
     169A      0.403835   170A      0.405795   171A      0.408408  
     172A      0.413295   173A      0.415758   174A      0.418822  
     175A      0.427650   176A      0.429126   177A      0.430855  
     178A      0.436204   179A      0.439617   180A      0.448232  
     181A      0.452311   182A      0.455051   183A      0.457091  
     184A      0.466857   185A      0.471582   186A      0.480430  
     187A      0.481597   188A      0.484335   189A      0.488529  
     190A      0.492575   191A      0.499219   192A      0.502653  
     193A      0.518289   194A      0.520500   195A      0.522964  
     196A      0.538911   197A      0.541247   198A      0.544979  
     199A      0.557598   200A      0.560140   201A      0.564394  
     202A      0.568533   203A      0.572748   204A      0.577454  
     205A      0.583189   206A      0.590602   207A      0.594803  
     208A      0.598556   209A      0.602948   210A      0.607152  
     211A      0.608841   212A      0.616211   213A      0.620572  
     214A      0.622995   215A      0.626584   216A      0.632674  
     217A      0.635111   218A      0.641209   219A      0.645585  
     220A      0.655905   221A      0.668580   222A      0.676466  
     223A      0.681679   224A      0.688536   225A      0.692435  
     226A      0.698463   227A      0.705859   228A      0.709625  
     229A      0.714408   230A      0.723052   231A      0.726225  
     232A      0.729272   233A      0.740992   234A      0.744941  
     235A      0.749573   236A      0.752975   237A      0.760134  
     238A      0.760342   239A      0.765762   240A      0.771250  
     241A      0.774278   242A      0.777900   243A      0.779883  
     244A      0.787717   245A      0.790431   246A      0.792284  
     247A      0.795660   248A      0.799078   249A      0.804306  
     250A      0.807614   251A      0.808289   252A      0.810234  
     253A      0.820234   254A      0.825451   255A      0.828612  
     256A      0.831979   257A      0.842286   258A      0.846910  
     259A      0.853998   260A      0.854296   261A      0.859640  
     262A      0.864823   263A      0.868849   264A      0.875108  
     265A      0.879496   266A      0.885109   267A      0.892040  
     268A      0.895796   269A      0.898763   270A      0.902470  
     271A      0.915594   272A      0.917947   273A      0.919418  
     274A      0.921829   275A      0.927402   276A      0.937644  
     277A      0.939376   278A      0.942978   279A      0.947537  
     280A      0.951942   281A      0.952213   282A      0.961600  
     283A      0.967118   284A      0.969393   285A      0.975259  
     286A      0.978493   287A      0.982442   288A      0.989570  
     289A      0.990220   290A      0.992716   291A      0.995517  
     292A      0.997817   293A      1.005163   294A      1.007348  
     295A      1.011121   296A      1.016776   297A      1.024512  
     298A      1.027434   299A      1.033221   300A      1.033735  
     301A      1.041921   302A      1.045268   303A      1.053317  
     304A      1.057631   305A      1.062179   306A      1.067087  
     307A      1.072632   308A      1.079482   309A      1.082495  
     310A      1.087109   311A      1.091508   312A      1.094405  
     313A      1.103798   314A      1.106948   315A      1.111824  
     316A      1.115772   317A      1.127285   318A      1.130748  
     319A      1.139221   320A      1.140423   321A      1.142631  
     322A      1.150437   323A      1.154713   324A      1.165336  
     325A      1.169119   326A      1.172420   327A      1.175203  
     328A      1.182099   329A      1.194622   330A      1.197260  
     331A      1.204370   332A      1.206081   333A      1.220077  
     334A      1.227551   335A      1.234119   336A      1.239628  
     337A      1.242957   338A      1.250882   339A      1.261411  
     340A      1.265118   341A      1.270180   342A      1.277382  
     343A      1.281939   344A      1.286748   345A      1.297258  
     346A      1.301456   347A      1.304630   348A      1.320064  
     349A      1.326891   350A      1.329324   351A      1.331270  
     352A      1.344625   353A      1.350538   354A      1.358529  
     355A      1.362242   356A      1.375541   357A      1.383128  
     358A      1.389532   359A      1.391574   360A      1.399556  
     361A      1.402305   362A      1.407794   363A      1.414101  
     364A      1.418585   365A      1.429356   366A      1.437840  
     367A      1.444411   368A      1.453898   369A      1.456071  
     370A      1.461409   371A      1.470621   372A      1.485615  
     373A      1.496530   374A      1.504186   375A      1.506251  
     376A      1.508986   377A      1.515797   378A      1.524613  
     379A      1.531227   380A      1.539090   381A      1.544686  
     382A      1.545327   383A      1.557642   384A      1.560043  
     385A      1.571479   386A      1.587615   387A      1.596828  
     388A      1.602726   389A      1.604415   390A      1.609143  
     391A      1.627277   392A      1.630179   393A      1.635202  
     394A      1.642067   395A      1.660357   396A      1.672264  
     397A      1.682261   398A      1.686432   399A      1.692998  
     400A      1.694981   401A      1.704176   402A      1.707160  
     403A      1.719483   404A      1.730756   405A      1.732617  
     406A      1.743891   407A      1.744825   408A      1.750585  
     409A      1.762919   410A      1.768713   411A      1.776275  
     412A      1.784836   413A      1.798680   414A      1.799980  
     415A      1.810098   416A      1.815313   417A      1.821057  
     418A      1.825435   419A      1.829725   420A      1.838041  
     421A      1.848694   422A      1.856036   423A      1.870109  
     424A      1.874591   425A      1.883236   426A      1.890799  
     427A      1.895799   428A      1.904808   429A      1.908471  
     430A      1.913757   431A      1.920930   432A      1.925645  
     433A      1.940853   434A      1.945024   435A      1.951479  
     436A      1.958323   437A      1.968989   438A      1.980948  
     439A      1.990898   440A      2.002458   441A      2.003954  
     442A      2.016133   443A      2.024298   444A      2.043016  
     445A      2.045953   446A      2.048884   447A      2.051861  
     448A      2.063834   449A      2.067985   450A      2.074284  
     451A      2.080509   452A      2.089111   453A      2.095612  
     454A      2.110199   455A      2.111450   456A      2.124850  
     457A      2.146931   458A      2.154307   459A      2.162777  
     460A      2.167981   461A      2.188624   462A      2.194930  
     463A      2.202307   464A      2.213217   465A      2.218965  
     466A      2.236803   467A      2.246716   468A      2.255472  
     469A      2.256441   470A      2.266035   471A      2.282339  
     472A      2.295740   473A      2.299422   474A      2.304449  
     475A      2.305536   476A      2.321911   477A      2.331556  
     478A      2.345940   479A      2.362016   480A      2.376420  
     481A      2.389248   482A      2.393613   483A      2.401577  
     484A      2.405537   485A      2.411830   486A      2.422659  
     487A      2.438447   488A      2.449198   489A      2.465814  
     490A      2.479246   491A      2.490288   492A      2.499162  
     493A      2.511532   494A      2.525697   495A      2.541114  
     496A      2.547666   497A      2.555214   498A      2.570212  
     499A      2.582354   500A      2.586558   501A      2.599151  
     502A      2.630314   503A      2.635301   504A      2.647825  
     505A      2.685477   506A      2.693169   507A      2.715277  
     508A      2.719277   509A      2.734255   510A      2.761109  
     511A      2.771470   512A      2.787195   513A      2.804760  
     514A      2.832933   515A      2.846322   516A      2.874933  
     517A      2.888579   518A      2.935438   519A      2.946908  
     520A      2.951389   521A      2.975364   522A      2.985544  
     523A      2.997847   524A      3.019188   525A      3.045609  
     526A      3.061160   527A      3.077889   528A      3.095380  
     529A      3.102387   530A      3.118213   531A      3.133810  
     532A      3.144514   533A      3.157811   534A      3.161200  
     535A      3.175143   536A      3.181373   537A      3.194981  
     538A      3.221553   539A      3.234165   540A      3.242889  
     541A      3.243453   542A      3.264372   543A      3.271190  
     544A      3.275605   545A      3.288719   546A      3.296134  
     547A      3.311772   548A      3.317008   549A      3.320531  
     550A      3.335839   551A      3.337938   552A      3.346251  
     553A      3.366715   554A      3.368250   555A      3.378315  
     556A      3.386979   557A      3.393681   558A      3.402389  
     559A      3.413272   560A      3.416828   561A      3.430107  
     562A      3.432570   563A      3.435124   564A      3.445119  
     565A      3.447479   566A      3.472771   567A      3.482074  
     568A      3.484240   569A      3.490996   570A      3.505176  
     571A      3.517146   572A      3.533015   573A      3.537459  
     574A      3.550802   575A      3.557812   576A      3.561442  
     577A      3.572961   578A      3.582063   579A      3.600001  
     580A      3.607203   581A      3.619031   582A      3.627040  
     583A      3.633092   584A      3.643571   585A      3.652711  
     586A      3.661415   587A      3.674249   588A      3.681152  
     589A      3.688836   590A      3.696188   591A      3.703903  
     592A      3.717293   593A      3.724004   594A      3.726331  
     595A      3.738215   596A      3.748649   597A      3.761888  
     598A      3.767996   599A      3.784074   600A      3.797656  
     601A      3.799215   602A      3.802609   603A      3.810945  
     604A      3.813633   605A      3.823363   606A      3.840274  
     607A      3.843173   608A      3.853392   609A      3.862572  
     610A      3.872330   611A      3.882015   612A      3.887505  
     613A      3.893640   614A      3.898873   615A      3.901902  
     616A      3.908476   617A      3.928060   618A      3.937265  
     619A      3.947848   620A      3.956531   621A      3.962562  
     622A      3.970692   623A      3.986543   624A      4.006513  
     625A      4.010796   626A      4.016251   627A      4.023742  
     628A      4.025852   629A      4.034477   630A      4.040043  
     631A      4.046444   632A      4.057995   633A      4.067736  
     634A      4.077213   635A      4.081103   636A      4.093582  
     637A      4.111046   638A      4.115649   639A      4.124844  
     640A      4.131165   641A      4.148966   642A      4.159696  
     643A      4.162755   644A      4.173687   645A      4.180172  
     646A      4.196207   647A      4.206122   648A      4.213648  
     649A      4.224647   650A      4.230383   651A      4.231099  
     652A      4.233185   653A      4.244188   654A      4.254795  
     655A      4.268093   656A      4.270696   657A      4.275977  
     658A      4.294205   659A      4.300947   660A      4.305934  
     661A      4.318110   662A      4.328608   663A      4.334891  
     664A      4.339084   665A      4.343047   666A      4.364367  
     667A      4.367371   668A      4.367729   669A      4.381995  
     670A      4.383260   671A      4.394636   672A      4.409912  
     673A      4.427883   674A      4.432329   675A      4.441266  
     676A      4.456367   677A      4.465102   678A      4.470968  
     679A      4.484972   680A      4.504386   681A      4.526669  
     682A      4.539322   683A      4.571784   684A      4.587674  
     685A      4.588225   686A      4.605419   687A      4.613246  
     688A      4.621372   689A      4.629887   690A      4.643199  
     691A      4.646054   692A      4.675928   693A      4.692163  
     694A      4.708547   695A      4.719416   696A      4.731418  
     697A      4.745634   698A      4.751842   699A      4.762374  
     700A      4.768841   701A      4.804405   702A      4.812427  
     703A      4.816221   704A      4.829689   705A      4.834294  
     706A      4.845654   707A      4.858722   708A      4.860210  
     709A      4.877451   710A      4.895800   711A      4.908711  
     712A      4.912037   713A      4.925644   714A      4.930180  
     715A      4.937370   716A      4.962859   717A      4.971069  
     718A      4.978590   719A      4.991285   720A      5.009454  
     721A      5.011220   722A      5.019520   723A      5.036530  
     724A      5.043618   725A      5.047893   726A      5.060240  
     727A      5.080834   728A      5.082733   729A      5.092889  
     730A      5.113121   731A      5.125827   732A      5.163072  
     733A      5.175263   734A      5.177884   735A      5.193524  
     736A      5.211146   737A      5.215839   738A      5.220643  
     739A      5.228006   740A      5.262857   741A      5.269978  
     742A      5.274670   743A      5.309374   744A      5.319521  
     745A      5.341956   746A      5.348622   747A      5.365334  
     748A      5.372849   749A      5.392744   750A      5.404630  
     751A      5.415749   752A      5.451939   753A      5.485077  
     754A      5.498336   755A      5.536065   756A      5.554304  
     757A      5.576383   758A      5.588997   759A      5.606011  
     760A      5.610025   761A      5.636591   762A      5.653617  
     763A      5.673386   764A      5.694971   765A      5.723548  
     766A      5.731228   767A      5.774720   768A      5.810762  
     769A      5.834624   770A      5.890250   771A      5.925574  
     772A      5.940340   773A      5.976861   774A      5.979628  
     775A      6.020159   776A      6.024745   777A      6.092261  
     778A      6.134289   779A      6.152185   780A      6.199620  
     781A      6.229437   782A      6.237713   783A      6.296781  
     784A      6.340572   785A      6.358054   786A      6.397645  
     787A      6.412577   788A      6.461943   789A      6.470021  
     790A      6.515100   791A      6.561445   792A      6.651769  
     793A      6.658555   794A      6.741957   795A      6.773378  
     796A      6.801298   797A      6.802219   798A      6.835343  
     799A      6.877398   800A      6.908858   801A      6.952885  
     802A      6.975480   803A      6.983533   804A      7.109498  
     805A      7.168213   806A      7.327613   807A      7.339378  
     808A      7.447942   809A      7.539836   810A      7.596954  
     811A      7.609616   812A      7.661923   813A      7.919049  
     814A      8.295712   815A      8.547506   816A     15.986215  
     817A     16.164088   818A     16.452108   819A     16.611027  
     820A     16.903730   821A     18.719307   822A     19.104392  
     823A     19.332034   824A     19.640249   825A     19.932392  
     826A     20.037289   827A     20.213043   828A     21.738378  

    Final Occupation by Irrep:
              A 
    DOCC [    45 ]

  Energy converged.

  @DF-RHF Final Energy:  -551.67303899620993

   => Energetics <=

    Nuclear Repulsion Energy =            712.2170350605662179
    One-Electron Energy =               -2147.4882494742960262
    Two-Electron Energy =                 883.5981754175199967
    DFT Exchange-Correlation Energy =       0.0000000000000000
    Empirical Dispersion Energy =           0.0000000000000000
    PCM Polarization Energy =               0.0000000000000000
    EFP Energy =                            0.0000000000000000
    Total Energy =                       -551.6730389962099252



Properties will be evaluated at   0.000000,   0.000000,   0.000000 Bohr

Properties computed using the SCF density matrix

  Nuclear Dipole Moment: (a.u.)
     X:     2.9526      Y:    -1.5984      Z:    -0.9338

  Electronic Dipole Moment: (a.u.)
     X:     0.5867      Y:    -0.3021      Z:    -0.6776

  Dipole Moment: (a.u.)
     X:     3.5393      Y:    -1.9004      Z:    -1.6114     Total:     4.3284

  Dipole Moment: (Debye)
     X:     8.9959      Y:    -4.8304      Z:    -4.0959     Total:    11.0016


*** tstop() called on gpu-2-9.local at Sun Nov 12 06:47:31 2017
Module time:
	user time   =    1099.21 seconds =      18.32 minutes
	system time =      50.24 seconds =       0.84 minutes
	total time  =        442 seconds =       7.37 minutes
Total time:
	user time   =    1099.21 seconds =      18.32 minutes
	system time =      50.24 seconds =       0.84 minutes
	total time  =        442 seconds =       7.37 minutes

  //>>>>>>>>>>>>>>>>>>>>>>>>>>>>>>>>>>>//
  //               DFMP2               //
  //<<<<<<<<<<<<<<<<<<<<<<<<<<<<<<<<<<<//

   => Loading Basis Set <=

    Name: (AUG-CC-PVTZ AUX)
    Role: RIFIT
    Keyword: DF_BASIS_MP2
    atoms 1-11  entry C          line   147 file /cbio/jclab/home/chayas/anaconda/envs/py35/share/psi4/basis/aug-cc-pvtz-ri.gbs 
    atoms 12    entry N          line   205 file /cbio/jclab/home/chayas/anaconda/envs/py35/share/psi4/basis/aug-cc-pvtz-ri.gbs 
    atoms 13    entry O          line   263 file /cbio/jclab/home/chayas/anaconda/envs/py35/share/psi4/basis/aug-cc-pvtz-ri.gbs 
    atoms 14-23 entry H          line    29 file /cbio/jclab/home/chayas/anaconda/envs/py35/share/psi4/basis/aug-cc-pvtz-ri.gbs 

	 --------------------------------------------------------
	                          DF-MP2                         
	      2nd-Order Density-Fitted Moller-Plesset Theory     
	              RMP2 Wavefunction,   8 Threads             
	                                                         
	        Rob Parrish, Justin Turney, Andy Simmonett,      
	           Ed Hohenstein, and C. David Sherrill          
	 --------------------------------------------------------

   => Auxiliary Basis Set <=

  Basis Set: (AUG-CC-PVTZ AUX)
    Blend: AUG-CC-PVTZ-RI
    Number of shells: 504
    Number of basis function: 1838
    Number of Cartesian functions: 2318
    Spherical Harmonics?: true
    Max angular momentum: 4

	 --------------------------------------------------------
	                 NBF =   828, NAUX =  1838
	 --------------------------------------------------------
	   CLASS    FOCC     OCC    AOCC    AVIR     VIR    FVIR
	   PAIRS       0      45      45     783     783       0
	 --------------------------------------------------------


         ------------------------------------------------------------
                                     CPHF                           
                                  Rob Parrish                       
         ------------------------------------------------------------

  ==> Geometry <==

    Molecular point group: c1
    Full point group: C1

    Geometry (in Angstrom), charge = 1, multiplicity = 1:

       Center              X                  Y                   Z               Mass       
    ------------   -----------------  -----------------  -----------------  -----------------
           C         -1.271753361402     0.719771262229    -0.578990691733    12.000000000000
           C         -0.278753361402     0.103771262229     1.535009308267    12.000000000000
           C         -2.349753361402     1.292771262229     0.094009308267    12.000000000000
           C         -1.356753361402     0.676771262229     2.209009308267    12.000000000000
           C          2.172246638598     0.003771262229    -0.336990691733    12.000000000000
           C          0.671246638598    -1.515228737771    -1.450990691733    12.000000000000
           C          3.226246638598    -0.585228737771    -1.020990691733    12.000000000000
           C          1.763246638598    -2.065228737771    -2.106990691733    12.000000000000
           C         -0.235753361402     0.124771262229     0.141009308267    12.000000000000
           C          0.883246638598    -0.469228737771    -0.556990691733    12.000000000000
           C         -2.392753361402     1.271771262229     1.488009308267    12.000000000000
           N          2.994246638598    -1.590228737771    -1.875990691733    14.003074004780
           O         -3.444753361402     1.831771262229     2.145009308267    15.994914619560
           H         -1.252753361402     0.743771262229    -1.665990691733     1.007825032070
           H          0.521246638598    -0.356228737771     2.111009308267     1.007825032070
           H         -3.153753361402     1.754771262229    -0.472990691733     1.007825032070
           H         -1.384753361402     0.657771262229     3.295009308267     1.007825032070
           H          2.367246638598     0.817771262229     0.355009308267     1.007825032070
           H         -0.324753361402    -1.904228737771    -1.641990691733     1.007825032070
           H          4.259246638598    -0.283228737771    -0.911990691733     1.007825032070
           H          1.693246638598    -2.879228737771    -2.815990691733     1.007825032070
           H          3.783246638598    -2.008228737771    -2.368990691733     1.007825032070
           H         -3.331753361402     1.737771262229     3.104009308267     1.007825032070

  Nuclear repulsion =  712.217035060566218
  Reference energy  = -551.673038996209925

  ==> Basis Set <==

  Basis Set: AUG-CC-PVTZ
    Blend: AUG-CC-PVTZ
    Number of shells: 272
    Number of basis function: 828
    Number of Cartesian functions: 965
    Spherical Harmonics?: true
    Max angular momentum: 3

  ==> CGRSolver (by Rob Parrish) <==

   Number of roots    =         1
   Preconditioning    =    JACOBI
   Convergence cutoff =     1E-06
   Maximum iterations =       100

  ==> CPHFRHamiltonian (by Rob Parrish) <== 

  ==> DFJK: Density-Fitted J/K Matrices <==

    J tasked:                  Yes
    K tasked:                  Yes
    wK tasked:                  No
    OpenMP threads:              8
    Integrals threads:           8
    Memory (MB):              3576
    Algorithm:                Disk
    Integral Cache:           NONE
    Schwarz Cutoff:          1E-12
    Fitting Condition:       1E-12

   => Auxiliary Basis Set <=

  Basis Set: (AUG-CC-PVTZ AUX)
    Blend: AUG-CC-PVTZ-JKFIT
    Number of shells: 530
    Number of basis function: 1812
    Number of Cartesian functions: 2253
    Spherical Harmonics?: true
    Max angular momentum: 4

  ==> CPHF Iterations <==

  => Iterations <=

             Iter  Converged  Remaining    Residual
  CGR           1          0          1   1.060E-01
  CGR           2          0          1   4.751E-02
  CGR           3          0          1   2.787E-02
  CGR           4          0          1   8.810E-03
  CGR           5          0          1   3.613E-03
  CGR           6          0          1   1.721E-03
  CGR           7          0          1   5.447E-04
  CGR           8          0          1   2.229E-04
  CGR           9          0          1   1.103E-04
  CGR          10          0          1   4.134E-05
  CGR          11          0          1   1.482E-05
  CGR          12          0          1   5.420E-06
  CGR          13          0          1   1.767E-06
  CGR          14          1          0   6.127E-07

    CGRSolver converged.

  ==> DFCorrGrad: Density-Fitted Correlated Gradients <==

    OpenMP threads:              8
    Integrals threads:           8
    Memory (MB):              3576
    Schwarz Cutoff:          0E+00
    Fitting Condition:       1E-12

   => Auxiliary Basis Set <=

  Basis Set: (AUG-CC-PVTZ AUX)
    Blend: AUG-CC-PVTZ-JKFIT
    Number of shells: 530
    Number of basis function: 1812
    Number of Cartesian functions: 2253
    Spherical Harmonics?: true
    Max angular momentum: 4

	-----------------------------------------------------------
	 ==================> DF-MP2 Energies <==================== 
	-----------------------------------------------------------
	 Reference Energy          =    -551.6730389962099252 [Eh]
	 Singles Energy            =      -0.0000000000000002 [Eh]
	 Same-Spin Energy          =      -0.5961536981956271 [Eh]
	 Opposite-Spin Energy      =      -1.8247709213267860 [Eh]
	 Correlation Energy        =      -2.4209246195224132 [Eh]
	 Total Energy              =    -554.0939636157323775 [Eh]
	-----------------------------------------------------------
	 ================> DF-SCS-MP2 Energies <================== 
	-----------------------------------------------------------
	 SCS Same-Spin Scale       =       0.3333333333333333 [-]
	 SCS Opposite-Spin Scale   =       1.2000000000000000 [-]
	 SCS Same-Spin Energy      =      -0.1987178993985424 [Eh]
	 SCS Opposite-Spin Energy  =      -2.1897251055921432 [Eh]
	 SCS Correlation Energy    =      -2.3884430049906857 [Eh]
	 SCS Total Energy          =    -554.0614820012006021 [Eh]
	-----------------------------------------------------------


  -Total Gradient:
     Atom            X                  Y                   Z
    ------   -----------------  -----------------  -----------------
       1        0.010428814998     0.000403463044    -0.004594114722
       2        0.003050160188    -0.007346348181    -0.007279012629
       3        0.000500066812    -0.000761404623     0.004650265734
       4       -0.008917899929     0.005021843952     0.006712283217
       5       -0.014673879935     0.009142540862     0.005182021599
       6       -0.012501871252     0.004408075221     0.010948078721
       7       -0.003387401821    -0.008478093152    -0.008489131184
       8        0.011340619990     0.004478531593     0.003630956318
       9        0.004876642650    -0.002607116022    -0.003546059360
      10        0.006842075885    -0.002579037564    -0.003464654951
      11        0.001268385426    -0.000316375739    -0.013661285226
      12        0.000218619555    -0.000395701807    -0.000343114502
      13       -0.003686414230     0.001744854991     0.007652597971
      14       -0.000686721585    -0.000093777315    -0.005110996079
      15        0.003455710115    -0.001469189776     0.003661128081
      16       -0.003434877891     0.001444286658    -0.004957080668
      17        0.000435304558     0.000256228827     0.004419301999
      18        0.001598756408     0.004022819325     0.004236666096
      19       -0.005502672439    -0.002031530194    -0.001806700520
      20        0.003123251282    -0.000389511137    -0.000207043197
      21        0.001035653070    -0.001869533798    -0.002294088497
      22        0.005036931903    -0.002643345950    -0.003160692336
      23       -0.000419253759     0.000058320786     0.007820674130


*** tstop() called on gpu-2-9.local at Sun Nov 12 07:22:21 2017
Module time:
	user time   =    5508.71 seconds =      91.81 minutes
	system time =     111.13 seconds =       1.85 minutes
	total time  =       2532 seconds =      42.20 minutes
Total time:
	user time   =    5508.71 seconds =      91.81 minutes
	system time =     111.13 seconds =       1.85 minutes
	total time  =       2532 seconds =      42.20 minutes

			-----------------------------------------
			 OPTKING 2.0: for geometry optimizations 
			  - R.A. King,  Bethel University        
			-----------------------------------------

	Internal coordinates to be generated automatically.
	Detected frag 1 with atoms:  1 2 3 4 5 6 7 8 9 10 11 12 13 14 15 16 17 18 19 20
	 21 22 23
	---Fragment 1 Bond Connectivity---
	 1 : 3 9 14
	 2 : 4 9 15
	 3 : 1 11 16
	 4 : 2 11 17
	 5 : 7 10 18
	 6 : 8 10 19
	 7 : 5 12 20
	 8 : 6 12 21
	 9 : 1 2 10
	 10 : 5 6 9
	 11 : 3 4 13
	 12 : 7 8 22
	 13 : 11 23
	 14 : 1
	 15 : 2
	 16 : 3
	 17 : 4
	 18 : 5
	 19 : 6
	 20 : 7
	 21 : 8
	 22 : 12
	 23 : 13

	Assuming in current code that numbering for constraints corresponds to unified fragment.
	Fixed dihedral atom list: 
	     1     9    10     5
	---Fragment 1 Geometry and Gradient---
	 C          -2.4032655616        1.3601705639       -1.0941338409
	 C          -0.5267675117        0.1960992661        2.9007472041
	 C          -4.4403903329        2.4429836381        0.1776518466
	 C          -2.5638922829        1.2789123402        4.1744226176
	 C           4.1049512400        0.0071266528       -0.6368201167
	 C           1.2684723146       -2.8633673431       -2.7419750287
	 C           6.0967225841       -1.1059220395       -1.9293927916
	 C           3.3320532517       -3.9027167162       -3.9816353719
	 C          -0.4455092880        0.2357835149        0.2664689748
	 C           1.6690942547       -0.8867138081       -1.0525598659
	 C          -4.5216485566        2.4032993893        2.8119300758
	 N           5.6583061213       -3.0050968030       -3.5451086352
	 O          -6.5096404484        3.4615460237        4.0534801451
	 H          -2.3673607651        1.4055239911       -3.1482661473
	 H           0.9850133946       -0.6731747551        3.9892294566
	 H          -5.9597301437        3.3160371115       -0.8938228708
	 H          -2.6168046146        1.2430075437        6.2266651979
	 H           4.4734478359        1.5453637250        0.6708703672
	 H          -0.6136949138       -3.5984708088       -3.1029127201
	 H           8.0488096794       -0.5352247474       -1.7234126431
	 H           3.1997724224       -5.4409537883       -5.3214512001
	 H           7.1493000401       -3.7950023266       -4.4767436187
	 H          -6.2961013954        3.2839117672        5.8657275066
	             0.0104288150        0.0004034630       -0.0045941147
	             0.0030501602       -0.0073463482       -0.0072790126
	             0.0005000668       -0.0007614046        0.0046502657
	            -0.0089178999        0.0050218440        0.0067122832
	            -0.0146738799        0.0091425409        0.0051820216
	            -0.0125018713        0.0044080752        0.0109480787
	            -0.0033874018       -0.0084780932       -0.0084891312
	             0.0113406200        0.0044785316        0.0036309563
	             0.0048766426       -0.0026071160       -0.0035460594
	             0.0068420759       -0.0025790376       -0.0034646550
	             0.0012683854       -0.0003163757       -0.0136612852
	             0.0002186196       -0.0003957018       -0.0003431145
	            -0.0036864142        0.0017448550        0.0076525980
	            -0.0006867216       -0.0000937773       -0.0051109961
	             0.0034557101       -0.0014691898        0.0036611281
	            -0.0034348779        0.0014442867       -0.0049570807
	             0.0004353046        0.0002562288        0.0044193020
	             0.0015987564        0.0040228193        0.0042366661
	            -0.0055026724       -0.0020315302       -0.0018067005
	             0.0031232513       -0.0003895111       -0.0002070432
	             0.0010356531       -0.0018695338       -0.0022940885
	             0.0050369319       -0.0026433459       -0.0031606923
	            -0.0004192538        0.0000583208        0.0078206741

	Previous optimization step data not found.  Starting new optimization.

	---Fragment 1 Intrafragment Coordinates---
	 - Coordinate -           - BOHR/RAD -       - ANG/DEG -
	 R(1,3)           =         2.634350	       1.394038
	 R(1,9)           =         2.635962	       1.394891
	 R(1,14)          =         2.054947	       1.087431
	 R(2,4)           =         2.635263	       1.394521
	 R(2,9)           =         2.635830	       1.394821
	 R(2,15)          =         2.055702	       1.087831
	 R(3,11)          =         2.635830	       1.394821
	 R(3,16)          =         2.053941	       1.086899
	 R(4,11)          =         2.636938	       1.395407
	 R(4,17)          =         2.053239	       1.086527
	 R(5,7)           =         2.622361	       1.387693
	 R(5,10)          =         2.627773	       1.390557
	 R(5,18)          =         2.052320	       1.086041
	 R(6,8)           =         2.622093	       1.387552
	 R(6,10)          =         2.630928	       1.392227
	 R(6,19)          =         2.052610	       1.086194
	 R(7,12)          =         2.531721	       1.339729
	 R(7,20)          =         2.044203	       1.081746
	 R(8,12)          =         2.531349	       1.339532
	 R(8,21)          =         2.044206	       1.081747
	 R(9,10)          =         2.733384	       1.446444
	 R(11,13)         =         2.571662	       1.360865
	 R(12,22)         =         1.927422	       1.019948
	 R(13,23)         =         1.833410	       0.970199
	 B(1,3,11)        =         2.094553	     120.009056
	 B(1,3,16)        =         2.088505	     119.662516
	 B(1,9,2)         =         2.093692	     119.959722
	 B(1,9,10)        =         2.095161	     120.043881
	 B(2,4,11)        =         2.093699	     119.960108
	 B(2,4,17)        =         2.089577	     119.723926
	 B(2,9,10)        =         2.094332	     119.996376
	 B(3,1,9)         =         2.094940	     120.031219
	 B(3,1,14)        =         2.079469	     119.144799
	 B(3,11,4)        =         2.094306	     119.994870
	 B(3,11,13)       =         2.094549	     120.008801
	 B(4,2,9)         =         2.095181	     120.045019
	 B(4,2,15)        =         2.078675	     119.099297
	 B(4,11,13)       =         2.094331	     119.996326
	 B(5,7,12)        =         2.096054	     120.095075
	 B(5,7,20)        =         2.161740	     123.858588
	 B(5,10,6)        =         2.092440	     119.887980
	 B(5,10,9)        =         2.095651	     120.071966
	 B(6,8,12)        =         2.095719	     120.075872
	 B(6,8,21)        =         2.161821	     123.863197
	 B(6,10,9)        =         2.095094	     120.040044
	 B(7,5,10)        =         2.073395	     118.796769
	 B(7,5,18)        =         2.089573	     119.723736
	 B(7,12,8)        =         2.135538	     122.357343
	 B(7,12,22)       =         2.073671	     118.812573
	 B(8,6,10)        =         2.073223	     118.786953
	 B(8,6,19)        =         2.090424	     119.772460
	 B(8,12,22)       =         2.073976	     118.830077
	 B(9,1,14)        =         2.108776	     120.823969
	 B(9,2,15)        =         2.109330	     120.855683
	 B(10,5,18)       =         2.120217	     121.479464
	 B(10,6,19)       =         2.119538	     121.440586
	 B(11,3,16)       =         2.100127	     120.328425
	 B(11,4,17)       =         2.099910	     120.315955
	 B(11,13,23)      =         1.925489	     110.322421
	 B(12,7,20)       =         2.025391	     116.046337
	 B(12,8,21)       =         2.025645	     116.060888
	 D(1,3,11,4)      =        -0.000325	      -0.018609
	 D(1,3,11,13)     =         3.140978	     179.964785
	 D(1,9,2,4)       =         0.000325	       0.018608
	 D(1,9,2,15)      =        -3.141497	    -179.994534
	 D(1,9,10,5)      =         2.093777	     119.964583
	 D(1,9,10,6)      =        -1.047166	     -59.998191
	 D(2,4,11,3)      =         0.000301	       0.017261
	 D(2,4,11,13)     =        -3.141002	    -179.966135
	 D(2,9,1,3)       =        -0.000348	      -0.019945
	 D(2,9,1,14)      =        -3.141221	    -179.978731
	 D(2,9,10,5)      =        -1.046899	     -59.982914
	 D(2,9,10,6)      =         2.095343	     120.054312
	 D(3,1,9,10)      =        -3.141025	    -179.967461
	 D(3,11,4,17)     =         3.141223	     179.978848
	 D(3,11,13,23)    =         3.140828	     179.956172
	 D(4,2,9,10)      =         3.141002	     179.966149
	 D(4,11,3,16)     =         3.141593	     180.000000
	 D(4,11,13,23)    =        -0.001055	      -0.060434
	 D(5,7,12,8)      =        -0.000487	      -0.027920
	 D(5,7,12,22)     =         3.140529	     179.939057
	 D(5,10,6,8)      =        -0.000037	      -0.002140
	 D(5,10,6,19)     =        -3.141454	    -179.992079
	 D(6,8,12,7)      =         0.000052	       0.002987
	 D(6,8,12,22)     =        -3.140964	    -179.963984
	 D(6,10,5,7)      =        -0.000381	      -0.021849
	 D(6,10,5,18)     =        -3.140852	    -179.957536
	 D(7,5,10,9)      =        -3.141325	    -179.984680
	 D(7,12,8,21)     =        -3.140285	    -179.925084
	 D(8,6,10,9)      =         3.140907	     179.960703
	 D(8,12,7,20)     =         3.140997	     179.965880
	 D(9,1,3,11)      =         0.000348	       0.019955
	 D(9,1,3,16)      =        -3.141571	    -179.998735
	 D(9,2,4,11)      =        -0.000301	      -0.017270
	 D(9,2,4,17)      =        -3.141228	    -179.979086
	 D(9,10,5,18)     =         0.001390	       0.079632
	 D(9,10,6,19)     =        -0.000510	      -0.029235
	 D(10,5,7,12)     =         0.000643	       0.036844
	 D(10,5,7,20)     =        -3.140833	    -179.956448
	 D(10,6,8,12)     =         0.000211	       0.012062
	 D(10,6,8,21)     =         3.140445	     179.934247
	 D(10,9,1,14)     =         0.001287	       0.073752
	 D(10,9,2,15)     =        -0.000820	      -0.046992
	 D(11,3,1,14)     =         3.141234	     179.979432
	 D(11,4,2,15)     =         3.141517	     179.995641
	 D(12,7,5,18)     =         3.141133	     179.973687
	 D(12,8,6,19)     =        -3.141555	    -179.997828
	 D(13,11,3,16)    =        -0.000286	      -0.016400
	 D(13,11,4,17)    =        -0.000079	      -0.004548
	 D(14,1,3,16)     =        -0.000685	      -0.039257
	 D(15,2,4,17)     =         0.000590	       0.033826
	 D(18,5,7,20)     =        -0.000342	      -0.019605
	 D(19,6,8,21)     =        -0.001320	      -0.075643
	 D(20,7,12,22)    =        -0.001172	      -0.067144
	 D(21,8,12,22)    =         0.001884	       0.107945

	Current energy   :      -554.0939636157

	Generating empirical Hessian (Schlegel '84) for each fragment.
	Adding user-defined constraint: Fragment 1; Coordinate 66:
		Value =     2.093777; Fixed value    =     2.094395
		Force =     0.000309; Force constant =     0.500000
	Removing off-diagonal coupling between coordinate 66 and others.
	Taking RFO optimization step.
	Going to follow RFO solution 1.
	Using RFO vector 1.

	Determining step-restricting scale parameter for RS-RFO.
	Maximum step size allowed    0.10000

	 Iter      |step|        alpha        rfo_root  
	------------------------------------------------
	    0     0.25391       1.00000           1
	    1     0.17639       3.99966           1
	    2     0.13562       9.77256           1
	    3     0.11317      18.86823           1
	    4     0.10264      26.94507           1
	    5     0.10014      29.44836           1
	    6     0.10000      29.59084           1
	------------------------------------------------
	Norm of target step-size    0.10000
	Projected energy change by RFO approximation:        -0.0040158375

	Back-transformation to cartesian coordinates...
	Could not converge backtransformation.
	Using first guess instead.

	--- Internal Coordinate Step in ANG or DEG, aJ/ANG or AJ/DEG ---
	 ---------------------------------------------------------------------------
	   Coordinate                Previous        Force       Change         New 
	   ----------                --------       ------       ------       ------
	    1 R(1,3)          =      1.394038    -0.083279    -0.009230     1.384808
	    2 R(1,9)          =      1.394891    -0.007827    -0.000789     1.394102
	    3 R(1,14)         =      1.087431    -0.041975    -0.005761     1.081670
	    4 R(2,4)          =      1.394521    -0.083025    -0.009110     1.385411
	    5 R(2,9)          =      1.394821    -0.018152    -0.001843     1.392978
	    6 R(2,15)         =      1.087831    -0.042028    -0.005768     1.082063
	    7 R(3,11)         =      1.394821    -0.060116    -0.006730     1.388091
	    8 R(3,16)         =      1.086899    -0.047296    -0.006453     1.080446
	    9 R(4,11)         =      1.395407    -0.011488    -0.001308     1.394099
	   10 R(4,17)         =      1.086527    -0.036263    -0.004961     1.081566
	   11 R(5,7)          =      1.387693    -0.093657    -0.010079     1.377615
	   12 R(5,10)         =      1.390557     0.040637     0.004495     1.395053
	   13 R(5,18)         =      1.086041    -0.049447    -0.006758     1.079283
	   14 R(6,8)          =      1.387552    -0.093484    -0.010063     1.377489
	   15 R(6,10)         =      1.392227     0.030122     0.003413     1.395640
	   16 R(6,19)         =      1.086194    -0.050182    -0.006874     1.079320
	   17 R(7,12)         =      1.339729     0.019316     0.001908     1.341637
	   18 R(7,20)         =      1.081746    -0.023505    -0.003175     1.078570
	   19 R(8,12)         =      1.339532     0.022159     0.002105     1.341638
	   20 R(8,21)         =      1.081747    -0.023425    -0.003118     1.078629
	   21 R(9,10)         =      1.446444     0.073014     0.009323     1.455767
	   22 R(11,13)        =      1.360865    -0.093806    -0.008516     1.352348
	   23 R(12,22)        =      1.019948    -0.053613    -0.006132     1.013816
	   24 R(13,23)        =      0.970199    -0.063241    -0.005944     0.964255
	   25 B(1,3,11)       =    120.009056    -0.000052    -0.151712   119.857345
	   26 B(1,3,16)       =    119.662516     0.000204     0.565108   120.227624
	   27 B(1,9,2)        =    119.959722    -0.000182    -0.352827   119.606895
	   28 B(1,9,10)       =    120.043881     0.000086     0.167290   120.211172
	   29 B(2,4,11)       =    119.960108     0.000064     0.141838   120.101946
	   30 B(2,4,17)       =    119.723926    -0.000007    -0.003162   119.720764
	   31 B(2,9,10)       =    119.996376     0.000096     0.183924   120.180300
	   32 B(3,1,9)        =    120.031219     0.000171     0.374345   120.405564
	   33 B(3,1,14)       =    119.144799    -0.000040    -0.063887   119.080913
	   34 B(3,11,4)       =    119.994870     0.000023     0.016453   120.011323
	   35 B(3,11,13)      =    120.008801    -0.001018    -2.091137   117.917665
	   36 B(4,2,9)        =    120.045019    -0.000024    -0.029205   120.015815
	   37 B(4,2,15)       =    119.099297     0.000099     0.252848   119.352145
	   38 B(4,11,13)      =    119.996326     0.000995     2.074656   122.070982
	   39 B(5,7,12)       =    120.095075    -0.000318    -0.721782   119.373293
	   40 B(5,7,20)       =    123.858588     0.000061     0.093805   123.952393
	   41 B(5,10,6)       =    119.887980    -0.000528    -1.106601   118.781379
	   42 B(5,10,9)       =    120.071966     0.000274     0.573027   120.644993
	   43 B(6,8,12)       =    120.075872    -0.000305    -0.704687   119.371185
	   44 B(6,8,21)       =    123.863197     0.000054     0.083696   123.946893
	   45 B(6,10,9)       =    120.040044     0.000254     0.531899   120.571943
	   46 B(7,5,10)       =    118.796769     0.000418     0.917801   119.714570
	   47 B(7,5,18)       =    119.723736    -0.000173    -0.364061   119.359675
	   48 B(7,12,8)       =    122.357343     0.000314     0.693379   123.050721
	   49 B(7,12,22)      =    118.812573    -0.000156    -0.342325   118.470248
	   50 B(8,6,10)       =    118.786953     0.000420     0.921526   119.708478
	   51 B(8,6,19)       =    119.772460    -0.000178    -0.376639   119.395821
	   52 B(8,12,22)      =    118.830077    -0.000158    -0.351100   118.478977
	   53 B(9,1,14)       =    120.823969    -0.000131    -0.310819   120.513150
	   54 B(9,2,15)       =    120.855683    -0.000075    -0.224429   120.631254
	   55 B(10,5,18)      =    121.479464    -0.000244    -0.553725   120.925740
	   56 B(10,6,19)      =    121.440586    -0.000242    -0.544986   120.895600
	   57 B(11,3,16)      =    120.328425    -0.000153    -0.413396   119.915029
	   58 B(11,4,17)      =    120.315955    -0.000057    -0.138713   120.177241
	   59 B(11,13,23)     =    110.322421    -0.000217    -0.595221   109.727199
	   60 B(12,7,20)      =    116.046337     0.000257     0.627713   116.674050
	   61 B(12,8,21)      =    116.060888     0.000252     0.620784   116.681673
	   62 D(1,3,11,4)     =     -0.018609     0.000006     0.168361     0.149752
	   63 D(1,3,11,13)    =    179.964785     0.000006     0.122846   180.087631
	   64 D(1,9,2,4)      =      0.018608     0.000009     0.326841     0.345448
	   65 D(1,9,2,15)     =   -179.994534    -0.000003     0.015131  -179.979403
	   66 D(1,9,10,5)     =    119.964583     0.000038     0.388412   120.352996
	   67 D(1,9,10,6)     =    -59.998191     0.000047     0.829114   -59.169077
	   68 D(2,4,11,3)     =      0.017261     0.000004     0.090854     0.108115
	   69 D(2,4,11,13)    =   -179.966135     0.000005     0.139028  -179.827107
	   70 D(2,9,1,3)      =     -0.019945     0.000001    -0.067762    -0.087707
	   71 D(2,9,1,14)     =   -179.978731    -0.000010    -0.333257  -180.311989
	   72 D(2,9,10,5)     =    -59.982914     0.000046     0.802685   -59.180229
	   73 D(2,9,10,6)     =    120.054312     0.000055     1.243387   121.297699
	   74 D(3,1,9,10)     =   -179.967461     0.000009     0.343852  -179.623609
	   75 D(3,11,4,17)    =    179.978848     0.000003     0.049351   180.028199
	   76 D(3,11,13,23)   =    179.956172    -0.000001    -0.008992   179.947179
	   77 D(4,2,9,10)     =    179.966149     0.000001    -0.084653   179.881496
	   78 D(4,11,3,16)    =    180.000000     0.000006     0.166702   180.166702
	   79 D(4,11,13,23)   =     -0.060434    -0.000001    -0.055867    -0.116301
	   80 D(5,7,12,8)     =     -0.027920    -0.000001     0.008827    -0.019093
	   81 D(5,7,12,22)    =    179.939057    -0.000002    -0.043797   179.895260
	   82 D(5,10,6,8)     =     -0.002140     0.000003     0.155916     0.153776
	   83 D(5,10,6,19)    =   -179.992079    -0.000002     0.029979  -179.962100
	   84 D(6,8,12,7)     =      0.002987    -0.000002    -0.066842    -0.063855
	   85 D(6,8,12,22)    =   -179.963984    -0.000001    -0.014216  -179.978200
	   86 D(6,10,5,7)     =     -0.021849    -0.000005    -0.213670    -0.235519
	   87 D(6,10,5,18)    =   -179.957536    -0.000010    -0.323000  -180.280536
	   88 D(7,5,10,9)     =   -179.984680     0.000004     0.218652  -179.766028
	   89 D(7,12,8,21)    =   -179.925084     0.000003     0.035723  -179.889361
	   90 D(8,6,10,9)     =    179.960703    -0.000006    -0.276064   179.684639
	   91 D(8,12,7,20)    =    179.965880     0.000007     0.194660   180.160540
	   92 D(9,1,3,11)     =      0.019955    -0.000009    -0.179373    -0.159419
	   93 D(9,1,3,16)     =   -179.998735    -0.000008    -0.177688  -180.176422
	   94 D(9,2,4,11)     =     -0.017270    -0.000012    -0.338914    -0.356185
	   95 D(9,2,4,17)     =   -179.979086    -0.000011    -0.297548  -180.276634
	   96 D(9,10,5,18)    =      0.079632    -0.000001     0.109322     0.188954
	   97 D(9,10,6,19)    =     -0.029235    -0.000011    -0.402002    -0.431237
	   98 D(10,5,7,12)    =      0.036844     0.000004     0.133683     0.170527
	   99 D(10,5,7,20)    =   -179.956448    -0.000004    -0.066533  -180.022981
	  100 D(10,6,8,12)    =      0.012062     0.000001    -0.018441    -0.006380
	  101 D(10,6,8,21)    =    179.934247    -0.000004    -0.128574   179.805673
	  102 D(10,9,1,14)    =      0.073752    -0.000002     0.078357     0.152109
	  103 D(10,9,2,15)    =     -0.046992    -0.000011    -0.396362    -0.443355
	  104 D(11,3,1,14)    =    179.979432     0.000002     0.082243   180.061675
	  105 D(11,4,2,15)    =    179.995641    -0.000000    -0.031134   179.964507
	  106 D(12,7,5,18)    =    179.973687     0.000009     0.241149   180.214836
	  107 D(12,8,6,19)    =   -179.997828     0.000006     0.105576  -179.892252
	  108 D(13,11,3,16)   =     -0.016400     0.000005     0.120980     0.104581
	  109 D(13,11,4,17)   =     -0.004548     0.000004     0.097524     0.092976
	  110 D(14,1,3,16)    =     -0.039257     0.000003     0.083929     0.044672
	  111 D(15,2,4,17)    =      0.033826     0.000001     0.010232     0.044058
	  112 D(18,5,7,20)    =     -0.019605     0.000001     0.040933     0.021328
	  113 D(19,6,8,21)    =     -0.075643     0.000000    -0.004556    -0.080200
	  114 D(20,7,12,22)   =     -0.067144     0.000006     0.142036     0.074892
	  115 D(21,8,12,22)   =      0.107945     0.000004     0.088349     0.196294
	 ---------------------------------------------------------------------------
	Successfully symmetrized geometry.
	 Forces used to impose fixed constraints are not included.
	  Forces zeroed: 66 

  ==> Convergence Check <==

  Measures of convergence in internal coordinates in au.
  Criteria marked as inactive (o), active & met (*), and active & unmet ( ).
  --------------------------------------------------------------------------------------------- ~
   Step     Total Energy     Delta E     MAX Force     RMS Force      MAX Disp      RMS Disp    ~
  --------------------------------------------------------------------------------------------- ~
    Convergence Criteria    1.00e-06 *    3.00e-04 *             o    1.20e-03 *             o  ~
  --------------------------------------------------------------------------------------------- ~
      1    -554.09396362   -5.54e+02      1.34e-02      3.89e-03 o    3.65e-02      9.31e-03 o  ~
  ---------------------------------------------------------------------------------------------

	Writing optimization data to binary file.
	Structure for next step:
	Cartesian Geometry (in Angstrom)
	    C    -1.2818784469   0.7105116851  -0.5586205348
	    C    -0.2785043631   0.1097858608   1.5473493045
	    C    -2.3508196135   1.2850763992   0.1084118138
	    C    -1.3502248852   0.6796935891   2.2151700923
	    C     2.1835327637  -0.0125772740  -0.3377089024
	    C     0.6835456904  -1.5159266813  -1.4596677643
	    C     3.2340957821  -0.5868987483  -1.0191003587
	    C     1.7607720645  -2.0620469347  -2.1220960937
	    C    -0.2404639681   0.1190433048   0.1549215969
	    C     0.8851847136  -0.4764923149  -0.5504220096
	    C    -2.3884798490   1.2697788971   1.4959076665
	    N     2.9915360840  -1.5847748686  -1.8824647319
	    O    -3.4515016440   1.8404389931   2.1067903740
	    H    -1.2648589531   0.7304259833  -1.6399731563
	    H     0.5210258216  -0.3444131435   2.1177129898
	    H    -3.1550015796   1.7452054331  -0.4474087226
	    H    -1.3770476383   0.6658601172   3.2963149752
	    H     2.3785037413   0.7924953769   0.3541702258
	    H    -0.3065508819  -1.9007557192  -1.6508401425
	    H     4.2627619731  -0.2823553973  -0.9076850375
	    H     1.6840596637  -2.8677142499  -2.8351568576
	    H     3.7745573683  -1.9964050053  -2.3777031654
	    H    -3.3575711560   1.7627837285   3.0633125284
			--------------------------
			 OPTKING Finished Execution 
			--------------------------

    Structure for next step:
    Molecular point group: c1
    Full point group: C1

    Geometry (in Angstrom), charge = 1, multiplicity = 1:

    C           -1.282749864337     0.711806559584    -0.558574521729
    C           -0.279375780574     0.111080735274     1.547395317575
    C           -2.351691030970     1.286371273692     0.108457826840
    C           -1.351096302656     0.680988463531     2.215216105292
    C            2.182661346274    -0.011282399538    -0.337662889347
    C            0.682674272958    -1.514631806808    -1.459621751274
    C            3.233224364665    -0.585603873878    -1.019054345710
    C            1.759900647025    -2.060752060216    -2.122050080630
    C           -0.241335385555     0.120338179213     0.154967609902
    C            0.884313296172    -0.475197440482    -0.550375996578
    C           -2.389351266473     1.271073771513     1.495953679574
    N            2.990664666582    -1.583479994195    -1.882418718909
    O           -3.452373061473     1.841733867533     2.106836387004
    H           -1.265730370596     0.731720857780    -1.639927143230
    H            0.520154404170    -0.343118269049     2.117759002841
    H           -3.155872997113     1.746500307522    -0.447362709534
    H           -1.377919055737     0.667154991630     3.296360988231
    H            2.377632323798     0.793790251360     0.354216238877
    H           -0.307422299356    -1.899460844716    -1.650794129455
    H            4.261890555652    -0.281060522852    -0.907639024491
    H            1.683188246192    -2.866419375498    -2.835110844555
    H            3.773685950860    -1.995110130808    -2.377657152324
    H           -3.358442573517     1.764078602937     3.063358541436

gradient() will perform analytic gradient computation.

*** tstart() called on gpu-2-9.local
*** at Sun Nov 12 07:22:23 2017

    SCF Algorithm Type (re)set to DF.

*** tstart() called on gpu-2-9.local
*** at Sun Nov 12 07:22:23 2017

   => Loading Basis Set <=

    Name: AUG-CC-PVTZ
    Role: ORBITAL
    Keyword: BASIS
    atoms 1-11  entry C          line   221 file /cbio/jclab/home/chayas/anaconda/envs/py35/share/psi4/basis/aug-cc-pvtz.gbs 
    atoms 12    entry N          line   267 file /cbio/jclab/home/chayas/anaconda/envs/py35/share/psi4/basis/aug-cc-pvtz.gbs 
    atoms 13    entry O          line   313 file /cbio/jclab/home/chayas/anaconda/envs/py35/share/psi4/basis/aug-cc-pvtz.gbs 
    atoms 14-23 entry H          line    34 file /cbio/jclab/home/chayas/anaconda/envs/py35/share/psi4/basis/aug-cc-pvtz.gbs 


         ---------------------------------------------------------
                                   SCF
            by Justin Turney, Rob Parrish, and Andy Simmonett
                              RHF Reference
                        8 Threads,   4768 MiB Core
         ---------------------------------------------------------

  ==> Geometry <==

    Molecular point group: c1
    Full point group: C1

    Geometry (in Angstrom), charge = 1, multiplicity = 1:

       Center              X                  Y                   Z               Mass       
    ------------   -----------------  -----------------  -----------------  -----------------
           C         -1.282749864337     0.711806559584    -0.558574521729    12.000000000000
           C         -0.279375780574     0.111080735274     1.547395317575    12.000000000000
           C         -2.351691030970     1.286371273692     0.108457826840    12.000000000000
           C         -1.351096302656     0.680988463531     2.215216105292    12.000000000000
           C          2.182661346274    -0.011282399538    -0.337662889347    12.000000000000
           C          0.682674272958    -1.514631806808    -1.459621751274    12.000000000000
           C          3.233224364665    -0.585603873878    -1.019054345710    12.000000000000
           C          1.759900647025    -2.060752060216    -2.122050080630    12.000000000000
           C         -0.241335385555     0.120338179213     0.154967609902    12.000000000000
           C          0.884313296172    -0.475197440482    -0.550375996578    12.000000000000
           C         -2.389351266473     1.271073771513     1.495953679574    12.000000000000
           N          2.990664666582    -1.583479994195    -1.882418718909    14.003074004780
           O         -3.452373061473     1.841733867533     2.106836387004    15.994914619560
           H         -1.265730370596     0.731720857780    -1.639927143230     1.007825032070
           H          0.520154404170    -0.343118269049     2.117759002841     1.007825032070
           H         -3.155872997113     1.746500307522    -0.447362709534     1.007825032070
           H         -1.377919055737     0.667154991630     3.296360988231     1.007825032070
           H          2.377632323798     0.793790251360     0.354216238877     1.007825032070
           H         -0.307422299356    -1.899460844716    -1.650794129455     1.007825032070
           H          4.261890555652    -0.281060522852    -0.907639024491     1.007825032070
           H          1.683188246192    -2.866419375498    -2.835110844555     1.007825032070
           H          3.773685950860    -1.995110130808    -2.377657152324     1.007825032070
           H         -3.358442573517     1.764078602937     3.063358541436     1.007825032070

  Running in c1 symmetry.

  Rotational constants: A =      0.09641  B =      0.01302  C =      0.01218 [cm^-1]
  Rotational constants: A =   2890.16769  B =    390.34971  C =    365.12097 [MHz]
  Nuclear repulsion =  712.974802900414147

  Charge       = 1
  Multiplicity = 1
  Electrons    = 90
  Nalpha       = 45
  Nbeta        = 45

  ==> Algorithm <==

  SCF Algorithm Type is DF.
  DIIS enabled.
  MOM disabled.
  Fractional occupation disabled.
  Guess Type is READ.
  Energy threshold   = 1.00e-10
  Density threshold  = 1.00e-10
  Integral threshold = 0.00e+00

  ==> Primary Basis <==

  Basis Set: AUG-CC-PVTZ
    Blend: AUG-CC-PVTZ
    Number of shells: 272
    Number of basis function: 828
    Number of Cartesian functions: 965
    Spherical Harmonics?: true
    Max angular momentum: 3

   => Loading Basis Set <=

    Name: (AUG-CC-PVTZ AUX)
    Role: JKFIT
    Keyword: DF_BASIS_SCF
    atoms 1-11  entry C          line   161 file /cbio/jclab/home/chayas/anaconda/envs/py35/share/psi4/basis/aug-cc-pvtz-jkfit.gbs 
    atoms 12    entry N          line   223 file /cbio/jclab/home/chayas/anaconda/envs/py35/share/psi4/basis/aug-cc-pvtz-jkfit.gbs 
    atoms 13    entry O          line   285 file /cbio/jclab/home/chayas/anaconda/envs/py35/share/psi4/basis/aug-cc-pvtz-jkfit.gbs 
    atoms 14-23 entry H          line    69 file /cbio/jclab/home/chayas/anaconda/envs/py35/share/psi4/basis/aug-cc-pvtz-jkfit.gbs 

  Reading orbitals from file 180, no projection.

  ==> Pre-Iterations <==

   -------------------------------------------------------
    Irrep   Nso     Nmo     Nalpha   Nbeta   Ndocc  Nsocc
   -------------------------------------------------------
     A        828     828       0       0       0       0
   -------------------------------------------------------
    Total     828     828      45      45      45       0
   -------------------------------------------------------

  ==> Integral Setup <==

  ==> DFJK: Density-Fitted J/K Matrices <==

    J tasked:                  Yes
    K tasked:                  Yes
    wK tasked:                  No
    OpenMP threads:              8
    Integrals threads:           8
    Memory (MB):              3576
    Algorithm:                Disk
    Integral Cache:           NONE
    Schwarz Cutoff:          1E-12
    Fitting Condition:       1E-12

   => Auxiliary Basis Set <=

  Basis Set: (AUG-CC-PVTZ AUX)
    Blend: AUG-CC-PVTZ-JKFIT
    Number of shells: 530
    Number of basis function: 1812
    Number of Cartesian functions: 2253
    Spherical Harmonics?: true
    Max angular momentum: 4

  Minimum eigenvalue in the overlap matrix is 5.4417844860E-07.
  Using Symmetric Orthogonalization.

  SCF Guess: Orbitals guess was supplied from a previous computation.

  ==> Iterations <==

                           Total Energy        Delta E     RMS |[F,P]|

   @DF-RHF iter   0:  -551.75245985927108   -5.51752e+02   4.04095e-04 
   @DF-RHF iter   1:  -551.67711200777489    7.53479e-02   7.82456e-05 
   @DF-RHF iter   2:  -551.67736651253790   -2.54505e-04   3.16224e-05 DIIS
   @DF-RHF iter   3:  -551.67749548733593   -1.28975e-04   5.81692e-06 DIIS
   @DF-RHF iter   4:  -551.67750319563356   -7.70830e-06   4.04793e-06 DIIS
   @DF-RHF iter   5:  -551.67750498951818   -1.79388e-06   7.73090e-07 DIIS
   @DF-RHF iter   6:  -551.67750522080155   -2.31283e-07   3.65863e-07 DIIS
   @DF-RHF iter   7:  -551.67750528401007   -6.32085e-08   2.35097e-07 DIIS
   @DF-RHF iter   8:  -551.67750530389640   -1.98863e-08   1.14714e-07 DIIS
   @DF-RHF iter   9:  -551.67750530787873   -3.98234e-09   4.90997e-08 DIIS
   @DF-RHF iter  10:  -551.67750530834144   -4.62705e-10   1.63306e-08 DIIS
   @DF-RHF iter  11:  -551.67750530839817   -5.67297e-11   3.99811e-09 DIIS
   @DF-RHF iter  12:  -551.67750530840362   -5.45697e-12   1.64583e-09 DIIS
   @DF-RHF iter  13:  -551.67750530840590   -2.27374e-12   7.08634e-10 DIIS
   @DF-RHF iter  14:  -551.67750530842250   -1.65983e-11   3.04772e-10 DIIS
   @DF-RHF iter  15:  -551.67750530839999    2.25100e-11   1.59606e-10 DIIS
   @DF-RHF iter  16:  -551.67750530839771    2.27374e-12   6.11730e-11 DIIS

  ==> Post-Iterations <==

    Orbital Energies (a.u.)
    -----------------------

    Doubly Occupied:                                                      

       1A    -20.697158     2A    -15.839339     3A    -11.486749  
       4A    -11.486566     5A    -11.449823     6A    -11.422958  
       7A    -11.416480     8A    -11.416342     9A    -11.371761  
      10A    -11.369536    11A    -11.367961    12A    -11.350730  
      13A    -11.344642    14A     -1.517683    15A     -1.515912  
      16A     -1.318581    17A     -1.264457    18A     -1.243794  
      19A     -1.153360    20A     -1.147527    21A     -1.068734  
      22A     -1.057251    23A     -0.973651    24A     -0.967323  
      25A     -0.947541    26A     -0.873349    27A     -0.859940  
      28A     -0.851927    29A     -0.821291    30A     -0.803464  
      31A     -0.788591    32A     -0.775872    33A     -0.751801  
      34A     -0.730411    35A     -0.716332    36A     -0.711146  
      37A     -0.701265    38A     -0.685174    39A     -0.650653  
      40A     -0.621735    41A     -0.612405    42A     -0.573628  
      43A     -0.542291    44A     -0.466619    45A     -0.435671  

    Virtual:                                                              

      46A     -0.103845    47A     -0.086274    48A     -0.064733  
      49A     -0.063148    50A     -0.059267    51A     -0.052553  
      52A     -0.042195    53A     -0.039678    54A     -0.038059  
      55A     -0.031012    56A     -0.023683    57A     -0.021294  
      58A     -0.014059    59A     -0.009874    60A     -0.003261  
      61A     -0.002284    62A     -0.000597    63A      0.008476  
      64A      0.009401    65A      0.012513    66A      0.013403  
      67A      0.018725    68A      0.019333    69A      0.026690  
      70A      0.029683    71A      0.032966    72A      0.034391  
      73A      0.037358    74A      0.039788    75A      0.044372  
      76A      0.046299    77A      0.048932    78A      0.053552  
      79A      0.056616    80A      0.062959    81A      0.063417  
      82A      0.071107    83A      0.076590    84A      0.079251  
      85A      0.083787    86A      0.086406    87A      0.092871  
      88A      0.094813    89A      0.096816    90A      0.104971  
      91A      0.107716    92A      0.113137    93A      0.118729  
      94A      0.122140    95A      0.130384    96A      0.131973  
      97A      0.133777    98A      0.134696    99A      0.141283  
     100A      0.143730   101A      0.150472   102A      0.158220  
     103A      0.161355   104A      0.162412   105A      0.166763  
     106A      0.167534   107A      0.170698   108A      0.175137  
     109A      0.175719   110A      0.177450   111A      0.184522  
     112A      0.186844   113A      0.189571   114A      0.196486  
     115A      0.198247   116A      0.204092   117A      0.211254  
     118A      0.213462   119A      0.214665   120A      0.220110  
     121A      0.222045   122A      0.227575   123A      0.228826  
     124A      0.232508   125A      0.235197   126A      0.240741  
     127A      0.243647   128A      0.248311   129A      0.252580  
     130A      0.257844   131A      0.260429   132A      0.264393  
     133A      0.272223   134A      0.280046   135A      0.281269  
     136A      0.283512   137A      0.289155   138A      0.293971  
     139A      0.296919   140A      0.304460   141A      0.311446  
     142A      0.315250   143A      0.317544   144A      0.319811  
     145A      0.324304   146A      0.325418   147A      0.329384  
     148A      0.331034   149A      0.334544   150A      0.341420  
     151A      0.343083   152A      0.346368   153A      0.348533  
     154A      0.350499   155A      0.354037   156A      0.356890  
     157A      0.359840   158A      0.363327   159A      0.370498  
     160A      0.373555   161A      0.373930   162A      0.375060  
     163A      0.379188   164A      0.385628   165A      0.389998  
     166A      0.390835   167A      0.395256   168A      0.400838  
     169A      0.403901   170A      0.407754   171A      0.408589  
     172A      0.412799   173A      0.416044   174A      0.419564  
     175A      0.427236   176A      0.430002   177A      0.431041  
     178A      0.437693   179A      0.441265   180A      0.448353  
     181A      0.452424   182A      0.456084   183A      0.457626  
     184A      0.467251   185A      0.471635   186A      0.480381  
     187A      0.481494   188A      0.483789   189A      0.488029  
     190A      0.492624   191A      0.499792   192A      0.503596  
     193A      0.519538   194A      0.521622   195A      0.523970  
     196A      0.539438   197A      0.542943   198A      0.545847  
     199A      0.558050   200A      0.561246   201A      0.565562  
     202A      0.568918   203A      0.574073   204A      0.577563  
     205A      0.582789   206A      0.591015   207A      0.596037  
     208A      0.599286   209A      0.603901   210A      0.607024  
     211A      0.609799   212A      0.616700   213A      0.620299  
     214A      0.623091   215A      0.627555   216A      0.632816  
     217A      0.636333   218A      0.644057   219A      0.647496  
     220A      0.656846   221A      0.669453   222A      0.677674  
     223A      0.682944   224A      0.689081   225A      0.691822  
     226A      0.699791   227A      0.706604   228A      0.710835  
     229A      0.714740   230A      0.722967   231A      0.725629  
     232A      0.730130   233A      0.740255   234A      0.745980  
     235A      0.749151   236A      0.753429   237A      0.760752  
     238A      0.762592   239A      0.765640   240A      0.771665  
     241A      0.774105   242A      0.778445   243A      0.781005  
     244A      0.788173   245A      0.790390   246A      0.794028  
     247A      0.796900   248A      0.798094   249A      0.805517  
     250A      0.807779   251A      0.809776   252A      0.811279  
[...]
	 D(9,10,5,18)     =         0.053362	       3.057432
	 D(9,10,6,19)     =        -0.085929	      -4.923347
	 D(10,5,7,12)     =         0.021563	       1.235481
	 D(10,5,7,20)     =         3.140414	     179.932449
	 D(10,6,8,12)     =        -0.011681	      -0.669277
	 D(10,6,8,21)     =         3.123277	     178.950572
	 D(10,9,1,14)     =         0.074942	       4.293881
	 D(10,9,2,15)     =        -0.113062	      -6.477993
	 D(11,3,1,14)     =        -3.126106	    -179.112663
	 D(11,4,2,15)     =         3.139708	     179.892023
	 D(12,7,5,18)     =        -3.113523	    -178.391740
	 D(12,8,6,19)     =        -3.132376	    -179.471900
	 D(13,11,3,16)    =         0.023871	       1.367720
	 D(13,11,4,17)    =         0.005190	       0.297341
	 D(14,1,3,16)     =         0.006399	       0.366647
	 D(15,2,4,17)     =         0.001416	       0.081158
	 D(18,5,7,20)     =         0.005327	       0.305229
	 D(19,6,8,21)     =         0.002582	       0.147949
	 D(20,7,12,22)    =         0.015817	       0.906250
	 D(21,8,12,22)    =         0.006578	       0.376920

	Current energy   :      -554.0976209320

	Energy change for the previous step:
		Projected    :        -0.0000057006
		Actual       :        -0.0000218015

	Performing BFGS update.
	Previous computed or guess Hessian on step 1.
	Steps to be used in Hessian update: 30 29
	Adding user-defined constraint: Fragment 1; Coordinate 66:
		Value =     2.100618; Fixed value    =     2.094400
		Force =    -0.007772; Force constant =     1.250000
	Removing off-diagonal coupling between coordinate 66 and others.
	Taking RFO optimization step.
	Going to follow RFO solution 1.
	Rejecting RFO root 1 because normalization gives large value.
	Rejecting RFO root 2 because normalization gives large value.
	Rejecting RFO root 3 because normalization gives large value.
	Using RFO vector 4.
	Norm of target step-size    0.00281
	Projected energy change by RFO approximation:        -0.0000007411

	Back-transformation to cartesian coordinates...
	Successfully converged to displaced geometry.

	--- Internal Coordinate Step in ANG or DEG, aJ/ANG or AJ/DEG ---
	 ---------------------------------------------------------------------------
	   Coordinate                Previous        Force       Change         New 
	   ----------                --------       ------       ------       ------
	    1 R(1,3)          =      1.379728    -0.000498    -0.000085     1.379643
	    2 R(1,9)          =      1.396931    -0.000474     0.000025     1.396956
	    3 R(1,14)         =      1.080419     0.000354     0.000062     1.080481
	    4 R(2,4)          =      1.382179     0.000186     0.000002     1.382182
	    5 R(2,9)          =      1.394544    -0.000212    -0.000038     1.394507
	    6 R(2,15)         =      1.080467     0.000267     0.000074     1.080541
	    7 R(3,11)         =      1.391906     0.002057     0.000318     1.392224
	    8 R(3,16)         =      1.078508     0.000273     0.000053     1.078560
	    9 R(4,11)         =      1.392574    -0.000031    -0.000033     1.392541
	   10 R(4,17)         =      1.080298     0.000291     0.000015     1.080312
	   11 R(5,7)          =      1.374006     0.000270     0.000011     1.374017
	   12 R(5,10)         =      1.398040    -0.000392    -0.000015     1.398025
	   13 R(5,18)         =      1.078040     0.000527     0.000063     1.078104
	   14 R(6,8)          =      1.373930     0.000106    -0.000013     1.373917
	   15 R(6,10)         =      1.397944     0.001186     0.000110     1.398054
	   16 R(6,19)         =      1.078177     0.000334     0.000078     1.078255
	   17 R(7,12)         =      1.342935     0.000420    -0.000016     1.342918
	   18 R(7,20)         =      1.077238    -0.000048    -0.000007     1.077231
	   19 R(8,12)         =      1.342864    -0.000510    -0.000075     1.342790
	   20 R(8,21)         =      1.077211     0.000394     0.000022     1.077233
	   21 R(9,10)         =      1.451226    -0.002187    -0.000279     1.450946
	   22 R(11,13)        =      1.346410    -0.001096    -0.000083     1.346326
	   23 R(12,22)        =      1.012244    -0.000068    -0.000010     1.012234
	   24 R(13,23)        =      0.963320     0.000718     0.000073     0.963393
	   25 B(1,3,11)       =    120.007471     0.000000     0.003979   120.011450
	   26 B(1,3,16)       =    121.152323    -0.000001    -0.001071   121.151252
	   27 B(1,9,2)        =    119.235624     0.000016     0.021728   119.257352
	   28 B(1,9,10)       =    119.756441    -0.000007    -0.009702   119.746738
	   29 B(2,4,11)       =    119.953764    -0.000001     0.001964   119.955728
	   30 B(2,4,17)       =    119.975198    -0.000001    -0.004868   119.970330
	   31 B(2,9,10)       =    120.580386    -0.000007    -0.011552   120.568834
	   32 B(3,1,9)        =    120.421033    -0.000009    -0.016303   120.404730
	   33 B(3,1,14)       =    119.488361     0.000003     0.001149   119.489509
	   34 B(3,11,4)       =    119.926554     0.000000    -0.003510   119.923044
	   35 B(3,11,13)      =    116.728346    -0.000001     0.000396   116.728742
	   36 B(4,2,9)        =    120.377635    -0.000006    -0.008740   120.368895
	   37 B(4,2,15)       =    119.470409     0.000002     0.003561   119.473969
	   38 B(4,11,13)      =    123.344149     0.000000     0.003086   123.347235
	   39 B(5,7,12)       =    119.203176     0.000001     0.001794   119.204970
	   40 B(5,7,20)       =    123.884578    -0.000000     0.005355   123.889932
	   41 B(5,10,6)       =    117.633121    -0.000002    -0.025932   117.607190
	   42 B(5,10,9)       =    121.095120     0.000004     0.022710   121.117830
	   43 B(6,8,12)       =    119.184271    -0.000002     0.001208   119.185479
	   44 B(6,8,21)       =    123.919659     0.000001     0.001516   123.921175
	   45 B(6,10,9)       =    121.016986    -0.000000     0.002527   121.019513
	   46 B(7,5,10)       =    120.478483    -0.000000     0.014886   120.493369
	   47 B(7,5,18)       =    119.191609     0.000000    -0.008516   119.183094
	   48 B(7,12,8)       =    122.953755     0.000002    -0.006910   122.946844
	   49 B(7,12,22)      =    118.515898     0.000000     0.004635   118.520533
	   50 B(8,6,10)       =    120.508856     0.000002     0.014772   120.523628
	   51 B(8,6,19)       =    119.182788    -0.000001    -0.007329   119.175459
	   52 B(8,12,22)      =    118.528380    -0.000002     0.002176   118.530556
	   53 B(9,1,14)       =    120.081238     0.000006     0.015630   120.096868
	   54 B(9,2,15)       =    120.111348     0.000004     0.004445   120.115793
	   55 B(10,5,18)      =    120.328851    -0.000000    -0.006317   120.322533
	   56 B(10,6,19)      =    120.297456    -0.000000    -0.007360   120.290096
	   57 B(11,3,16)      =    118.838205     0.000000    -0.002903   118.835302
	   58 B(11,4,17)      =    120.070768     0.000002     0.002899   120.073666
	   59 B(11,13,23)     =    110.447188    -0.000000    -0.001907   110.445281
	   60 B(12,7,20)      =    116.900206    -0.000001    -0.006390   116.893817
	   61 B(12,8,21)      =    116.895045     0.000001    -0.002897   116.892148
	   62 D(1,3,11,4)     =      1.201917    -0.000000    -0.011522     1.190395
	   63 D(1,3,11,13)    =   -179.140968    -0.000001    -0.016541  -179.157509
	   64 D(1,9,2,4)      =      3.373615    -0.000001     0.025398     3.399013
	   65 D(1,9,2,15)     =   -178.956247    -0.000001     0.004520  -178.951727
	   66 D(1,9,10,5)     =    120.356544     0.000005    -0.006862   120.349682
	   67 D(1,9,10,6)     =    -53.707583     0.000003     0.002722   -53.704861
	   68 D(2,4,11,3)     =      0.120062     0.000000    -0.001636     0.118426
	   69 D(2,4,11,13)    =   -179.513342     0.000001     0.003742  -179.509601
	   70 D(2,9,1,3)      =     -2.045803     0.000001    -0.038668    -2.084471
	   71 D(2,9,1,14)     =    176.835106     0.000001    -0.009874   176.825233
	   72 D(2,9,10,5)     =    -52.082707     0.000002    -0.012680   -52.095387
	   73 D(2,9,10,6)     =    133.853166    -0.000000    -0.003097   133.850070
	   74 D(3,1,9,10)     =   -174.587028    -0.000001    -0.041922  -174.628950
	   75 D(3,11,4,17)    =    179.930745     0.000000    -0.003290   179.927456
	   76 D(3,11,13,23)   =   -179.981322     0.000001     0.045464  -179.935858
	   77 D(4,2,9,10)     =    175.851869     0.000001     0.028849   175.880718
	   78 D(4,11,3,16)    =   -178.289395    -0.000000    -0.012188  -178.301583
	   79 D(4,11,13,23)   =     -0.337047     0.000000     0.040231    -0.296816
	   80 D(5,7,12,8)     =      0.211627    -0.000000     0.035194     0.246821
	   81 D(5,7,12,22)    =    179.693288     0.000000     0.022348   179.715636
	   82 D(5,10,6,8)     =      2.024124    -0.000001     0.000209     2.024332
	   83 D(5,10,6,19)    =   -179.186639    -0.000001     0.004765  -179.181874
	   84 D(6,8,12,7)     =     -0.495196     0.000000    -0.034231    -0.529428
	   85 D(6,8,12,22)    =   -179.976796    -0.000000    -0.021396  -179.998192
	   86 D(6,10,5,7)     =     -2.306970     0.000001     0.000696    -2.306274
	   87 D(6,10,5,18)    =    177.315996     0.000001     0.010277   177.326272
	   88 D(7,5,10,9)     =   -176.565533    -0.000001     0.008444  -176.557089
	   89 D(7,12,8,21)    =    179.858519     0.000000    -0.005546   179.852973
	   90 D(8,6,10,9)     =    176.287416     0.000001    -0.006308   176.281108
	   91 D(8,12,7,20)    =   -178.575410    -0.000000    -0.003709  -178.579119
	   92 D(9,1,3,11)     =     -0.225144    -0.000000     0.031610    -0.193534
	   93 D(9,1,3,16)     =    179.254166    -0.000000     0.032284   179.286450
	   94 D(9,2,4,11)     =     -2.422957     0.000000    -0.004852    -2.427809
	   95 D(9,2,4,17)     =    177.766177     0.000001    -0.003215   177.762962
	   96 D(9,10,5,18)    =      3.057432    -0.000001     0.018025     3.075457
	   97 D(9,10,6,19)    =     -4.923347     0.000002    -0.001752    -4.925099
	   98 D(10,5,7,12)    =      1.235481    -0.000000    -0.017145     1.218336
	   99 D(10,5,7,20)    =    179.932449    -0.000000     0.024498   179.956947
	  100 D(10,6,8,12)    =     -0.669277     0.000001     0.015463    -0.653814
	  101 D(10,6,8,21)    =    178.950572     0.000000    -0.015384   178.935188
	  102 D(10,9,1,14)    =      4.293881    -0.000002    -0.013128     4.280753
	  103 D(10,9,2,15)    =     -6.477993     0.000002     0.007971    -6.470022
	  104 D(11,3,1,14)    =   -179.112663    -0.000000     0.002828  -179.109835
	  105 D(11,4,2,15)    =    179.892023     0.000000     0.015870   179.907893
	  106 D(12,7,5,18)    =   -178.391740    -0.000000    -0.026624  -178.418364
	  107 D(12,8,6,19)    =   -179.471900     0.000000     0.010962  -179.460938
	  108 D(13,11,3,16)   =      1.367720    -0.000001    -0.017207     1.350513
	  109 D(13,11,4,17)   =      0.297341     0.000001     0.002089     0.299429
	  110 D(14,1,3,16)    =      0.366647    -0.000000     0.003501     0.370149
	  111 D(15,2,4,17)    =      0.081158     0.000001     0.017507     0.098664
	  112 D(18,5,7,20)    =      0.305229    -0.000000     0.015018     0.320247
	  113 D(19,6,8,21)    =      0.147949    -0.000000    -0.019886     0.128064
	  114 D(20,7,12,22)   =      0.906250    -0.000000    -0.016555     0.889695
	  115 D(21,8,12,22)   =      0.376920     0.000000     0.007289     0.384209
	 ---------------------------------------------------------------------------
	Successfully symmetrized geometry.
	 Forces used to impose fixed constraints are not included.
	  Forces zeroed: 66 

  ==> Convergence Check <==

  Measures of convergence in internal coordinates in au.
  Criteria marked as inactive (o), active & met (*), and active & unmet ( ).
  ---------------------------------------------------------------------------------------------
   Step     Total Energy     Delta E     MAX Force     RMS Force      MAX Disp      RMS Disp   
  ---------------------------------------------------------------------------------------------
    Convergence Criteria    1.00e-06 *    3.00e-04 *             o    1.20e-03 *             o
  ---------------------------------------------------------------------------------------------
     31    -554.09762093   -2.18e-05      2.65e-04 *    6.28e-05 o    7.93e-04 *    2.62e-04 o  ~
  ---------------------------------------------------------------------------------------------


  **** Optimization is complete! (in 31 steps) ****

  ==> Optimization Summary <==

  Measures of convergence in internal coordinates in au.
  --------------------------------------------------------------------------------------------------------------- ~
   Step         Total Energy             Delta E       MAX Force       RMS Force        MAX Disp        RMS Disp  ~
  --------------------------------------------------------------------------------------------------------------- ~
      1    -554.093963615732   -554.093963615732      0.01337875      0.00389823      0.03649722      0.00930551  ~
      2    -554.096518019516     -0.002554403784      0.00455172      0.00116371      0.05324427      0.00931492  ~
      3    -554.097194660937     -0.000676641421      0.00199259      0.00042935      0.05995852      0.00932496  ~
      4    -554.097520412400     -0.000325751462      0.00123408      0.00024012      0.06056148      0.00932891  ~
      5    -554.097740327130     -0.000219914730      0.00121837      0.00023321      0.04409365      0.00703067  ~
      6    -554.097808130336     -0.000067803206      0.00160029      0.00024246      0.00776162      0.00121815  ~
      7    -554.097767001276      0.000041129060      0.00106690      0.00016488      0.01170105      0.00207714  ~
      8    -554.097764586679      0.000002414597      0.00107388      0.00015692      0.00151593      0.00025668  ~
      9    -554.097752556543      0.000012030136      0.00099388      0.00014537      0.03226748      0.00932148  ~
     10    -554.097605093798      0.000147462745      0.00151228      0.00048286      0.02932120      0.00835444  ~
     11    -554.097771306209     -0.000166212411      0.00178153      0.00027129      0.01421237      0.00427974  ~
     12    -554.097745401959      0.000025904250      0.00175359      0.00034088      0.01070959      0.00250580  ~
     13    -554.097815035594     -0.000069633636      0.00329965      0.00051403      0.03971260      0.00933121  ~
     14    -554.097451203789      0.000363831805      0.00373221      0.00078507      0.01879499      0.00394909  ~
     15    -554.097736728239     -0.000285524450      0.00266101      0.00052798      0.03257769      0.00931241  ~
     16    -554.097439317653      0.000297410586      0.00323203      0.00081728      0.01793234      0.00491755  ~
     17    -554.097615233279     -0.000175915626      0.00133224      0.00019686      0.00276248      0.00076583  ~
     18    -554.097644529088     -0.000029295810      0.00049462      0.00007498      0.00151078      0.00043014  ~
     19    -554.097645821796     -0.000001292708      0.00037600      0.00006627      0.02966666      0.00932746  ~
     20    -554.097500166073      0.000145655723      0.00149911      0.00044993      0.03128128      0.00932327  ~
     21    -554.097097493252      0.000402672821      0.01192652      0.00185204      0.02745791      0.00932613  ~
     22    -554.096863422164      0.000234071088      0.01048077      0.00179657      0.02600451      0.00931971  ~
     23    -554.097561656469     -0.000698234305      0.00187702      0.00035264      0.01026582      0.00293064  ~
     24    -554.097637516060     -0.000075859591      0.00038767      0.00007091      0.00265352      0.00080016  ~
     25    -554.097653576258     -0.000016060198      0.00037082      0.00006189      0.00283268      0.00080439  ~
     26    -554.097644871769      0.000008704489      0.00021323      0.00004845      0.00928889      0.00303046  ~
     27    -554.097634408609      0.000010463161      0.00142314      0.00025570      0.02730713      0.00933931  ~
     28    -554.096948985096      0.000685423513      0.01269352      0.00224043      0.02452422      0.00553248  ~
     29    -554.097594555149     -0.000645570053      0.00212518      0.00029402      0.00980211      0.00310912  ~
     30    -554.097599130490     -0.000004575341      0.00107372      0.00017465      0.00200895      0.00066044  ~
     31    -554.097620931982     -0.000021801492      0.00028677      0.00006822      0.00079350      0.00026208  ~
  --------------------------------------------------------------------------------------------------------------- ~

	Writing optimization data to binary file.
	Final energy is   -554.0976209319816
	Final (previous) structure:
	Cartesian Geometry (in Angstrom)
	    C    -1.3224392819   0.5807515302  -0.5337684136
	    C    -0.2699533169   0.1281350232   1.5843621686
	    C    -2.3608079911   1.2161003850   0.1156708512
	    C    -1.3226157125   0.7400766382   2.2384641942
	    C     2.1578638464  -0.0621419524  -0.2831797891
	    C     0.6977152360  -1.5087862455  -1.5066443800
	    C     3.2205269341  -0.5537041578  -1.0022119785
	    C     1.7791884668  -1.9766558732  -2.2131825582
	    C    -0.2757519719   0.0106088549   0.1947909451
	    C     0.8663102671  -0.5498452115  -0.5035217902
	    C    -2.3724094347   1.2879909816   1.5056708133
	    N     3.0007420124  -1.4915178841  -1.9379863394
	    O    -3.4257275845   1.9072368048   2.0712449710
	    H    -1.3145212321   0.5424154388  -1.6134782166
	    H     0.5413337332  -0.2928231523   2.1605711704
	    H    -3.1687437201   1.6706644485  -0.4355010218
	    H    -1.3286936365   0.7955446264   3.3173199102
	    H     2.3307643419   0.7093599679   0.4496649716
	    H    -0.2818739649  -1.9045443715  -1.7216919411
	    H     4.2364378019  -0.2175441226  -0.8782649042
	    H     1.7147623801  -2.7255251657  -2.9848222998
	    H     3.7904390065  -1.8429376940  -2.4647877434
	    H    -3.3416910729   1.9054176389   3.0308903036
	Saving final (previous) structure.
			--------------------------
			 OPTKING Finished Execution 
			--------------------------

    Final optimized geometry and variables:
    Molecular point group: c1
    Full point group: C1

    Geometry (in Angstrom), charge = 1, multiplicity = 1:

    C           -1.322439281931     0.580751530190    -0.533768413574
    C           -0.269953316890     0.128135023152     1.584362168555
    C           -2.360807991139     1.216100385033     0.115670851164
    C           -1.322615712513     0.740076638209     2.238464194165
    C            2.157863846423    -0.062141952411    -0.283179789137
    C            0.697715235956    -1.508786245476    -1.506644380032
    C            3.220526934144    -0.553704157820    -1.002211978540
    C            1.779188466792    -1.976655873187    -2.213182558198
    C           -0.275751971916     0.010608854939     0.194790945107
    C            0.866310267071    -0.549845211531    -0.503521790159
    C           -2.372409434723     1.287990981596     1.505670813252
    N            3.000742012363    -1.491517884106    -1.937986339400
    O           -3.425727584523     1.907236804760     2.071244971042
    H           -1.314521232150     0.542415438831    -1.613478216629
    H            0.541333733197    -0.292823152327     2.160571170360
    H           -3.168743720050     1.670664448470    -0.435501021751
    H           -1.328693636502     0.795544626363     3.317319910156
    H            2.330764341884     0.709359967901     0.449664971575
    H           -0.281873964912    -1.904544371504    -1.721691941104
    H            4.236437801897    -0.217544122570    -0.878264904154
    H            1.714762380111    -2.725525165654    -2.984822299817
    H            3.790439006468    -1.842937693979    -2.464787743364
    H           -3.341691072927     1.905417638850     3.030890303616

	Cleaning optimization helper files.

*** Psi4 exiting successfully. Buy a developer a beer!
