
    -----------------------------------------------------------------------
          Psi4: An Open-Source Ab Initio Electronic Structure Package
                               Psi4 1.1 release

                         Git: Rev {HEAD} add49b9 


    R. M. Parrish, L. A. Burns, D. G. A. Smith, A. C. Simmonett,
    A. E. DePrince III, E. G. Hohenstein, U. Bozkaya, A. Yu. Sokolov,
    R. Di Remigio, R. M. Richard, J. F. Gonthier, A. M. James,
    H. R. McAlexander, A. Kumar, M. Saitow, X. Wang, B. P. Pritchard,
    P. Verma, H. F. Schaefer III, K. Patkowski, R. A. King, E. F. Valeev,
    F. A. Evangelista, J. M. Turney, T. D. Crawford, and C. D. Sherrill,
    J. Chem. Theory Comput. in press (2017).
    (doi: 10.1021/acs.jctc.7b00174)

    -----------------------------------------------------------------------


    Psi4 started on: Sunday, 12 November 2017 12:59PM

    Process ID:  14514
    PSIDATADIR: /cbio/jclab/home/chayas/anaconda/envs/py35/share/psi4
    Memory:     500.0 MiB
    Threads:    8
    
  ==> Input File <==

--------------------------------------------------------------------------

memory 5 Gb

molecule phepyrOH_neutral {
  symmetry C1
  0 1 
  C      1.885   -1.036   -0.112
  C      2.878   -1.652   2.002
  C      0.807   -0.463   0.561
  C      1.800   -1.079   2.676
  C      4.835   -1.448   -0.924
  C      4.324   -3.577   0.071
  C      5.895   -2.064   -1.569
  C      5.407   -4.098   -0.619
  C      2.921   -1.631   0.608
  C      4.040   -2.225   -0.090
  C      0.764   -0.484   1.955
  N      6.203   -3.374   -1.437
  O      -0.288   0.076   2.612
  H      1.904   -1.012   -1.199
  H      3.678   -2.112   2.578
  H      0.003   -0.001   -0.006
  H      1.772   -1.098   3.762
  H      4.645   -0.390   -1.074
  H      3.725   -4.215   0.713
  H      6.547   -1.501   -2.229
  H      5.670   -5.146   -0.528
  H      -0.175   -0.018   3.571
  units Angstrom
}

dih_string = "1 9 10 5 60"
set optking fixed_dihedral = $dih_string

optimize('MP2/aug-cc-PVTZ')
--------------------------------------------------------------------------

  Memory set to   4.657 GiB by Python driver.
gradient() will perform analytic gradient computation.

*** tstart() called on gpu-2-5.local
*** at Sun Nov 12 12:59:05 2017

    SCF Algorithm Type (re)set to DF.

*** tstart() called on gpu-2-5.local
*** at Sun Nov 12 12:59:05 2017

   => Loading Basis Set <=

    Name: AUG-CC-PVTZ
    Role: ORBITAL
    Keyword: BASIS
    atoms 1-11  entry C          line   221 file /cbio/jclab/home/chayas/anaconda/envs/py35/share/psi4/basis/aug-cc-pvtz.gbs 
    atoms 12    entry N          line   267 file /cbio/jclab/home/chayas/anaconda/envs/py35/share/psi4/basis/aug-cc-pvtz.gbs 
    atoms 13    entry O          line   313 file /cbio/jclab/home/chayas/anaconda/envs/py35/share/psi4/basis/aug-cc-pvtz.gbs 
    atoms 14-22 entry H          line    34 file /cbio/jclab/home/chayas/anaconda/envs/py35/share/psi4/basis/aug-cc-pvtz.gbs 


         ---------------------------------------------------------
                                   SCF
            by Justin Turney, Rob Parrish, and Andy Simmonett
                              RHF Reference
                        8 Threads,   4768 MiB Core
         ---------------------------------------------------------

  ==> Geometry <==

    Molecular point group: c1
    Full point group: C1

    Geometry (in Angstrom), charge = 0, multiplicity = 1:

       Center              X                  Y                   Z               Mass       
    ------------   -----------------  -----------------  -----------------  -----------------
           C         -1.253585397944     0.710254522211    -0.591317157651    12.000000000000
           C         -0.260585397944     0.094254522211     1.522682842349    12.000000000000
           C         -2.331585397944     1.283254522211     0.081682842349    12.000000000000
           C         -1.338585397944     0.667254522211     2.196682842349    12.000000000000
           C          1.696414602056     0.298254522211    -1.403317157651    12.000000000000
           C          1.185414602056    -1.830745477789    -0.408317157651    12.000000000000
           C          2.756414602056    -0.317745477789    -2.048317157651    12.000000000000
           C          2.268414602056    -2.351745477789    -1.098317157651    12.000000000000
           C         -0.217585397944     0.115254522211     0.128682842349    12.000000000000
           C          0.901414602056    -0.478745477789    -0.569317157651    12.000000000000
           C         -2.374585397944     1.262254522211     1.475682842349    12.000000000000
           N          3.064414602056    -1.627745477789    -1.916317157651    14.003074004780
           O         -3.426585397944     1.822254522211     2.132682842349    15.994914619560
           H         -1.234585397944     0.734254522211    -1.678317157651     1.007825032070
           H          0.539414602056    -0.365745477789     2.098682842349     1.007825032070
           H         -3.135585397944     1.745254522211    -0.485317157651     1.007825032070
           H         -1.366585397944     0.648254522211     3.282682842349     1.007825032070
           H          1.506414602056     1.356254522211    -1.553317157651     1.007825032070
           H          0.586414602056    -2.468745477789     0.233682842349     1.007825032070
           H          3.408414602056     0.245254522211    -2.708317157651     1.007825032070
           H          2.531414602056    -3.399745477789    -1.007317157651     1.007825032070
           H         -3.313585397944     1.728254522211     3.091682842349     1.007825032070

  Running in c1 symmetry.

  Rotational constants: A =      0.09694  B =      0.01321  C =      0.01237 [cm^-1]
  Rotational constants: A =   2906.25594  B =    396.06013  C =    370.74682 [MHz]
  Nuclear repulsion =  697.582360666594582

  Charge       = 0
  Multiplicity = 1
  Electrons    = 90
  Nalpha       = 45
  Nbeta        = 45

  ==> Algorithm <==

  SCF Algorithm Type is DF.
  DIIS enabled.
  MOM disabled.
  Fractional occupation disabled.
  Guess Type is SAD.
  Energy threshold   = 1.00e-10
  Density threshold  = 1.00e-10
  Integral threshold = 0.00e+00

  ==> Primary Basis <==

  Basis Set: AUG-CC-PVTZ
    Blend: AUG-CC-PVTZ
    Number of shells: 263
    Number of basis function: 805
    Number of Cartesian functions: 940
    Spherical Harmonics?: true
    Max angular momentum: 3

   => Loading Basis Set <=

    Name: (AUG-CC-PVTZ AUX)
    Role: JKFIT
    Keyword: DF_BASIS_SCF
    atoms 1-11  entry C          line   161 file /cbio/jclab/home/chayas/anaconda/envs/py35/share/psi4/basis/aug-cc-pvtz-jkfit.gbs 
    atoms 12    entry N          line   223 file /cbio/jclab/home/chayas/anaconda/envs/py35/share/psi4/basis/aug-cc-pvtz-jkfit.gbs 
    atoms 13    entry O          line   285 file /cbio/jclab/home/chayas/anaconda/envs/py35/share/psi4/basis/aug-cc-pvtz-jkfit.gbs 
    atoms 14-22 entry H          line    69 file /cbio/jclab/home/chayas/anaconda/envs/py35/share/psi4/basis/aug-cc-pvtz-jkfit.gbs 

  ==> Pre-Iterations <==

   -------------------------------------------------------
    Irrep   Nso     Nmo     Nalpha   Nbeta   Ndocc  Nsocc
   -------------------------------------------------------
     A        805     805       0       0       0       0
   -------------------------------------------------------
    Total     805     805      45      45      45       0
   -------------------------------------------------------

  ==> Integral Setup <==

  ==> DFJK: Density-Fitted J/K Matrices <==

    J tasked:                  Yes
    K tasked:                  Yes
    wK tasked:                  No
    OpenMP threads:              8
    Integrals threads:           8
    Memory (MB):              3576
    Algorithm:                Disk
    Integral Cache:           NONE
    Schwarz Cutoff:          1E-12
    Fitting Condition:       1E-12

   => Auxiliary Basis Set <=

  Basis Set: (AUG-CC-PVTZ AUX)
    Blend: AUG-CC-PVTZ-JKFIT
    Number of shells: 516
    Number of basis function: 1766
    Number of Cartesian functions: 2198
    Spherical Harmonics?: true
    Max angular momentum: 4

  Minimum eigenvalue in the overlap matrix is 5.8562136929E-07.
  Using Symmetric Orthogonalization.

  SCF Guess: Superposition of Atomic Densities via on-the-fly atomic UHF.

  ==> Iterations <==

                           Total Energy        Delta E     RMS |[F,P]|

   @DF-RHF iter   0:  -556.16147266821270   -5.56161e+02   1.95551e-02 
   @DF-RHF iter   1:  -550.92133479364963    5.24014e+00   2.36835e-03 
   @DF-RHF iter   2:  -551.22704126395865   -3.05706e-01   8.47804e-04 DIIS
   @DF-RHF iter   3:  -551.27174984524834   -4.47086e-02   4.09418e-04 DIIS
   @DF-RHF iter   4:  -551.28447825720116   -1.27284e-02   1.15638e-04 DIIS
   @DF-RHF iter   5:  -551.28584472492707   -1.36647e-03   5.71704e-05 DIIS
   @DF-RHF iter   6:  -551.28613599612481   -2.91271e-04   1.71702e-05 DIIS
   @DF-RHF iter   7:  -551.28618371312882   -4.77170e-05   5.45184e-06 DIIS
   @DF-RHF iter   8:  -551.28618910664818   -5.39352e-06   1.92372e-06 DIIS
   @DF-RHF iter   9:  -551.28618997825629   -8.71608e-07   1.02007e-06 DIIS
   @DF-RHF iter  10:  -551.28619025452531   -2.76269e-07   5.69031e-07 DIIS
   @DF-RHF iter  11:  -551.28619035275642   -9.82311e-08   1.22123e-07 DIIS
   @DF-RHF iter  12:  -551.28619036152838   -8.77196e-09   5.58880e-08 DIIS
   @DF-RHF iter  13:  -551.28619036210921   -5.80826e-10   1.97320e-08 DIIS
   @DF-RHF iter  14:  -551.28619036215991   -5.07043e-11   6.56090e-09 DIIS
   @DF-RHF iter  15:  -551.28619036217992   -2.00089e-11   3.24518e-09 DIIS
   @DF-RHF iter  16:  -551.28619036219141   -1.14824e-11   1.69477e-09 DIIS
   @DF-RHF iter  17:  -551.28619036218527    6.13909e-12   7.57565e-10 DIIS
   @DF-RHF iter  18:  -551.28619036219152   -6.25278e-12   3.45252e-10 DIIS
   @DF-RHF iter  19:  -551.28619036218799    3.52429e-12   1.47488e-10 DIIS
   @DF-RHF iter  20:  -551.28619036217560    1.23919e-11   6.24191e-11 DIIS

  ==> Post-Iterations <==

    Orbital Energies (a.u.)
    -----------------------

    Doubly Occupied:                                                      

       1A    -20.599197     2A    -15.563812     3A    -11.313611  
       4A    -11.274239     5A    -11.274157     6A    -11.261903  
       7A    -11.253244     8A    -11.252003     9A    -11.244412  
      10A    -11.243036    11A    -11.240980    12A    -11.237084  
      13A    -11.236853    14A     -1.414495    15A     -1.249444  
      16A     -1.172218    17A     -1.103508    18A     -1.035971  
      19A     -1.029848    20A     -1.009246    21A     -0.880286  
      22A     -0.864763    23A     -0.846313    24A     -0.810175  
      25A     -0.745262    26A     -0.724321    27A     -0.679983  
      28A     -0.660270    29A     -0.657400    30A     -0.634638  
      31A     -0.615212    32A     -0.602072    33A     -0.600564  
      34A     -0.597093    35A     -0.576858    36A     -0.537409  
      37A     -0.526834    38A     -0.522132    39A     -0.505387  
      40A     -0.489603    41A     -0.418211    42A     -0.383082  
      43A     -0.355297    44A     -0.347917    45A     -0.315429  

    Virtual:                                                              

      46A      0.022015    47A      0.030802    48A      0.032453  
      49A      0.037146    50A      0.042381    51A      0.047564  
      52A      0.050913    53A      0.054165    54A      0.062223  
      55A      0.082288    56A      0.083986    57A      0.087176  
      58A      0.091528    59A      0.095981    60A      0.098439  
      61A      0.100399    62A      0.104661    63A      0.108747  
      64A      0.109439    65A      0.110765    66A      0.112973  
      67A      0.118102    68A      0.119209    69A      0.124275  
      70A      0.127720    71A      0.128797    72A      0.132683  
      73A      0.133432    74A      0.141795    75A      0.142786  
      76A      0.147025    77A      0.150708    78A      0.151940  
      79A      0.156029    80A      0.157187    81A      0.161744  
      82A      0.168360    83A      0.173879    84A      0.174460  
      85A      0.184723    86A      0.188610    87A      0.200734  
      88A      0.203918    89A      0.209287    90A      0.217921  
      91A      0.222281    92A      0.226892    93A      0.234314  
      94A      0.237241    95A      0.239928    96A      0.242851  
      97A      0.246307    98A      0.249079    99A      0.253516  
     100A      0.256018   101A      0.260277   102A      0.261228  
     103A      0.267636   104A      0.268794   105A      0.274601  
     106A      0.277070   107A      0.282192   108A      0.286027  
     109A      0.287818   110A      0.294734   111A      0.300153  
     112A      0.302134   113A      0.309088   114A      0.310019  
     115A      0.315966   116A      0.319170   117A      0.320385  
     118A      0.324679   119A      0.328913   120A      0.331129  
     121A      0.331726   122A      0.344509   123A      0.349927  
     124A      0.353527   125A      0.358758   126A      0.362365  
     127A      0.368700   128A      0.372263   129A      0.379433  
     130A      0.393473   131A      0.393713   132A      0.402389  
     133A      0.404486   134A      0.408938   135A      0.410238  
     136A      0.414646   137A      0.417436   138A      0.418451  
     139A      0.428337   140A      0.434489   141A      0.438306  
     142A      0.439779   143A      0.444148   144A      0.444806  
     145A      0.448968   146A      0.453473   147A      0.459015  
     148A      0.460691   149A      0.462697   150A      0.473359  
     151A      0.474645   152A      0.478038   153A      0.479251  
     154A      0.481732   155A      0.485384   156A      0.486515  
     157A      0.493237   158A      0.494726   159A      0.498137  
     160A      0.505079   161A      0.508928   162A      0.511654  
     163A      0.514608   164A      0.515747   165A      0.516667  
     166A      0.523192   167A      0.525781   168A      0.532851  
     169A      0.536743   170A      0.540540   171A      0.546991  
     172A      0.548038   173A      0.549218   174A      0.551607  
     175A      0.556766   176A      0.562307   177A      0.567846  
     178A      0.577156   179A      0.582967   180A      0.583853  
     181A      0.591825   182A      0.600502   183A      0.603277  
     184A      0.609382   185A      0.620457   186A      0.624343  
     187A      0.629324   188A      0.631643   189A      0.637195  
     190A      0.642666   191A      0.648149   192A      0.658565  
     193A      0.662212   194A      0.668805   195A      0.679978  
     196A      0.688726   197A      0.693523   198A      0.702039  
     199A      0.702934   200A      0.706300   201A      0.709119  
     202A      0.714107   203A      0.723196   204A      0.723977  
     205A      0.731847   206A      0.736141   207A      0.740078  
     208A      0.742803   209A      0.743523   210A      0.753378  
     211A      0.765825   212A      0.771940   213A      0.775353  
     214A      0.782751   215A      0.793363   216A      0.797725  
     217A      0.803663   218A      0.805071   219A      0.812479  
     220A      0.815762   221A      0.822468   222A      0.832107  
     223A      0.834175   224A      0.837687   225A      0.846527  
     226A      0.852815   227A      0.858650   228A      0.860455  
     229A      0.867524   230A      0.874408   231A      0.879799  
     232A      0.882513   233A      0.884892   234A      0.887819  
     235A      0.893641   236A      0.897089   237A      0.902851  
     238A      0.913415   239A      0.918722   240A      0.922400  
     241A      0.923653   242A      0.928662   243A      0.936160  
     244A      0.938239   245A      0.940902   246A      0.944745  
     247A      0.953495   248A      0.956753   249A      0.957816  
     250A      0.962466   251A      0.966130   252A      0.969990  
     253A      0.976645   254A      0.980442   255A      0.986867  
     256A      0.990564   257A      0.994792   258A      0.997970  
     259A      1.004906   260A      1.010359   261A      1.017949  
     262A      1.020389   263A      1.022788   264A      1.032065  
     265A      1.035658   266A      1.039920   267A      1.044463  
     268A      1.048149   269A      1.052940   270A      1.053567  
     271A      1.058560   272A      1.061901   273A      1.066546  
     274A      1.070515   275A      1.085804   276A      1.087170  
     277A      1.089612   278A      1.093056   279A      1.098064  
     280A      1.102373   281A      1.106081   282A      1.111156  
     283A      1.112783   284A      1.121646   285A      1.127410  
     286A      1.131126   287A      1.134007   288A      1.144778  
     289A      1.146467   290A      1.152332   291A      1.155319  
     292A      1.163595   293A      1.167052   294A      1.170859  
     295A      1.175413   296A      1.178426   297A      1.181491  
     298A      1.185571   299A      1.189426   300A      1.202276  
     301A      1.204782   302A      1.206293   303A      1.213237  
     304A      1.219938   305A      1.225363   306A      1.229421  
     307A      1.235790   308A      1.242512   309A      1.248464  
     310A      1.259337   311A      1.265874   312A      1.268253  
     313A      1.274749   314A      1.276940   315A      1.281589  
     316A      1.291442   317A      1.293174   318A      1.300792  
     319A      1.307790   320A      1.313292   321A      1.316566  
     322A      1.322183   323A      1.331200   324A      1.347129  
     325A      1.350563   326A      1.357981   327A      1.362834  
     328A      1.371669   329A      1.379567   330A      1.386968  
     331A      1.395052   332A      1.398447   333A      1.403200  
     334A      1.410744   335A      1.414509   336A      1.424160  
     337A      1.428460   338A      1.440257   339A      1.452890  
     340A      1.462187   341A      1.463954   342A      1.480238  
     343A      1.486164   344A      1.487610   345A      1.495799  
     346A      1.508412   347A      1.510655   348A      1.518730  
     349A      1.533155   350A      1.536304   351A      1.548014  
     352A      1.553464   353A      1.557514   354A      1.566582  
     355A      1.571793   356A      1.580245   357A      1.586268  
     358A      1.592892   359A      1.597760   360A      1.608517  
     361A      1.623544   362A      1.632165   363A      1.633572  
     364A      1.643301   365A      1.651846   366A      1.657348  
     367A      1.659142   368A      1.672343   369A      1.687656  
     370A      1.689112   371A      1.692596   372A      1.698061  
     373A      1.709648   374A      1.714667   375A      1.726612  
     376A      1.733316   377A      1.738261   378A      1.739118  
     379A      1.746959   380A      1.756092   381A      1.760806  
     382A      1.771004   383A      1.789222   384A      1.794871  
     385A      1.800392   386A      1.804979   387A      1.811606  
     388A      1.817247   389A      1.836382   390A      1.843405  
     391A      1.846802   392A      1.853962   393A      1.859690  
     394A      1.860511   395A      1.874764   396A      1.889620  
     397A      1.898553   398A      1.904033   399A      1.907568  
     400A      1.910335   401A      1.922115   402A      1.929104  
     403A      1.935297   404A      1.945129   405A      1.946652  
     406A      1.956565   407A      1.958678   408A      1.975608  
     409A      1.984243   410A      1.990354   411A      1.994546  
     412A      1.999110   413A      2.020092   414A      2.024703  
     415A      2.029964   416A      2.037628   417A      2.044869  
     418A      2.049689   419A      2.053891   420A      2.066048  
     421A      2.076535   422A      2.079801   423A      2.096623  
     424A      2.100496   425A      2.103308   426A      2.110586  
     427A      2.122126   428A      2.123826   429A      2.133609  
     430A      2.144216   431A      2.149406   432A      2.157319  
     433A      2.164107   434A      2.179172   435A      2.186950  
     436A      2.191145   437A      2.201041   438A      2.206875  
     439A      2.213463   440A      2.223627   441A      2.237154  
     442A      2.237648   443A      2.254344   444A      2.259630  
     445A      2.265309   446A      2.270855   447A      2.286179  
     448A      2.289639   449A      2.296828   450A      2.311973  
     451A      2.318459   452A      2.334864   453A      2.340130  
     454A      2.362318   455A      2.364554   456A      2.387793  
     457A      2.389193   458A      2.401976   459A      2.406959  
     460A      2.413627   461A      2.422985   462A      2.441255  
     463A      2.445330   464A      2.453098   465A      2.468121  
     466A      2.480788   467A      2.491220   468A      2.504426  
     469A      2.523619   470A      2.526419   471A      2.545752  
     472A      2.557928   473A      2.569302   474A      2.577057  
     475A      2.586898   476A      2.586974   477A      2.596816  
     478A      2.608532   479A      2.620374   480A      2.629027  
     481A      2.649991   482A      2.656182   483A      2.687916  
     484A      2.693926   485A      2.706065   486A      2.734031  
     487A      2.739967   488A      2.764908   489A      2.767684  
     490A      2.800993   491A      2.814150   492A      2.823759  
     493A      2.830353   494A      2.845117   495A      2.850210  
     496A      2.864846   497A      2.881233   498A      2.895891  
     499A      2.933319   500A      2.938855   501A      2.978025  
     502A      2.993016   503A      3.004789   504A      3.051109  
     505A      3.063634   506A      3.083413   507A      3.096552  
     508A      3.112717   509A      3.151142   510A      3.166389  
     511A      3.206915   512A      3.221543   513A      3.225495  
     514A      3.230222   515A      3.249420   516A      3.252266  
     517A      3.267399   518A      3.277515   519A      3.290721  
     520A      3.301476   521A      3.313920   522A      3.322297  
     523A      3.337751   524A      3.368841   525A      3.374089  
     526A      3.386317   527A      3.392447   528A      3.403478  
     529A      3.408202   530A      3.418331   531A      3.426202  
     532A      3.435444   533A      3.449982   534A      3.456110  
     535A      3.460387   536A      3.469385   537A      3.480708  
     538A      3.490700   539A      3.494749   540A      3.498754  
     541A      3.517963   542A      3.532382   543A      3.540080  
     544A      3.543837   545A      3.549848   546A      3.555442  
     547A      3.561156   548A      3.573127   549A      3.581190  
     550A      3.585210   551A      3.595013   552A      3.608088  
     553A      3.611623   554A      3.619525   555A      3.624817  
     556A      3.630326   557A      3.658108   558A      3.669849  
     559A      3.672184   560A      3.680605   561A      3.692240  
     562A      3.702445   563A      3.714348   564A      3.721773  
     565A      3.735019   566A      3.739445   567A      3.754609  
     568A      3.759541   569A      3.771678   570A      3.777925  
     571A      3.784083   572A      3.790832   573A      3.808870  
     574A      3.813839   575A      3.826596   576A      3.838371  
     577A      3.853233   578A      3.861592   579A      3.869072  
     580A      3.873873   581A      3.881920   582A      3.896462  
     583A      3.907105   584A      3.916530   585A      3.920151  
     586A      3.926586   587A      3.937955   588A      3.946688  
     589A      3.958149   590A      3.962802   591A      3.964383  
     592A      3.968279   593A      3.977971   594A      3.979957  
     595A      3.998401   596A      4.008215   597A      4.017862  
     598A      4.027667   599A      4.030700   600A      4.031043  
     601A      4.033997   602A      4.055757   603A      4.074596  
     604A      4.086013   605A      4.095994   606A      4.097858  
     607A      4.116237   608A      4.126328   609A      4.128220  
     610A      4.137771   611A      4.142506   612A      4.148319  
     613A      4.154289   614A      4.162728   615A      4.175397  
     616A      4.192970   617A      4.196605   618A      4.199473  
     619A      4.216237   620A      4.222864   621A      4.223828  
     622A      4.229759   623A      4.233786   624A      4.270689  
     625A      4.296343   626A      4.298899   627A      4.300825  
     628A      4.304793   629A      4.313586   630A      4.316923  
     631A      4.327500   632A      4.338882   633A      4.342937  
     634A      4.360695   635A      4.368762   636A      4.374568  
     637A      4.380111   638A      4.392480   639A      4.396078  
     640A      4.408360   641A      4.424466   642A      4.432073  
     643A      4.436762   644A      4.443781   645A      4.454382  
     646A      4.456945   647A      4.470014   648A      4.477805  
     649A      4.482880   650A      4.491033   651A      4.494814  
     652A      4.518183   653A      4.530169   654A      4.539729  
     655A      4.543731   656A      4.546723   657A      4.571649  
     658A      4.584647   659A      4.588701   660A      4.616399  
     661A      4.625948   662A      4.638584   663A      4.663410  
     664A      4.667050   665A      4.683109   666A      4.698734  
     667A      4.703279   668A      4.719970   669A      4.736991  
     670A      4.745489   671A      4.757295   672A      4.761131  
     673A      4.788167   674A      4.816335   675A      4.822378  
     676A      4.862104   677A      4.870875   678A      4.880026  
     679A      4.891202   680A      4.911846   681A      4.923944  
     682A      4.941713   683A      4.947817   684A      4.959212  
     685A      4.968397   686A      4.971831   687A      4.979977  
     688A      5.004252   689A      5.020138   690A      5.026953  
     691A      5.030946   692A      5.038005   693A      5.042343  
     694A      5.055908   695A      5.062151   696A      5.078901  
     697A      5.085147   698A      5.105249   699A      5.119213  
     700A      5.138778   701A      5.151522   702A      5.154551  
     703A      5.157745   704A      5.174326   705A      5.176390  
     706A      5.179170   707A      5.183008   708A      5.201796  
     709A      5.213024   710A      5.231880   711A      5.238536  
     712A      5.282265   713A      5.292507   714A      5.310262  
     715A      5.314187   716A      5.329832   717A      5.340335  
     718A      5.343163   719A      5.367490   720A      5.379268  
     721A      5.397641   722A      5.421690   723A      5.433965  
     724A      5.444492   725A      5.459257   726A      5.462782  
     727A      5.479497   728A      5.485279   729A      5.497830  
     730A      5.536242   731A      5.556818   732A      5.570854  
     733A      5.571736   734A      5.637552   735A      5.663951  
     736A      5.668495   737A      5.700352   738A      5.715912  
     739A      5.747152   740A      5.760656   741A      5.794499  
     742A      5.809344   743A      5.829544   744A      5.849459  
     745A      5.869757   746A      5.880510   747A      5.911334  
     748A      5.939163   749A      6.021527   750A      6.049652  
     751A      6.081650   752A      6.112692   753A      6.139472  
     754A      6.187028   755A      6.228075   756A      6.259511  
     757A      6.273330   758A      6.315360   759A      6.319230  
     760A      6.360100   761A      6.401911   762A      6.448012  
     763A      6.489314   764A      6.501667   765A      6.538414  
     766A      6.573006   767A      6.579589   768A      6.699411  
     769A      6.707464   770A      6.719823   771A      6.765805  
     772A      6.873750   773A      6.879035   774A      6.895465  
     775A      6.904073   776A      6.930225   777A      7.004024  
     778A      7.016359   779A      7.052333   780A      7.085235  
     781A      7.101602   782A      7.217852   783A      7.261357  
     784A      7.420504   785A      7.422512   786A      7.437072  
     787A      7.692503   788A      7.707346   789A      7.758910  
     790A      8.012918   791A      8.389525   792A      8.640819  
     793A     15.598542   794A     16.273427   795A     16.574485  
     796A     16.679596   797A     16.759554   798A     18.429058  
     799A     18.700740   800A     19.217603   801A     19.503364  
     802A     20.023825   803A     20.107347   804A     20.265436  
     805A     21.814580  

    Final Occupation by Irrep:
              A 
    DOCC [    45 ]

  Energy converged.

  @DF-RHF Final Energy:  -551.28619036217560

   => Energetics <=

    Nuclear Repulsion Energy =            697.5823606665945817
    One-Electron Energy =               -2131.9255614812886961
    Two-Electron Energy =                 883.0570104525186252
    DFT Exchange-Correlation Energy =       0.0000000000000000
    Empirical Dispersion Energy =           0.0000000000000000
    PCM Polarization Energy =               0.0000000000000000
    EFP Energy =                            0.0000000000000000
    Total Energy =                       -551.2861903621756028



Properties will be evaluated at   0.000000,   0.000000,   0.000000 Bohr

Properties computed using the SCF density matrix

  Nuclear Dipole Moment: (a.u.)
     X:    -0.4737      Y:     0.2228      Z:     1.2103

  Electronic Dipole Moment: (a.u.)
     X:    -0.1067      Y:     0.0683      Z:    -0.2570

  Dipole Moment: (a.u.)
     X:    -0.5804      Y:     0.2912      Z:     0.9532     Total:     1.1534

  Dipole Moment: (Debye)
     X:    -1.4753      Y:     0.7401      Z:     2.4229     Total:     2.9317


*** tstop() called on gpu-2-5.local at Sun Nov 12 13:07:29 2017
Module time:
	user time   =    1206.99 seconds =      20.12 minutes
	system time =      52.65 seconds =       0.88 minutes
	total time  =        504 seconds =       8.40 minutes
Total time:
	user time   =    1207.00 seconds =      20.12 minutes
	system time =      52.65 seconds =       0.88 minutes
	total time  =        504 seconds =       8.40 minutes

  //>>>>>>>>>>>>>>>>>>>>>>>>>>>>>>>>>>>//
  //               DFMP2               //
  //<<<<<<<<<<<<<<<<<<<<<<<<<<<<<<<<<<<//

   => Loading Basis Set <=

    Name: (AUG-CC-PVTZ AUX)
    Role: RIFIT
    Keyword: DF_BASIS_MP2
    atoms 1-11  entry C          line   147 file /cbio/jclab/home/chayas/anaconda/envs/py35/share/psi4/basis/aug-cc-pvtz-ri.gbs 
    atoms 12    entry N          line   205 file /cbio/jclab/home/chayas/anaconda/envs/py35/share/psi4/basis/aug-cc-pvtz-ri.gbs 
    atoms 13    entry O          line   263 file /cbio/jclab/home/chayas/anaconda/envs/py35/share/psi4/basis/aug-cc-pvtz-ri.gbs 
    atoms 14-22 entry H          line    29 file /cbio/jclab/home/chayas/anaconda/envs/py35/share/psi4/basis/aug-cc-pvtz-ri.gbs 

	 --------------------------------------------------------
	                          DF-MP2                         
	      2nd-Order Density-Fitted Moller-Plesset Theory     
	              RMP2 Wavefunction,   8 Threads             
	                                                         
	        Rob Parrish, Justin Turney, Andy Simmonett,      
	           Ed Hohenstein, and C. David Sherrill          
	 --------------------------------------------------------

   => Auxiliary Basis Set <=

  Basis Set: (AUG-CC-PVTZ AUX)
    Blend: AUG-CC-PVTZ-RI
    Number of shells: 490
    Number of basis function: 1792
    Number of Cartesian functions: 2263
    Spherical Harmonics?: true
    Max angular momentum: 4

	 --------------------------------------------------------
	                 NBF =   805, NAUX =  1792
	 --------------------------------------------------------
	   CLASS    FOCC     OCC    AOCC    AVIR     VIR    FVIR
	   PAIRS       0      45      45     760     760       0
	 --------------------------------------------------------


         ------------------------------------------------------------
                                     CPHF                           
                                  Rob Parrish                       
         ------------------------------------------------------------

  ==> Geometry <==

    Molecular point group: c1
    Full point group: C1

    Geometry (in Angstrom), charge = 0, multiplicity = 1:

       Center              X                  Y                   Z               Mass       
    ------------   -----------------  -----------------  -----------------  -----------------
           C         -1.253585397944     0.710254522211    -0.591317157651    12.000000000000
           C         -0.260585397944     0.094254522211     1.522682842349    12.000000000000
           C         -2.331585397944     1.283254522211     0.081682842349    12.000000000000
           C         -1.338585397944     0.667254522211     2.196682842349    12.000000000000
           C          1.696414602056     0.298254522211    -1.403317157651    12.000000000000
           C          1.185414602056    -1.830745477789    -0.408317157651    12.000000000000
           C          2.756414602056    -0.317745477789    -2.048317157651    12.000000000000
           C          2.268414602056    -2.351745477789    -1.098317157651    12.000000000000
           C         -0.217585397944     0.115254522211     0.128682842349    12.000000000000
           C          0.901414602056    -0.478745477789    -0.569317157651    12.000000000000
           C         -2.374585397944     1.262254522211     1.475682842349    12.000000000000
           N          3.064414602056    -1.627745477789    -1.916317157651    14.003074004780
           O         -3.426585397944     1.822254522211     2.132682842349    15.994914619560
           H         -1.234585397944     0.734254522211    -1.678317157651     1.007825032070
           H          0.539414602056    -0.365745477789     2.098682842349     1.007825032070
           H         -3.135585397944     1.745254522211    -0.485317157651     1.007825032070
           H         -1.366585397944     0.648254522211     3.282682842349     1.007825032070
           H          1.506414602056     1.356254522211    -1.553317157651     1.007825032070
           H          0.586414602056    -2.468745477789     0.233682842349     1.007825032070
           H          3.408414602056     0.245254522211    -2.708317157651     1.007825032070
           H          2.531414602056    -3.399745477789    -1.007317157651     1.007825032070
           H         -3.313585397944     1.728254522211     3.091682842349     1.007825032070

  Nuclear repulsion =  697.582360666594582
  Reference energy  = -551.286190362175603

  ==> Basis Set <==

  Basis Set: AUG-CC-PVTZ
    Blend: AUG-CC-PVTZ
    Number of shells: 263
    Number of basis function: 805
    Number of Cartesian functions: 940
    Spherical Harmonics?: true
    Max angular momentum: 3

  ==> CGRSolver (by Rob Parrish) <==

   Number of roots    =         1
   Preconditioning    =    JACOBI
   Convergence cutoff =     1E-06
   Maximum iterations =       100

  ==> CPHFRHamiltonian (by Rob Parrish) <== 

  ==> DFJK: Density-Fitted J/K Matrices <==

    J tasked:                  Yes
    K tasked:                  Yes
    wK tasked:                  No
    OpenMP threads:              8
    Integrals threads:           8
    Memory (MB):              3576
    Algorithm:                Disk
    Integral Cache:           NONE
    Schwarz Cutoff:          1E-12
    Fitting Condition:       1E-12

   => Auxiliary Basis Set <=

  Basis Set: (AUG-CC-PVTZ AUX)
    Blend: AUG-CC-PVTZ-JKFIT
    Number of shells: 516
    Number of basis function: 1766
    Number of Cartesian functions: 2198
    Spherical Harmonics?: true
    Max angular momentum: 4

  ==> CPHF Iterations <==

  => Iterations <=

             Iter  Converged  Remaining    Residual
  CGR           1          0          1   8.849E-02
  CGR           2          0          1   3.430E-02
  CGR           3          0          1   2.324E-02
  CGR           4          0          1   9.657E-03
  CGR           5          0          1   3.800E-03
  CGR           6          0          1   1.558E-03
  CGR           7          0          1   4.277E-04
  CGR           8          0          1   1.181E-04
  CGR           9          0          1   4.879E-05
  CGR          10          0          1   1.841E-05
  CGR          11          0          1   9.438E-06
  CGR          12          0          1   4.123E-06
  CGR          13          0          1   1.344E-06
  CGR          14          1          0   4.507E-07

    CGRSolver converged.

  ==> DFCorrGrad: Density-Fitted Correlated Gradients <==

    OpenMP threads:              8
    Integrals threads:           8
    Memory (MB):              3576
    Schwarz Cutoff:          0E+00
    Fitting Condition:       1E-12

   => Auxiliary Basis Set <=

  Basis Set: (AUG-CC-PVTZ AUX)
    Blend: AUG-CC-PVTZ-JKFIT
    Number of shells: 516
    Number of basis function: 1766
    Number of Cartesian functions: 2198
    Spherical Harmonics?: true
    Max angular momentum: 4

	-----------------------------------------------------------
	 ==================> DF-MP2 Energies <==================== 
	-----------------------------------------------------------
	 Reference Energy          =    -551.2861903621756028 [Eh]
	 Singles Energy            =      -0.0000000000000004 [Eh]
	 Same-Spin Energy          =      -0.6044526932535201 [Eh]
	 Opposite-Spin Energy      =      -1.8300545005484223 [Eh]
	 Correlation Energy        =      -2.4345071938019429 [Eh]
	 Total Energy              =    -553.7206975559774946 [Eh]
	-----------------------------------------------------------
	 ================> DF-SCS-MP2 Energies <================== 
	-----------------------------------------------------------
	 SCS Same-Spin Scale       =       0.3333333333333333 [-]
	 SCS Opposite-Spin Scale   =       1.2000000000000000 [-]
	 SCS Same-Spin Energy      =      -0.2014842310845067 [Eh]
	 SCS Opposite-Spin Energy  =      -2.1960654006581066 [Eh]
	 SCS Correlation Energy    =      -2.3975496317426139 [Eh]
	 SCS Total Energy          =    -553.6837399939182660 [Eh]
	-----------------------------------------------------------


  -Total Gradient:
     Atom            X                  Y                   Z
    ------   -----------------  -----------------  -----------------
       1        0.005296849204    -0.005638970724    -0.008244379706
       2        0.008550402946    -0.001433276347    -0.004008900692
       3        0.002137911538    -0.001539856797     0.001484506838
       4       -0.005552180475     0.003040415393     0.006915737869
       5       -0.003853452156     0.006278894374     0.004270223304
       6       -0.008194963892    -0.001046930352     0.003500804579
       7       -0.007149037875     0.012045244989     0.002676180170
       8       -0.010412336574    -0.002636092282     0.008014481519
       9        0.006036772477    -0.003385940178    -0.004190613363
      10        0.000651696829     0.000580426801    -0.000782023484
      11       -0.007489624005     0.004401393855    -0.007742858845
      12        0.013182720739    -0.007262502974    -0.008008083610
      13        0.005885731521    -0.003230929343     0.000386417310
      14       -0.001275299472     0.001339393249    -0.005632456155
      15        0.002845941393    -0.002205763211     0.004938360763
      16       -0.002571840945     0.001950009789    -0.005133122847
      17        0.000668644615    -0.000829063447     0.003656060357
      18        0.000768059815     0.004483086221    -0.002458392531
      19       -0.000947863880    -0.004350782794     0.002628000118
      20        0.001958851839     0.000880988483    -0.001998617837
      21        0.001124913841    -0.002022511291     0.000010466541
      22       -0.001661897490     0.000582766593     0.009718209699


*** tstop() called on gpu-2-5.local at Sun Nov 12 13:38:35 2017
Module time:
	user time   =    5102.61 seconds =      85.04 minutes
	system time =     107.04 seconds =       1.78 minutes
	total time  =       2370 seconds =      39.50 minutes
Total time:
	user time   =    5102.62 seconds =      85.04 minutes
	system time =     107.04 seconds =       1.78 minutes
	total time  =       2370 seconds =      39.50 minutes

			-----------------------------------------
			 OPTKING 2.0: for geometry optimizations 
			  - R.A. King,  Bethel University        
			-----------------------------------------

	Internal coordinates to be generated automatically.
	Detected frag 1 with atoms:  1 2 3 4 5 6 7 8 9 10 11 12 13 14 15 16 17 18 19 20
	 21 22
	---Fragment 1 Bond Connectivity---
	 1 : 3 9 14
	 2 : 4 9 15
	 3 : 1 11 16
	 4 : 2 11 17
	 5 : 7 10 18
	 6 : 8 10 19
	 7 : 5 12 20
	 8 : 6 12 21
	 9 : 1 2 10
	 10 : 5 6 9
	 11 : 3 4 13
	 12 : 7 8
	 13 : 11 22
	 14 : 1
	 15 : 2
	 16 : 3
	 17 : 4
	 18 : 5
	 19 : 6
	 20 : 7
	 21 : 8
	 22 : 13

	Assuming in current code that numbering for constraints corresponds to unified fragment.
	Fixed dihedral atom list: 
	     1     9    10     5
	---Fragment 1 Geometry and Gradient---
	 C          -2.3689330863        1.3421865316       -1.1174274856
	 C          -0.4924350363        0.1781152338        2.8774535593
	 C          -4.4060578576        2.4249996058        0.1543582018
	 C          -2.5295598076        1.2609283079        4.1511289728
	 C           3.2057590057        0.5636193649       -2.6518851055
	 C           2.2401089518       -3.4596075720       -0.7716076033
	 C           5.2088687066       -0.6004519330       -3.8707584613
	 C           4.2866823537       -4.4441548873       -2.0755186350
	 C          -0.4111768126        0.2177994826        0.2431753300
	 C           1.7034267301       -0.9046978404       -1.0758535107
	 C          -4.4873160813        2.3853153570        2.7886364310
	 N           5.7909043555       -3.0759931671       -3.6213146117
	 O          -6.4753079731        3.4435619914        4.0301865003
	 H          -2.3330282898        1.3875399588       -3.1715597921
	 H           1.0193458700       -0.6911587874        3.9659358118
	 H          -5.9253976684        3.2980530792       -0.9171165156
	 H          -2.5824721393        1.2250235114        6.2033715532
	 H           2.8467110405        2.5629496135       -2.9353440255
	 H           1.1081629982       -4.6652528448        0.4415965740
	 H           6.4409701452        0.4634638798       -5.1179777090
	 H           4.7836803267       -6.4245878745       -1.9035535569
	 H          -6.2617689200        3.2659277349        5.8424338618
	             0.0052968492       -0.0056389707       -0.0082443797
	             0.0085504029       -0.0014332763       -0.0040089007
	             0.0021379115       -0.0015398568        0.0014845068
	            -0.0055521805        0.0030404154        0.0069157379
	            -0.0038534522        0.0062788944        0.0042702233
	            -0.0081949639       -0.0010469304        0.0035008046
	            -0.0071490379        0.0120452450        0.0026761802
	            -0.0104123366       -0.0026360923        0.0080144815
	             0.0060367725       -0.0033859402       -0.0041906134
	             0.0006516968        0.0005804268       -0.0007820235
	            -0.0074896240        0.0044013939       -0.0077428588
	             0.0131827207       -0.0072625030       -0.0080080836
	             0.0058857315       -0.0032309293        0.0003864173
	            -0.0012752995        0.0013393932       -0.0056324562
	             0.0028459414       -0.0022057632        0.0049383608
	            -0.0025718409        0.0019500098       -0.0051331228
	             0.0006686446       -0.0008290634        0.0036560604
	             0.0007680598        0.0044830862       -0.0024583925
	            -0.0009478639       -0.0043507828        0.0026280001
	             0.0019588518        0.0008809885       -0.0019986178
	             0.0011249138       -0.0020225113        0.0000104665
	            -0.0016618975        0.0005827666        0.0097182097

	Previous optimization step data not found.  Starting new optimization.

	---Fragment 1 Intrafragment Coordinates---
	 - Coordinate -           - BOHR/RAD -       - ANG/DEG -
	 R(1,3)           =         2.634350	       1.394038
	 R(1,9)           =         2.635962	       1.394891
	 R(1,14)          =         2.054947	       1.087431
	 R(2,4)           =         2.635263	       1.394521
	 R(2,9)           =         2.635830	       1.394821
	 R(2,15)          =         2.055702	       1.087831
	 R(3,11)          =         2.635830	       1.394821
	 R(3,16)          =         2.053941	       1.086899
	 R(4,11)          =         2.636938	       1.395407
	 R(4,17)          =         2.053239	       1.086527
	 R(5,7)           =         2.617855	       1.385309
	 R(5,10)          =         2.626182	       1.389716
	 R(5,18)          =         2.050996	       1.085340
	 R(6,8)           =         2.618775	       1.385796
	 R(6,10)          =         2.628337	       1.390856
	 R(6,19)          =         2.051035	       1.085361
	 R(7,12)          =         2.555248	       1.352179
	 R(7,20)          =         2.050743	       1.085206
	 R(8,12)          =         2.554219	       1.351635
	 R(8,21)          =         2.049071	       1.084322
	 R(9,10)          =         2.733384	       1.446444
	 R(11,13)         =         2.571662	       1.360865
	 R(13,22)         =         1.833410	       0.970199
	 B(1,3,11)        =         2.094553	     120.009056
	 B(1,3,16)        =         2.088505	     119.662516
	 B(1,9,2)         =         2.093692	     119.959722
	 B(1,9,10)        =         2.095161	     120.043881
	 B(2,4,11)        =         2.093699	     119.960108
	 B(2,4,17)        =         2.089577	     119.723926
	 B(2,9,10)        =         2.094332	     119.996376
	 B(3,1,9)         =         2.094940	     120.031219
	 B(3,1,14)        =         2.079469	     119.144799
	 B(3,11,4)        =         2.094306	     119.994870
	 B(3,11,13)       =         2.094549	     120.008801
	 B(4,2,9)         =         2.095181	     120.045019
	 B(4,2,15)        =         2.078675	     119.099297
	 B(4,11,13)       =         2.094331	     119.996326
	 B(5,7,12)        =         2.164741	     124.030549
	 B(5,7,20)        =         2.108539	     120.810396
	 B(5,10,6)        =         2.089951	     119.745346
	 B(5,10,9)        =         2.097342	     120.168847
	 B(6,8,12)        =         2.165410	     124.068864
	 B(6,8,21)        =         2.107294	     120.739046
	 B(6,10,9)        =         2.095893	     120.085803
	 B(7,5,10)        =         2.058417	     117.938605
	 B(7,5,18)        =         2.097941	     120.203150
	 B(7,12,8)        =         2.030714	     116.351350
	 B(8,6,10)        =         2.057136	     117.865229
	 B(8,6,19)        =         2.099973	     120.319615
	 B(9,1,14)        =         2.108776	     120.823969
	 B(9,2,15)        =         2.109330	     120.855683
	 B(10,5,18)       =         2.126826	     121.858157
	 B(10,6,19)       =         2.126076	     121.815155
	 B(11,3,16)       =         2.100127	     120.328425
	 B(11,4,17)       =         2.099910	     120.315955
	 B(11,13,22)      =         1.925489	     110.322421
	 B(12,7,20)       =         2.009903	     115.158939
	 B(12,8,21)       =         2.010481	     115.192089
	 D(1,3,11,4)      =        -0.000325	      -0.018609
	 D(1,3,11,13)     =         3.140978	     179.964785
	 D(1,9,2,4)       =         0.000325	       0.018608
	 D(1,9,2,15)      =        -3.141497	    -179.994534
	 D(1,9,10,5)      =         1.045971	      59.929706
	 D(1,9,10,6)      =        -2.095250	    -120.048954
	 D(2,4,11,3)      =         0.000301	       0.017261
	 D(2,4,11,13)     =        -3.141002	    -179.966135
	 D(2,9,1,3)       =        -0.000348	      -0.019945
	 D(2,9,1,14)      =        -3.141221	    -179.978731
	 D(2,9,10,5)      =        -2.094706	    -120.017791
	 D(2,9,10,6)      =         1.047259	      60.003549
	 D(3,1,9,10)      =        -3.141025	    -179.967461
	 D(3,11,4,17)     =         3.141223	     179.978848
	 D(3,11,13,22)    =         3.140828	     179.956172
	 D(4,2,9,10)      =         3.141002	     179.966149
	 D(4,11,3,16)     =         3.141593	     180.000000
	 D(4,11,13,22)    =        -0.001055	      -0.060434
	 D(5,7,12,8)      =         0.000936	       0.053607
	 D(5,10,6,8)      =         0.000821	       0.047046
	 D(5,10,6,19)     =        -3.140598	    -179.943033
	 D(6,8,12,7)      =        -0.001252	      -0.071717
	 D(6,10,5,7)      =        -0.001104	      -0.063279
	 D(6,10,5,18)     =        -3.140806	    -179.954940
	 D(7,5,10,9)      =         3.140859	     179.957987
	 D(7,12,8,21)     =         3.140175	     179.918770
	 D(8,6,10,9)      =        -3.141142	    -179.974203
	 D(8,12,7,20)     =         3.140372	     179.930066
	 D(9,1,3,11)      =         0.000348	       0.019955
	 D(9,1,3,16)      =        -3.141571	    -179.998735
	 D(9,2,4,11)      =        -0.000301	      -0.017270
	 D(9,2,4,17)      =        -3.141228	    -179.979086
	 D(9,10,5,18)     =         0.001158	       0.066327
	 D(9,10,6,19)     =         0.000623	       0.035718
	 D(10,5,7,12)     =         0.000212	       0.012154
	 D(10,5,7,20)     =        -3.139108	    -179.857650
	 D(10,6,8,12)     =         0.000399	       0.022868
	 D(10,6,8,21)     =        -3.141019	    -179.967116
	 D(10,9,1,14)     =         0.001287	       0.073752
	 D(10,9,2,15)     =        -0.000820	      -0.046992
	 D(11,3,1,14)     =         3.141234	     179.979432
	 D(11,4,2,15)     =         3.141517	     179.995641
	 D(12,7,5,18)     =         3.139946	     179.905681
	 D(12,8,6,19)     =        -3.141364	    -179.986898
	 D(13,11,3,16)    =        -0.000286	      -0.016400
	 D(13,11,4,17)    =        -0.000079	      -0.004548
	 D(14,1,3,16)     =        -0.000685	      -0.039257
	 D(15,2,4,17)     =         0.000590	       0.033826
	 D(18,5,7,20)     =         0.000626	       0.035877
	 D(19,6,8,21)     =         0.000403	       0.023117

	Current energy   :      -553.7206975560

	Generating empirical Hessian (Schlegel '84) for each fragment.
	Adding user-defined constraint: Fragment 1; Coordinate 63:
		Value =     1.045971; Fixed value    =     1.047198
		Force =     0.000613; Force constant =     0.500000
	Removing off-diagonal coupling between coordinate 63 and others.
	Taking RFO optimization step.
	Going to follow RFO solution 1.
	Using RFO vector 1.

	Determining step-restricting scale parameter for RS-RFO.
	Maximum step size allowed    0.10000

	 Iter      |step|        alpha        rfo_root  
	------------------------------------------------
	    0     0.18466       1.00000           1
	    1     0.14547       4.63122           1
	    2     0.12041      13.09749           1
	    3     0.10530      24.17182           1
	    4     0.10047      29.26157           1
	    5     0.10000      29.79820           1
	------------------------------------------------
	Norm of target step-size    0.10000
	Projected energy change by RFO approximation:        -0.0043722036

	Back-transformation to cartesian coordinates...
	Could not converge backtransformation.
	Using first guess instead.

	--- Internal Coordinate Step in ANG or DEG, aJ/ANG or AJ/DEG ---
	 ---------------------------------------------------------------------------
	   Coordinate                Previous        Force       Change         New 
	   ----------                --------       ------       ------       ------
	    1 R(1,3)          =      1.394038    -0.052143    -0.005692     1.388346
	    2 R(1,9)          =      1.394891    -0.020239    -0.002019     1.392872
	    3 R(1,14)         =      1.087431    -0.046446    -0.006244     1.081187
	    4 R(2,4)          =      1.394521    -0.054285    -0.005843     1.388678
	    5 R(2,9)          =      1.394821    -0.032062    -0.003351     1.391470
	    6 R(2,15)         =      1.087831    -0.046470    -0.006228     1.081603
	    7 R(3,11)         =      1.394821    -0.081219    -0.008916     1.385905
	    8 R(3,16)         =      1.086899    -0.044564    -0.005929     1.080970
	    9 R(4,11)         =      1.395407    -0.034800    -0.003822     1.391586
	   10 R(4,17)         =      1.086527    -0.030084    -0.004034     1.082493
	   11 R(5,7)          =      1.385309     0.007978     0.000846     1.386155
	   12 R(5,10)         =      1.389716    -0.008797    -0.000433     1.389283
	   13 R(5,18)         =      1.085340    -0.037696    -0.005040     1.080301
	   14 R(6,8)          =      1.385796     0.005156     0.000520     1.386316
	   15 R(6,10)         =      1.390856    -0.015440    -0.001133     1.389724
	   16 R(6,19)         =      1.085361    -0.038187    -0.005103     1.080258
	   17 R(7,12)         =      1.352179    -0.120605    -0.011825     1.340354
	   18 R(7,20)         =      1.085206    -0.023476    -0.003130     1.082076
	   19 R(8,12)         =      1.351635    -0.117589    -0.011518     1.340116
	   20 R(8,21)         =      1.084322    -0.018360    -0.002447     1.081875
	   21 R(9,10)         =      1.446444     0.136773     0.017110     1.463554
	   22 R(11,13)        =      1.360865    -0.004312     0.000091     1.360956
	   23 R(13,22)        =      0.970199    -0.077081    -0.007472     0.962726
	   24 B(1,3,11)       =    120.009056    -0.000045    -0.144853   119.864203
	   25 B(1,3,16)       =    119.662516     0.000235     0.633993   120.296509
	   26 B(1,9,2)        =    119.959722    -0.000521    -1.032708   118.927014
	   27 B(1,9,10)       =    120.043881     0.000273     0.543692   120.587574
	   28 B(2,4,11)       =    119.960108     0.000099     0.194249   120.154358
	   29 B(2,4,17)       =    119.723926     0.000032     0.116352   119.840278
	   30 B(2,9,10)       =    119.996376     0.000249     0.488784   120.485161
	   31 B(3,1,9)        =    120.031219     0.000377     0.805604   120.836823
	   32 B(3,1,14)       =    119.144799    -0.000049    -0.034717   119.110083
	   33 B(3,11,4)       =    119.994870    -0.000081    -0.205504   119.789367
	   34 B(3,11,13)      =    120.008801    -0.000840    -1.658363   118.350439
	   35 B(4,2,9)        =    120.045019     0.000172     0.383088   120.428107
	   36 B(4,2,15)       =    119.099297     0.000095     0.286424   119.385721
	   37 B(4,11,13)      =    119.996326     0.000921     1.863867   121.860193
	   38 B(5,7,12)       =    124.030549    -0.000011    -0.099515   123.931034
	   39 B(5,7,20)       =    120.810396    -0.000047    -0.088826   120.721570
	   40 B(5,10,6)       =    119.745346    -0.000917    -1.721912   118.023434
	   41 B(5,10,9)       =    120.168847     0.000448     0.839270   121.008117
	   42 B(6,8,12)       =    124.068864    -0.000018    -0.120329   123.948535
	   43 B(6,8,21)       =    120.739046    -0.000036    -0.058469   120.680577
	   44 B(6,10,9)       =    120.085803     0.000470     0.882320   120.968123
	   45 B(7,5,10)       =    117.938605     0.000393     0.914478   118.853083
	   46 B(7,5,18)       =    120.203150    -0.000012     0.027599   120.230749
	   47 B(7,12,8)       =    116.351350     0.000135     0.068830   116.420181
	   48 B(8,6,10)       =    117.865229     0.000417     0.958471   118.823700
	   49 B(8,6,19)       =    120.319615    -0.000035    -0.021295   120.298320
	   50 B(9,1,14)       =    120.823969    -0.000329    -0.771049   120.052920
	   51 B(9,2,15)       =    120.855683    -0.000267    -0.669651   120.186031
	   52 B(10,5,18)      =    121.858157    -0.000381    -0.942237   120.915919
	   53 B(10,6,19)      =    121.815155    -0.000383    -0.937308   120.877847
	   54 B(11,3,16)      =    120.328425    -0.000190    -0.489148   119.839277
	   55 B(11,4,17)      =    120.315955    -0.000130    -0.310614   120.005340
	   56 B(11,13,22)     =    110.322421    -0.000441    -1.156379   109.166042
	   57 B(12,7,20)      =    115.158939     0.000058     0.188087   115.347025
	   58 B(12,8,21)      =    115.192089     0.000054     0.178717   115.370806
	   59 D(1,3,11,4)     =     -0.018609    -0.000002    -0.049640    -0.068248
	   60 D(1,3,11,13)    =    179.964785    -0.000001    -0.020455   179.944330
	   61 D(1,9,2,4)      =      0.018608    -0.000005    -0.146132    -0.127524
	   62 D(1,9,2,15)     =   -179.994534     0.000002     0.004111  -179.990423
	   63 D(1,9,10,5)     =     59.929706    -0.000015    -0.147665    59.782041
	   64 D(1,9,10,6)     =   -120.048954    -0.000021    -0.380619  -120.429573
	   65 D(2,4,11,3)     =      0.017261    -0.000001    -0.017261     0.000000
	   66 D(2,4,11,13)    =   -179.966135    -0.000002    -0.046481  -180.012616
	   67 D(2,9,1,3)      =     -0.019945     0.000002     0.079364     0.059420
	   68 D(2,9,1,14)     =   -179.978731     0.000007     0.191650  -179.787081
	   69 D(2,9,10,5)     =   -120.017791    -0.000022    -0.384649  -120.402440
	   70 D(2,9,10,6)     =     60.003549    -0.000028    -0.617604    59.385945
	   71 D(3,1,9,10)     =   -179.967461    -0.000005    -0.154760  -180.122222
	   72 D(3,11,4,17)    =    179.978848    -0.000002    -0.034806   179.944042
	   73 D(3,11,13,22)   =    179.956172    -0.000000    -0.008237   179.947935
	   74 D(4,2,9,10)     =    179.966149     0.000002     0.087776   180.053925
	   75 D(4,11,3,16)    =    180.000000    -0.000004    -0.104835   179.895165
	   76 D(4,11,13,22)   =     -0.060434     0.000001     0.021222    -0.039212
	   77 D(5,7,12,8)     =      0.053607    -0.000001    -0.024463     0.029144
	   78 D(5,10,6,8)     =      0.047046    -0.000003    -0.106176    -0.059129
	   79 D(5,10,6,19)    =   -179.943033     0.000002     0.016437  -179.926595
	   80 D(6,8,12,7)     =     -0.071717     0.000001     0.041948    -0.029769
	   81 D(6,10,5,7)     =     -0.063279     0.000004     0.121866     0.058586
	   82 D(6,10,5,18)    =   -179.954940     0.000007     0.194687  -179.760254
	   83 D(7,5,10,9)     =    179.957987    -0.000003    -0.104950   179.853037
	   84 D(7,12,8,21)    =    179.918770    -0.000003    -0.052390   179.866381
	   85 D(8,6,10,9)     =   -179.974203     0.000004     0.120536  -179.853666
	   86 D(8,12,7,20)    =    179.930066    -0.000005    -0.121708   179.808358
	   87 D(9,1,3,11)     =      0.019955     0.000001     0.018237     0.038191
	   88 D(9,1,3,16)     =   -179.998735     0.000004     0.073682  -179.925053
	   89 D(9,2,4,11)     =     -0.017270     0.000004     0.115942     0.098672
	   90 D(9,2,4,17)     =   -179.979086     0.000005     0.134040  -179.845046
	   91 D(9,10,5,18)    =      0.066327     0.000001    -0.032130     0.034197
	   92 D(9,10,6,19)    =      0.035718     0.000009     0.243149     0.278868
	   93 D(10,5,7,12)    =      0.012154    -0.000002    -0.057407    -0.045253
	   94 D(10,5,7,20)    =   -179.857650     0.000002     0.044502  -179.813148
	   95 D(10,6,8,12)    =      0.022868     0.000000     0.023586     0.046454
	   96 D(10,6,8,21)    =   -179.967116     0.000005     0.122677  -179.844439
	   97 D(10,9,1,14)    =      0.073752     0.000000    -0.042475     0.031278
	   98 D(10,9,2,15)    =     -0.046992     0.000008     0.238019     0.191026
	   99 D(11,3,1,14)    =    179.979432    -0.000004    -0.093313   179.886120
	  100 D(11,4,2,15)    =    179.995641    -0.000002    -0.032978   179.962663
	  101 D(12,7,5,18)    =    179.905681    -0.000005    -0.130819   179.774862
	  102 D(12,8,6,19)    =   -179.986898    -0.000005    -0.098392  -180.085290
	  103 D(13,11,3,16)   =     -0.016400    -0.000003    -0.075857    -0.092256
	  104 D(13,11,4,17)   =     -0.004548    -0.000003    -0.064443    -0.068991
	  105 D(14,1,3,16)    =     -0.039257    -0.000001    -0.037868    -0.077125
	  106 D(15,2,4,17)    =      0.033826    -0.000001    -0.014881     0.018945
	  107 D(18,5,7,20)    =      0.035877    -0.000001    -0.028910     0.006967
	  108 D(19,6,8,21)    =      0.023117    -0.000000     0.000700     0.023817
	 ---------------------------------------------------------------------------
	Successfully symmetrized geometry.
	 Forces used to impose fixed constraints are not included.
	  Forces zeroed: 63 

  ==> Convergence Check <==

  Measures of convergence in internal coordinates in au.
  Criteria marked as inactive (o), active & met (*), and active & unmet ( ).
  --------------------------------------------------------------------------------------------- ~
   Step     Total Energy     Delta E     MAX Force     RMS Force      MAX Disp      RMS Disp    ~
  --------------------------------------------------------------------------------------------- ~
    Convergence Criteria    1.00e-06 *    3.00e-04 *             o    1.20e-03 *             o  ~
  --------------------------------------------------------------------------------------------- ~
      1    -553.72069756   -5.54e+02      1.66e-02      4.26e-03 o    3.25e-02      9.62e-03 o  ~
  ---------------------------------------------------------------------------------------------

	Writing optimization data to binary file.
	Structure for next step:
	Cartesian Geometry (in Angstrom)
	    C    -1.2645951234   0.7209549826  -0.5640580309
	    C    -0.2747147027   0.0981059319   1.5296024353
	    C    -2.3392664318   1.2911531556   0.1048670140
	    C    -1.3470439754   0.6684880770   2.2028036225
	    C     1.7091571833   0.2784398317  -1.4126530870
	    C     1.2087699622  -1.8294196688  -0.4215880541
	    C     2.7685409252  -0.3365914357  -2.0613964182
	    C     2.2901031402  -2.3524912846  -1.1136766554
	    C    -0.2230927678   0.1203749562   0.1392683606
	    C     0.9058804606  -0.4814198559  -0.5715426428
	    C    -2.3818169382   1.2664183788   1.4898978113
	    N     3.0750024438  -1.6346972938  -1.9289169968
	    O    -3.4490623587   1.8354083780   2.1139471175
	    H    -1.2447603181   0.7454914918  -1.6447847519
	    H     0.5230927586  -0.3627831452   2.0961267318
	    H    -3.1434626004   1.7539060287  -0.4497712733
	    H    -1.3762673973   0.6479904673   3.2847082317
	    H     1.5183610857   1.3314519992  -1.5603429141
	    H     0.6140712222  -2.4632387952   0.2199443061
	    H     3.4152220922   0.2270848163  -2.7209125419
	    H     2.5512663292  -3.3982725102  -1.0210041583
	    H    -3.3442637443   1.7432449829   3.0665044256
			--------------------------
			 OPTKING Finished Execution 
			--------------------------

    Structure for next step:
    Molecular point group: c1
    Full point group: C1

    Geometry (in Angstrom), charge = 0, multiplicity = 1:

    C           -1.264738576486     0.720831026737    -0.563709269655
    C           -0.274858155791     0.097981976015     1.529951196572
    C           -2.339409884946     1.291029199730     0.105215775212
    C           -1.347187428463     0.668364121126     2.203152383727
    C            1.709013730232     0.278315875802    -1.412304325821
    C            1.208626509138    -1.829543624709    -0.421239292918
    C            2.768397472049    -0.336715391564    -2.061047657009
    C            2.289959687100    -2.352615240463    -1.113327894182
    C           -0.223236220859     0.120251000307     0.139617121791
    C            0.905737007496    -0.481543811784    -0.571193881554
    C           -2.381960391299     1.266294422941     1.490246572487
    N            3.074858990701    -1.634821249700    -1.928568235538
    O           -3.449205811837     1.835284422141     2.114295878681
    H           -1.244903771199     0.745367535933    -1.644435990643
    H            0.522949305482    -0.362907101064     2.096475493052
    H           -3.143606053484     1.753782072786    -0.449422512046
    H           -1.376410850441     0.647866511438     3.285056992940
    H            1.518217632604     1.331328043304    -1.559994152848
    H            0.613927769074    -2.463362751111     0.220293067304
    H            3.415078639092     0.226960860437    -2.720563780712
    H            2.551122876117    -3.398396466123    -1.020655397056
    H           -3.344407197397     1.743121027037     3.066853186826

gradient() will perform analytic gradient computation.

*** tstart() called on gpu-2-5.local
*** at Sun Nov 12 13:38:37 2017

    SCF Algorithm Type (re)set to DF.

*** tstart() called on gpu-2-5.local
*** at Sun Nov 12 13:38:37 2017

   => Loading Basis Set <=

    Name: AUG-CC-PVTZ
    Role: ORBITAL
    Keyword: BASIS
    atoms 1-11  entry C          line   221 file /cbio/jclab/home/chayas/anaconda/envs/py35/share/psi4/basis/aug-cc-pvtz.gbs 
    atoms 12    entry N          line   267 file /cbio/jclab/home/chayas/anaconda/envs/py35/share/psi4/basis/aug-cc-pvtz.gbs 
    atoms 13    entry O          line   313 file /cbio/jclab/home/chayas/anaconda/envs/py35/share/psi4/basis/aug-cc-pvtz.gbs 
    atoms 14-22 entry H          line    34 file /cbio/jclab/home/chayas/anaconda/envs/py35/share/psi4/basis/aug-cc-pvtz.gbs 


         ---------------------------------------------------------
                                   SCF
            by Justin Turney, Rob Parrish, and Andy Simmonett
                              RHF Reference
                        8 Threads,   4768 MiB Core
         ---------------------------------------------------------

  ==> Geometry <==

    Molecular point group: c1
    Full point group: C1

    Geometry (in Angstrom), charge = 0, multiplicity = 1:

       Center              X                  Y                   Z               Mass       
    ------------   -----------------  -----------------  -----------------  -----------------
           C         -1.264738576486     0.720831026737    -0.563709269655    12.000000000000
           C         -0.274858155791     0.097981976015     1.529951196572    12.000000000000
           C         -2.339409884946     1.291029199730     0.105215775212    12.000000000000
           C         -1.347187428463     0.668364121126     2.203152383727    12.000000000000
           C          1.709013730232     0.278315875802    -1.412304325821    12.000000000000
           C          1.208626509138    -1.829543624709    -0.421239292918    12.000000000000
           C          2.768397472049    -0.336715391564    -2.061047657009    12.000000000000
           C          2.289959687100    -2.352615240463    -1.113327894182    12.000000000000
           C         -0.223236220859     0.120251000307     0.139617121791    12.000000000000
           C          0.905737007496    -0.481543811784    -0.571193881554    12.000000000000
           C         -2.381960391299     1.266294422941     1.490246572487    12.000000000000
           N          3.074858990701    -1.634821249700    -1.928568235538    14.003074004780
           O         -3.449205811837     1.835284422141     2.114295878681    15.994914619560
           H         -1.244903771199     0.745367535933    -1.644435990643     1.007825032070
           H          0.522949305482    -0.362907101064     2.096475493052     1.007825032070
           H         -3.143606053484     1.753782072786    -0.449422512046     1.007825032070
           H         -1.376410850441     0.647866511438     3.285056992940     1.007825032070
           H          1.518217632604     1.331328043304    -1.559994152848     1.007825032070
           H          0.613927769074    -2.463362751111     0.220293067304     1.007825032070
           H          3.415078639092     0.226960860437    -2.720563780712     1.007825032070
           H          2.551122876117    -3.398396466123    -1.020655397056     1.007825032070
           H         -3.344407197397     1.743121027037     3.066853186826     1.007825032070

  Running in c1 symmetry.

  Rotational constants: A =      0.09841  B =      0.01307  C =      0.01225 [cm^-1]
  Rotational constants: A =   2950.24316  B =    391.92709  C =    367.22270 [MHz]
  Nuclear repulsion =  697.446279348776898

  Charge       = 0
  Multiplicity = 1
  Electrons    = 90
  Nalpha       = 45
  Nbeta        = 45

  ==> Algorithm <==

  SCF Algorithm Type is DF.
  DIIS enabled.
  MOM disabled.
  Fractional occupation disabled.
  Guess Type is READ.
  Energy threshold   = 1.00e-10
  Density threshold  = 1.00e-10
  Integral threshold = 0.00e+00

  ==> Primary Basis <==

  Basis Set: AUG-CC-PVTZ
    Blend: AUG-CC-PVTZ
    Number of shells: 263
    Number of basis function: 805
    Number of Cartesian functions: 940
    Spherical Harmonics?: true
    Max angular momentum: 3

   => Loading Basis Set <=

    Name: (AUG-CC-PVTZ AUX)
    Role: JKFIT
    Keyword: DF_BASIS_SCF
    atoms 1-11  entry C          line   161 file /cbio/jclab/home/chayas/anaconda/envs/py35/share/psi4/basis/aug-cc-pvtz-jkfit.gbs 
    atoms 12    entry N          line   223 file /cbio/jclab/home/chayas/anaconda/envs/py35/share/psi4/basis/aug-cc-pvtz-jkfit.gbs 
    atoms 13    entry O          line   285 file /cbio/jclab/home/chayas/anaconda/envs/py35/share/psi4/basis/aug-cc-pvtz-jkfit.gbs 
    atoms 14-22 entry H          line    69 file /cbio/jclab/home/chayas/anaconda/envs/py35/share/psi4/basis/aug-cc-pvtz-jkfit.gbs 

  Reading orbitals from file 180, no projection.

  ==> Pre-Iterations <==

   -------------------------------------------------------
    Irrep   Nso     Nmo     Nalpha   Nbeta   Ndocc  Nsocc
   -------------------------------------------------------
     A        805     805       0       0       0       0
   -------------------------------------------------------
    Total     805     805      45      45      45       0
   -------------------------------------------------------

  ==> Integral Setup <==

  ==> DFJK: Density-Fitted J/K Matrices <==

    J tasked:                  Yes
    K tasked:                  Yes
    wK tasked:                  No
    OpenMP threads:              8
    Integrals threads:           8
    Memory (MB):              3576
    Algorithm:                Disk
    Integral Cache:           NONE
    Schwarz Cutoff:          1E-12
    Fitting Condition:       1E-12

   => Auxiliary Basis Set <=

  Basis Set: (AUG-CC-PVTZ AUX)
    Blend: AUG-CC-PVTZ-JKFIT
    Number of shells: 516
    Number of basis function: 1766
    Number of Cartesian functions: 2198
    Spherical Harmonics?: true
    Max angular momentum: 4

  Minimum eigenvalue in the overlap matrix is 5.6842768081E-07.
  Using Symmetric Orthogonalization.

  SCF Guess: Orbitals guess was supplied from a previous computation.

  ==> Iterations <==

                           Total Energy        Delta E     RMS |[F,P]|

   @DF-RHF iter   0:  -551.39240269476159   -5.51392e+02   4.82864e-04 
   @DF-RHF iter   1:  -551.29061443640853    1.01788e-01   8.16511e-05 
   @DF-RHF iter   2:  -551.29111793870550   -5.03502e-04   8.58350e-05 DIIS
   @DF-RHF iter   3:  -551.29147917961222   -3.61241e-04   9.92125e-06 DIIS
   @DF-RHF iter   4:  -551.29148798078484   -8.80117e-06   4.52866e-06 DIIS
   @DF-RHF iter   5:  -551.29148988830502   -1.90752e-06   1.42178e-06 DIIS
   @DF-RHF iter   6:  -551.29149018010810   -2.91803e-07   7.48313e-07 DIIS
   @DF-RHF iter   7:  -551.29149029052098   -1.10413e-07   3.21083e-07 DIIS
   @DF-RHF iter   8:  -551.29149032623991   -3.57189e-08   1.02336e-07 DIIS
   @DF-RHF iter   9:  -551.29149033043564   -4.19573e-09   5.11226e-08 DIIS
   @DF-RHF iter  10:  -551.29149033074202   -3.06386e-10   1.35735e-08 DIIS
   @DF-RHF iter  11:  -551.29149033078500   -4.29736e-11   3.91604e-09 DIIS
   @DF-RHF iter  12:  -551.29149033080705   -2.20552e-11   1.71888e-09 DIIS
   @DF-RHF iter  13:  -551.29149033079818    8.86757e-12   8.47188e-10 DIIS
   @DF-RHF iter  14:  -551.29149033079398    4.20641e-12   3.94630e-10 DIIS
   @DF-RHF iter  15:  -551.29149033079170    2.27374e-12   1.74126e-10 DIIS
   @DF-RHF iter  16:  -551.29149033077908    1.26192e-11   7.45546e-11 DIIS

  ==> Post-Iterations <==

    Orbital Energies (a.u.)
    -----------------------

    Doubly Occupied:                                                      

       1A    -20.599745     2A    -15.562224     3A    -11.311520  
       4A    -11.272351     5A    -11.272318     6A    -11.263173  
       7A    -11.251798     8A    -11.249885     9A    -11.244316  
      10A    -11.243221    11A    -11.237305    12A    -11.236254  
      13A    -11.236092    14A     -1.417353    15A     -1.255771  
      16A     -1.173575    17A     -1.104738    18A     -1.036229  
      19A     -1.031025    20A     -1.012034    21A     -0.879878  
      22A     -0.866272    23A     -0.849145    24A     -0.811528  
      25A     -0.746820    26A     -0.725090    27A     -0.681470  
      28A     -0.662190    29A     -0.657693    30A     -0.636635  
      31A     -0.616266    32A     -0.602191    33A     -0.601880  
      34A     -0.596074    35A     -0.580371    36A     -0.540315  
      37A     -0.528732    38A     -0.522526    39A     -0.505618  
      40A     -0.491509    41A     -0.418009    42A     -0.385576  
      43A     -0.355561    44A     -0.347285    45A     -0.317549  

    Virtual:                                                              

      46A      0.022081    47A      0.030961    48A      0.032475  
      49A      0.037270    50A      0.042307    51A      0.047608  
      52A      0.051169    53A      0.054230    54A      0.062053  
      55A      0.082700    56A      0.084020    57A      0.087653  
      58A      0.091801    59A      0.096156    60A      0.098901  
      61A      0.100343    62A      0.104899    63A      0.108650  
      64A      0.109689    65A      0.110762    66A      0.113300  
      67A      0.118102    68A      0.119370    69A      0.124067  
      70A      0.127929    71A      0.128767    72A      0.132786  
      73A      0.133413    74A      0.142133    75A      0.142993  
      76A      0.147504    77A      0.150744    78A      0.151932  
      79A      0.155601    80A      0.156774    81A      0.161946  
      82A      0.168060    83A      0.173972    84A      0.174362  
      85A      0.184563    86A      0.188725    87A      0.201051  
      88A      0.203879    89A      0.209452    90A      0.217983  
      91A      0.222089    92A      0.226835    93A      0.234486  
      94A      0.236811    95A      0.239665    96A      0.242665  
      97A      0.246390    98A      0.248593    99A      0.253891  
     100A      0.255991   101A      0.260582   102A      0.261591  
     103A      0.267651   104A      0.269083   105A      0.274880  
     106A      0.277049   107A      0.282481   108A      0.286033  
     109A      0.288429   110A      0.295396   111A      0.300848  
     112A      0.302618   113A      0.308945   114A      0.311620  
     115A      0.316555   116A      0.319940   117A      0.320777  
     118A      0.324677   119A      0.328998   120A      0.331946  
     121A      0.332342   122A      0.344368   123A      0.350327  
     124A      0.353767   125A      0.359291   126A      0.362227  
     127A      0.368696   128A      0.373080   129A      0.379085  
     130A      0.393270   131A      0.393560   132A      0.402433  
     133A      0.405358   134A      0.408301   135A      0.410949  
     136A      0.415012   137A      0.417958   138A      0.418368  
     139A      0.429202   140A      0.434771   141A      0.438700  
     142A      0.441089   143A      0.444477   144A      0.445442  
     145A      0.449074   146A      0.451777   147A      0.458714  
     148A      0.460880   149A      0.462256   150A      0.473650  
     151A      0.475734   152A      0.478958   153A      0.479823  
     154A      0.483634   155A      0.485713   156A      0.487043  
     157A      0.494064   158A      0.495500   159A      0.498532  
     160A      0.505673   161A      0.510079   162A      0.512213  
     163A      0.514385   164A      0.515663   165A      0.517447  
     166A      0.523345   167A      0.525912   168A      0.533001  
     169A      0.537154   170A      0.541052   171A      0.547492  
     172A      0.548465   173A      0.549099   174A      0.551933  
     175A      0.556279   176A      0.562872   177A      0.566502  
     178A      0.577384   179A      0.583226   180A      0.584294  
     181A      0.591884   182A      0.600455   183A      0.600900  
     184A      0.609667   185A      0.620536   186A      0.623859  
     187A      0.629333   188A      0.631170   189A      0.636747  
     190A      0.641881   191A      0.648905   192A      0.660073  
     193A      0.664952   194A      0.669854   195A      0.680619  
     196A      0.688761   197A      0.693765   198A      0.702861  
     199A      0.703869   200A      0.707726   201A      0.710095  
     202A      0.714191   203A      0.724953   204A      0.725679  
     205A      0.730780   206A      0.737997   207A      0.740638  
     208A      0.742780   209A      0.744717   210A      0.753199  
     211A      0.766727   212A      0.771356   213A      0.777698  
     214A      0.782987   215A      0.793944   216A      0.798917  
     217A      0.802320   218A      0.806094   219A      0.811719  
     220A      0.815876   221A      0.823628   222A      0.833298  
     223A      0.834280   224A      0.839109   225A      0.846383  
     226A      0.853839   227A      0.857604   228A      0.859746  
     229A      0.867880   230A      0.873846   231A      0.880145  
     232A      0.883391   233A      0.886596   234A      0.888268  
     235A      0.894185   236A      0.897100   237A      0.904884  
     238A      0.913974   239A      0.917833   240A      0.922421  
     241A      0.923586   242A      0.931098   243A      0.936592  
     244A      0.938571   245A      0.941040   246A      0.945028  
     247A      0.954592   248A      0.956473   249A      0.958667  
     250A      0.963187   251A      0.964904   252A      0.969089  
     253A      0.976907   254A      0.980684   255A      0.988010  
     256A      0.989474   257A      0.993664   258A      0.996757  
     259A      1.003179   260A      1.009459   261A      1.017413  
     262A      1.018635   263A      1.022752   264A      1.032293  
     265A      1.034244   266A      1.038384   267A      1.043451  
     268A      1.049300   269A      1.053060   270A      1.053789  
     271A      1.058093   272A      1.062271   273A      1.065514  
     274A      1.069085   275A      1.084396   276A      1.087275  
     277A      1.089216   278A      1.093509   279A      1.098334  
     280A      1.101588   281A      1.106103   282A      1.110720  
     283A      1.113000   284A      1.121412   285A      1.126354  
     286A      1.131834   287A      1.133754   288A      1.145409  
     289A      1.147654   290A      1.150586   291A      1.152955  
     292A      1.165092   293A      1.166516   294A      1.172468  
     295A      1.177936   296A      1.179662   297A      1.183161  
     298A      1.186486   299A      1.192089   300A      1.202691  
     301A      1.205277   302A      1.207389   303A      1.216322  
     304A      1.222017   305A      1.224868   306A      1.229398  
     307A      1.237211   308A      1.244556   309A      1.248451  
     310A      1.260679   311A      1.266150   312A      1.269160  
     313A      1.273487   314A      1.276375   315A      1.283077  
     316A      1.290181   317A      1.294840   318A      1.301477  
     319A      1.307924   320A      1.315075   321A      1.318608  
     322A      1.322645   323A      1.330365   324A      1.347905  
     325A      1.350057   326A      1.358769   327A      1.362083  
     328A      1.374794   329A      1.380490   330A      1.386546  
     331A      1.393318   332A      1.399074   333A      1.403270  
     334A      1.412503   335A      1.413570   336A      1.424919  
     337A      1.430726   338A      1.442338   339A      1.455383  
     340A      1.461429   341A      1.463193   342A      1.480847  
     343A      1.486614   344A      1.488336   345A      1.497269  
     346A      1.507892   347A      1.510803   348A      1.520849  
[...]
	 R(8,21)          =         2.043069	       1.081146
	 R(9,10)          =         2.766661	       1.464054
	 R(11,13)         =         2.574525	       1.362380
	 R(13,22)         =         1.817710	       0.961891
	 B(1,3,11)        =         2.091158	     119.814502
	 B(1,3,16)        =         2.115500	     121.209238
	 B(1,9,2)         =         2.068364	     118.508506
	 B(1,9,10)        =         2.107986	     120.778720
	 B(2,4,11)        =         2.094148	     119.985851
	 B(2,4,17)        =         2.095042	     120.037040
	 B(2,9,10)        =         2.105389	     120.629923
	 B(3,1,9)         =         2.112529	     121.038971
	 B(3,1,14)        =         2.087155	     119.585176
	 B(3,11,4)        =         2.091666	     119.843612
	 B(3,11,13)       =         2.046239	     117.240863
	 B(4,2,9)         =         2.108226	     120.792430
	 B(4,2,15)        =         2.088480	     119.661116
	 B(4,11,13)       =         2.145277	     122.915325
	 B(5,7,12)        =         2.157695	     123.626817
	 B(5,7,20)        =         2.097150	     120.157824
	 B(5,10,6)        =         2.043186	     117.065923
	 B(5,10,9)        =         2.119884	     121.460434
	 B(6,8,12)        =         2.158048	     123.647056
	 B(6,8,21)        =         2.096950	     120.146403
	 B(6,10,9)        =         2.118873	     121.402482
	 B(7,5,10)        =         2.084573	     119.437238
	 B(7,5,18)        =         2.100474	     120.348300
	 B(7,12,8)        =         2.038376	     116.790330
	 B(8,6,10)        =         2.084292	     119.421132
	 B(8,6,19)        =         2.100580	     120.354349
	 B(9,1,14)        =         2.083473	     119.374230
	 B(9,2,15)        =         2.086325	     119.537634
	 B(10,5,18)       =         2.098122	     120.213513
	 B(10,6,19)       =         2.098202	     120.218145
	 B(11,3,16)       =         2.076479	     118.973483
	 B(11,4,17)       =         2.093994	     119.976996
	 B(11,13,22)      =         1.902008	     108.977047
	 B(12,7,20)       =         2.028304	     116.213247
	 B(12,8,21)       =         2.028186	     116.206523
	 D(1,3,11,4)      =        -0.005531	      -0.316874
	 D(1,3,11,13)     =         3.138820	     179.841149
	 D(1,9,2,4)       =        -0.026706	      -1.530131
	 D(1,9,2,15)      =         3.133807	     179.553920
	 D(1,9,10,5)      =         1.040132	      59.595167
	 D(1,9,10,6)      =        -2.156578	    -123.562821
	 D(2,4,11,3)      =         0.001214	       0.069544
	 D(2,4,11,13)     =         3.139885	     179.902180
	 D(2,9,1,3)       =         0.022385	       1.282561
	 D(2,9,1,14)      =        -3.111084	    -178.251967
	 D(2,9,10,5)      =        -2.160089	    -123.764004
	 D(2,9,10,6)      =         0.926386	      53.078007
	 D(3,1,9,10)      =         3.106569	     177.993308
	 D(3,11,4,17)     =         3.140672	     179.947266
	 D(3,11,13,22)    =         3.137126	     179.744061
	 D(4,2,9,10)      =        -3.110979	    -178.245953
	 D(4,11,3,16)     =         3.125610	     179.084284
	 D(4,11,13,22)    =        -0.001617	      -0.092661
	 D(5,7,12,8)      =        -0.000974	      -0.055786
	 D(5,10,6,8)      =        -0.020266	      -1.161142
	 D(5,10,6,19)     =         3.137299	     179.753967
	 D(6,8,12,7)      =         0.002329	       0.133418
	 D(6,10,5,7)      =         0.021511	       1.232462
	 D(6,10,5,18)     =        -3.113921	    -178.414520
	 D(7,5,10,9)      =         3.110275	     178.205656
	 D(7,12,8,21)     =        -3.140120	    -179.915642
	 D(8,6,10,9)      =        -3.109063	    -178.136208
	 D(8,12,7,20)     =         3.131382	     179.414995
	 D(9,1,3,11)      =        -0.006493	      -0.372005
	 D(9,1,3,16)      =        -3.137395	    -179.759465
	 D(9,2,4,11)      =         0.015220	       0.872021
	 D(9,2,4,17)      =        -3.124238	    -179.005627
	 D(9,10,5,18)     =        -0.025156	      -1.441326
	 D(9,10,6,19)     =         0.048501	       2.778901
	 D(10,5,7,12)     =        -0.011384	      -0.652247
	 D(10,5,7,20)     =         3.139793	     179.896871
	 D(10,6,8,12)     =         0.008705	       0.498734
	 D(10,6,8,21)     =        -3.132000	    -179.450365
	 D(10,9,1,14)     =        -0.026899	      -1.541220
	 D(10,9,2,15)     =         0.049534	       2.838098
	 D(11,3,1,14)     =         3.126959	     179.161554
	 D(11,4,2,15)     =         3.137869	     179.786642
	 D(12,7,5,18)     =         3.124039	     178.994250
	 D(12,8,6,19)     =         3.134303	     179.582354
	 D(13,11,3,16)    =        -0.013224	      -0.757692
	 D(13,11,4,17)    =        -0.003841	      -0.220097
	 D(14,1,3,16)     =        -0.003943	      -0.225907
	 D(15,2,4,17)     =        -0.001588	      -0.091007
	 D(18,5,7,20)     =        -0.007970	      -0.456632
	 D(19,6,8,21)     =        -0.006401	      -0.366745

	Current energy   :      -553.7239562873

	Energy change for the previous step:
		Projected    :        -0.0000014990
		Actual       :         0.0000045117

	Performing BFGS update.
	Previous computed or guess Hessian on step 1.
	Steps to be used in Hessian update: 5 4
	Adding user-defined constraint: Fragment 1; Coordinate 63:
		Value =     1.040132; Fixed value    =     1.047200
		Force =     0.004418; Force constant =     0.625000
	Removing off-diagonal coupling between coordinate 63 and others.
	Taking RFO optimization step.
	Going to follow RFO solution 1.
	Rejecting RFO root 1 because normalization gives large value.
	Using RFO vector 2.
	Norm of target step-size    0.00287
	Projected energy change by RFO approximation:        -0.0000000479

	Back-transformation to cartesian coordinates...
	Could not converge backtransformation.
	Using first guess instead.

	--- Internal Coordinate Step in ANG or DEG, aJ/ANG or AJ/DEG ---
	 ---------------------------------------------------------------------------
	   Coordinate                Previous        Force       Change         New 
	   ----------                --------       ------       ------       ------
	    1 R(1,3)          =      1.384088    -0.000283     0.000046     1.384133
	    2 R(1,9)          =      1.393710     0.000451    -0.000036     1.393674
	    3 R(1,14)         =      1.080063     0.000064     0.000024     1.080086
	    4 R(2,4)          =      1.386340     0.000148    -0.000005     1.386335
	    5 R(2,9)          =      1.391723    -0.000235     0.000042     1.391765
	    6 R(2,15)         =      1.080017     0.000055     0.000032     1.080049
	    7 R(3,11)         =      1.387914     0.000150     0.000012     1.387926
	    8 R(3,16)         =      1.078840     0.000066     0.000013     1.078853
	    9 R(4,11)         =      1.388458    -0.000117     0.000039     1.388497
	   10 R(4,17)         =      1.081342    -0.000063     0.000031     1.081373
	   11 R(5,7)          =      1.386258    -0.000093     0.000025     1.386283
	   12 R(5,10)         =      1.390753     0.000121    -0.000044     1.390708
	   13 R(5,18)         =      1.079719     0.000053     0.000032     1.079751
	   14 R(6,8)          =      1.386222    -0.000080     0.000031     1.386253
	   15 R(6,10)         =      1.390760    -0.000053    -0.000003     1.390758
	   16 R(6,19)         =      1.079717     0.000021     0.000036     1.079753
	   17 R(7,12)         =      1.335116     0.000070     0.000013     1.335129
	   18 R(7,20)         =      1.081087    -0.000013    -0.000004     1.081082
	   19 R(8,12)         =      1.335071     0.000164    -0.000004     1.335067
	   20 R(8,21)         =      1.081146    -0.000158     0.000020     1.081166
	   21 R(9,10)         =      1.464054    -0.000755     0.000086     1.464140
	   22 R(11,13)        =      1.362380    -0.000094     0.000001     1.362382
	   23 R(13,22)        =      0.961891     0.000017     0.000025     0.961915
	   24 B(1,3,11)       =    119.814502    -0.000000     0.000879   119.815381
	   25 B(1,3,16)       =    121.209238     0.000002    -0.012050   121.197188
	   26 B(1,9,2)        =    118.508506    -0.000000     0.002075   118.510581
	   27 B(1,9,10)       =    120.778720    -0.000000    -0.000187   120.778533
	   28 B(2,4,11)       =    119.985851    -0.000000     0.002150   119.988001
	   29 B(2,4,17)       =    120.037040    -0.000000    -0.001346   120.035694
	   30 B(2,9,10)       =    120.629923     0.000001    -0.001639   120.628284
	   31 B(3,1,9)        =    121.038971    -0.000000    -0.000690   121.038281
	   32 B(3,1,14)       =    119.585176     0.000001    -0.003679   119.581497
	   33 B(3,11,4)       =    119.843612     0.000001    -0.002365   119.841247
	   34 B(3,11,13)      =    117.240863    -0.000000     0.001963   117.242826
	   35 B(4,2,9)        =    120.792430     0.000000    -0.002035   120.790395
	   36 B(4,2,15)       =    119.661116    -0.000000    -0.002741   119.658375
	   37 B(4,11,13)      =    122.915325    -0.000001     0.000411   122.915736
	   38 B(5,7,12)       =    123.626817     0.000001     0.003109   123.629926
	   39 B(5,7,20)       =    120.157824    -0.000000     0.000790   120.158614
	   40 B(5,10,6)       =    117.065923    -0.000001     0.002124   117.068047
	   41 B(5,10,9)       =    121.460434     0.000001    -0.000589   121.459846
	   42 B(6,8,12)       =    123.647056     0.000002    -0.000241   123.646815
	   43 B(6,8,21)       =    120.146403    -0.000001     0.003396   120.149799
	   44 B(6,10,9)       =    121.402482    -0.000000    -0.001687   121.400796
	   45 B(7,5,10)       =    119.437238     0.000001    -0.002706   119.434532
	   46 B(7,5,18)       =    120.348300    -0.000001     0.003248   120.351549
	   47 B(7,12,8)       =    116.790330    -0.000002    -0.002557   116.787772
	   48 B(8,6,10)       =    119.421132    -0.000000    -0.000082   119.421050
	   49 B(8,6,19)       =    120.354349    -0.000001     0.001110   120.355458
	   50 B(9,1,14)       =    119.374230    -0.000001     0.004287   119.378517
	   51 B(9,2,15)       =    119.537634    -0.000000     0.004934   119.542568
	   52 B(10,5,18)      =    120.213513     0.000000    -0.000511   120.213002
	   53 B(10,6,19)      =    120.218145     0.000001    -0.000959   120.217186
	   54 B(11,3,16)      =    118.973483    -0.000002     0.011143   118.984626
	   55 B(11,4,17)      =    119.976996     0.000001    -0.000835   119.976161
	   56 B(11,13,22)     =    108.977047     0.000000    -0.001881   108.975166
	   57 B(12,7,20)      =    116.213247    -0.000001    -0.004450   116.208797
	   58 B(12,8,21)      =    116.206523    -0.000001    -0.003278   116.203245
	   59 D(1,3,11,4)     =     -0.316874    -0.000000    -0.001435    -0.318310
	   60 D(1,3,11,13)    =    179.841149    -0.000000    -0.005225   179.835924
	   61 D(1,9,2,4)      =     -1.530131    -0.000000     0.002046    -1.528085
	   62 D(1,9,2,15)     =    179.553920     0.000000    -0.007702   179.546217
	   63 D(1,9,10,5)     =     59.595167     0.000001    -0.000762    59.594406
	   64 D(1,9,10,6)     =   -123.562821     0.000001    -0.004055  -123.566876
	   65 D(2,4,11,3)     =      0.069544    -0.000000     0.005330     0.074874
	   66 D(2,4,11,13)    =    179.902180     0.000000     0.009346   179.911526
	   67 D(2,9,1,3)      =      1.282561    -0.000000     0.001924     1.284485
	   68 D(2,9,1,14)     =   -178.251967     0.000000     0.013443  -178.238525
	   69 D(2,9,10,5)     =   -123.764004     0.000001     0.004349  -123.759655
	   70 D(2,9,10,6)     =     53.078007     0.000001     0.001056    53.079063
	   71 D(3,1,9,10)     =    177.993308    -0.000000     0.006808   178.000116
	   72 D(3,11,4,17)    =    179.947266     0.000000    -0.010523   179.936743
	   73 D(3,11,13,22)   =    179.744061    -0.000000     0.013265   179.757326
	   74 D(4,2,9,10)     =   -178.245953     0.000000    -0.002879  -178.248832
	   75 D(4,11,3,16)    =    179.084284    -0.000000    -0.004503   179.079782
	   76 D(4,11,13,22)   =     -0.092661    -0.000000     0.009354    -0.083307
	   77 D(5,7,12,8)     =     -0.055786     0.000000     0.011076    -0.044710
	   78 D(5,10,6,8)     =     -1.161142     0.000001     0.003889    -1.157253
	   79 D(5,10,6,19)    =    179.753967     0.000001    -0.001092   179.752875
	   80 D(6,8,12,7)     =      0.133418     0.000000     0.027465     0.160883
	   81 D(6,10,5,7)     =      1.232462     0.000000     0.031395     1.263857
	   82 D(6,10,5,18)    =   -178.414520     0.000000     0.025586  -178.388935
	   83 D(7,5,10,9)     =    178.205656     0.000000     0.028127   178.233783
	   84 D(7,12,8,21)    =   -179.915642    -0.000001    -0.060165  -179.975807
	   85 D(8,6,10,9)     =   -178.136208     0.000000     0.007119  -178.129089
	   86 D(8,12,7,20)    =    179.414995    -0.000001    -0.053886   179.361109
	   87 D(9,1,3,11)     =     -0.372005     0.000000    -0.002210    -0.374214
	   88 D(9,1,3,16)     =   -179.759465     0.000000     0.000783  -179.758682
	   89 D(9,2,4,11)     =      0.872021     0.000000    -0.005711     0.866310
	   90 D(9,2,4,17)     =   -179.005627     0.000000     0.010151  -178.995477
	   91 D(9,10,5,18)    =     -1.441326     0.000000     0.022318    -1.419009
	   92 D(9,10,6,19)    =      2.778901     0.000000     0.002139     2.781039
	   93 D(10,5,7,12)    =     -0.652247    -0.000001    -0.040956    -0.693203
	   94 D(10,5,7,20)    =    179.896871     0.000001     0.026478   179.923349
	   95 D(10,6,8,12)    =      0.498734    -0.000001    -0.035228     0.463507
	   96 D(10,6,8,21)    =   -179.450365     0.000001     0.055701  -179.394664
	   97 D(10,9,1,14)    =     -1.541220    -0.000000     0.018326    -1.522894
	   98 D(10,9,2,15)    =      2.838098     0.000000    -0.012628     2.825470
	   99 D(11,3,1,14)    =    179.161554     0.000000    -0.013715   179.147839
	  100 D(11,4,2,15)    =    179.786642    -0.000000     0.004131   179.790773
	  101 D(12,7,5,18)    =    178.994250    -0.000001    -0.035152   178.959098
	  102 D(12,8,6,19)    =    179.582354    -0.000001    -0.030259   179.552095
	  103 D(13,11,3,16)   =     -0.757692    -0.000000    -0.008293    -0.765985
	  104 D(13,11,4,17)   =     -0.220097     0.000000    -0.006507    -0.226604
	  105 D(14,1,3,16)    =     -0.225907     0.000000    -0.010722    -0.236628
	  106 D(15,2,4,17)    =     -0.091007    -0.000000     0.019993    -0.071013
	  107 D(18,5,7,20)    =     -0.456632     0.000001     0.032282    -0.424350
	  108 D(19,6,8,21)    =     -0.366745     0.000001     0.060669    -0.306076
	 ---------------------------------------------------------------------------
	Successfully symmetrized geometry.
	 Forces used to impose fixed constraints are not included.
	  Forces zeroed: 63 

  ==> Convergence Check <==

  Measures of convergence in internal coordinates in au.
  Criteria marked as inactive (o), active & met (*), and active & unmet ( ).
  ---------------------------------------------------------------------------------------------
   Step     Total Energy     Delta E     MAX Force     RMS Force      MAX Disp      RMS Disp   
  ---------------------------------------------------------------------------------------------
    Convergence Criteria    1.00e-06 *    3.00e-04 *             o    1.20e-03 *             o
  ---------------------------------------------------------------------------------------------
      6    -553.72395629    4.51e-06      9.17e-05 *    2.28e-05 o    1.06e-03 *    2.76e-04 o  ~
  ---------------------------------------------------------------------------------------------


  **** Optimization is complete! (in 6 steps) ****

  ==> Optimization Summary <==

  Measures of convergence in internal coordinates in au.
  --------------------------------------------------------------------------------------------------------------- ~
   Step         Total Energy             Delta E       MAX Force       RMS Force        MAX Disp        RMS Disp  ~
  --------------------------------------------------------------------------------------------------------------- ~
      1    -553.720697555977   -553.720697555977      0.01660121      0.00426533      0.03253061      0.00962359  ~
      2    -553.723402861686     -0.002705305709      0.00399427      0.00120788      0.05153950      0.00961783  ~
      3    -553.723880755929     -0.000477894243      0.00109568      0.00025285      0.04961609      0.00790879  ~
      4    -553.723953609638     -0.000072853708      0.00037998      0.00006930      0.00762080      0.00164831  ~
      5    -553.723960799007     -0.000007189369      0.00013907      0.00002980      0.00359607      0.00083949  ~
      6    -553.723956287342      0.000004511665      0.00009166      0.00002331      0.00105888      0.00027636  ~
  --------------------------------------------------------------------------------------------------------------- ~

	Writing optimization data to binary file.
	Final energy is   -553.7239562873417
	Final (previous) structure:
	Cartesian Geometry (in Angstrom)
	    C    -1.2594539526   0.7668141719  -0.5585466723
	    C    -0.2881262746   0.0776398321   1.5180933728
	    C    -2.3320310416   1.3212468434   0.1181224960
	    C    -1.3564259786   0.6350446421   2.2036402267
	    C     1.7030143856   0.2615025336  -1.4527936923
	    C     1.2243806930  -1.8102158928  -0.4004226772
	    C     2.7657614148  -0.3625140769  -2.0875241037
	    C     2.3078219138  -2.3479892410  -1.0775988228
	    C    -0.2166284743   0.1497794686   0.1300819966
	    C     0.8935483924  -0.4731787110  -0.5930254785
	    C    -2.3805458358   1.2589023222   1.5037865086
	    N     3.0781407529  -1.6489907033  -1.9145123280
	    O    -3.4583008112   1.8242250352   2.1161052961
	    H    -1.2321173492   0.8054235852  -1.6375728157
	    H     0.5073475562  -0.4033273416   2.0679384530
	    H    -3.1425821375   1.7961355149  -0.4123340156
	    H    -1.3916097004   0.5859815574   3.2832951565
	    H     1.5078263769   1.3103050655  -1.6192506859
	    H     0.6327684501  -2.4267734398   0.2596084592
	    H     3.4014386540   0.1970546635  -2.7594955902
	    H     2.5700452286  -3.3882368723  -0.9434347227
	    H    -3.3730381404   1.7102082365   3.0674014799
	Saving final (previous) structure.
			--------------------------
			 OPTKING Finished Execution 
			--------------------------

    Final optimized geometry and variables:
    Molecular point group: c1
    Full point group: C1

    Geometry (in Angstrom), charge = 0, multiplicity = 1:

    C           -1.259453952606     0.766814171898    -0.558546672298
    C           -0.288126274594     0.077639832144     1.518093372774
    C           -2.332031041569     1.321246843397     0.118122495969
    C           -1.356425978609     0.635044642142     2.203640226682
    C            1.703014385649     0.261502533622    -1.452793692288
    C            1.224380692957    -1.810215892828    -0.400422677219
    C            2.765761414804    -0.362514076863    -2.087524103705
    C            2.307821913782    -2.347989240978    -1.077598822813
    C           -0.216628474347     0.149779468648     0.130081996620
    C            0.893548392438    -0.473178711027    -0.593025478542
    C           -2.380545835843     1.258902322158     1.503786508593
    N            3.078140752935    -1.648990703269    -1.914512327974
    O           -3.458300811240     1.824225035225     2.116105296117
    H           -1.232117349158     0.805423585197    -1.637572815661
    H            0.507347556200    -0.403327341602     2.067938453017
    H           -3.142582137541     1.796135514865    -0.412334015640
    H           -1.391609700412     0.585981557368     3.283295156549
    H            1.507826376907     1.310305065477    -1.619250685854
    H            0.632768450059    -2.426773439806     0.259608459233
    H            3.401438653963     0.197054663490    -2.759495590245
    H            2.570045228637    -3.388236872323    -0.943434722671
    H           -3.373038140352     1.710208236550     3.067401479891

	Cleaning optimization helper files.

*** Psi4 exiting successfully. Buy a developer a beer!
