
    -----------------------------------------------------------------------
          Psi4: An Open-Source Ab Initio Electronic Structure Package
                               Psi4 1.1 release

                         Git: Rev {HEAD} add49b9 


    R. M. Parrish, L. A. Burns, D. G. A. Smith, A. C. Simmonett,
    A. E. DePrince III, E. G. Hohenstein, U. Bozkaya, A. Yu. Sokolov,
    R. Di Remigio, R. M. Richard, J. F. Gonthier, A. M. James,
    H. R. McAlexander, A. Kumar, M. Saitow, X. Wang, B. P. Pritchard,
    P. Verma, H. F. Schaefer III, K. Patkowski, R. A. King, E. F. Valeev,
    F. A. Evangelista, J. M. Turney, T. D. Crawford, and C. D. Sherrill,
    J. Chem. Theory Comput. in press (2017).
    (doi: 10.1021/acs.jctc.7b00174)

    -----------------------------------------------------------------------


    Psi4 started on: Monday, 13 November 2017 12:33PM

    Process ID:  15462
    PSIDATADIR: /cbio/jclab/home/chayas/anaconda/envs/py35/share/psi4
    Memory:     500.0 MiB
    Threads:    8
    
  ==> Input File <==

--------------------------------------------------------------------------

memory 5 Gb

molecule phepyrFOH_anion {
  symmetry C1
  -1 1 
  C      1.885   -1.036   -0.112
  C      0.807   -0.463   0.561
  C      4.717   -3.304   0.458
  C      4.435   -1.718   -1.327
  C      1.800   -1.079   2.676
  C      5.779   -3.836   -0.255
  C      5.509   -2.321   -1.961
  C      2.921   -1.631   0.608
  C      4.038   -2.224   -0.095
  C      0.764   -0.484   1.955
  C      2.878   -1.652   2.002
  N      6.194   -3.371   -1.455
  O      -0.227   0.043   2.574
  F      3.866   -2.220   2.709
  H      1.904   -1.013   -1.200
  H      0.011   -0.007   -0.025
  H      4.436   -3.727   1.417
  H      3.929   -0.876   -1.790
  H      1.791   -1.109   3.764
  H      6.340   -4.680   0.132
  H      5.859   -1.963   -2.923
  units Angstrom
}

dih_string = "1 8 9 3 210"
set optking { fixed_dihedral = $dih_string
              dynamic_level = 1
              geom_maxiter = 250
              print_trajectory_xyz_file = True }

optimize('MP2/aug-cc-PVTZ')
--------------------------------------------------------------------------

  Memory set to   4.657 GiB by Python driver.
gradient() will perform analytic gradient computation.

*** tstart() called on gpu-1-12.local
*** at Mon Nov 13 12:33:23 2017

    SCF Algorithm Type (re)set to DF.

*** tstart() called on gpu-1-12.local
*** at Mon Nov 13 12:33:23 2017

   => Loading Basis Set <=

    Name: AUG-CC-PVTZ
    Role: ORBITAL
    Keyword: BASIS
    atoms 1-11  entry C          line   221 file /cbio/jclab/home/chayas/anaconda/envs/py35/share/psi4/basis/aug-cc-pvtz.gbs 
    atoms 12    entry N          line   267 file /cbio/jclab/home/chayas/anaconda/envs/py35/share/psi4/basis/aug-cc-pvtz.gbs 
    atoms 13    entry O          line   313 file /cbio/jclab/home/chayas/anaconda/envs/py35/share/psi4/basis/aug-cc-pvtz.gbs 
    atoms 14    entry F          line   359 file /cbio/jclab/home/chayas/anaconda/envs/py35/share/psi4/basis/aug-cc-pvtz.gbs 
    atoms 15-21 entry H          line    34 file /cbio/jclab/home/chayas/anaconda/envs/py35/share/psi4/basis/aug-cc-pvtz.gbs 


         ---------------------------------------------------------
                                   SCF
            by Justin Turney, Rob Parrish, and Andy Simmonett
                              RHF Reference
                        8 Threads,   4768 MiB Core
         ---------------------------------------------------------

  ==> Geometry <==

    Molecular point group: c1
    Full point group: C1

    Geometry (in Angstrom), charge = -1, multiplicity = 1:

       Center              X                  Y                   Z               Mass       
    ------------   -----------------  -----------------  -----------------  -----------------
           C         -1.345014174408     0.767491578286    -0.780718111140    12.000000000000
           C         -2.423014174408     1.340491578286    -0.107718111140    12.000000000000
           C          1.486985825592    -1.500508421714    -0.210718111140    12.000000000000
           C          1.204985825592     0.085491578286    -1.995718111140    12.000000000000
           C         -1.430014174408     0.724491578286     2.007281888860    12.000000000000
           C          2.548985825592    -2.032508421714    -0.923718111140    12.000000000000
           C          2.278985825592    -0.517508421714    -2.629718111140    12.000000000000
           C         -0.309014174408     0.172491578286    -0.060718111140    12.000000000000
           C          0.807985825592    -0.420508421714    -0.763718111140    12.000000000000
           C         -2.466014174408     1.319491578286     1.286281888860    12.000000000000
           C         -0.352014174408     0.151491578286     1.333281888860    12.000000000000
           N          2.963985825592    -1.567508421714    -2.123718111140    14.003074004780
           O         -3.457014174408     1.846491578286     1.905281888860    15.994914619560
           F          0.635985825592    -0.416508421714     2.040281888860    18.998403224000
           H         -1.326014174408     0.790491578286    -1.868718111140     1.007825032070
           H         -3.219014174408     1.796491578286    -0.693718111140     1.007825032070
           H          1.205985825592    -1.923508421714     0.748281888860     1.007825032070
           H          0.698985825592     0.927491578286    -2.458718111140     1.007825032070
           H         -1.439014174408     0.694491578286     3.095281888860     1.007825032070
           H          3.109985825592    -2.876508421714    -0.536718111140     1.007825032070
           H          2.628985825592    -0.159508421714    -3.591718111140     1.007825032070

  Running in c1 symmetry.

  Rotational constants: A =      0.06333  B =      0.01386  C =      0.01161 [cm^-1]
  Rotational constants: A =   1898.73296  B =    415.65691  C =    348.17761 [MHz]
  Nuclear repulsion =  804.191374335673800

  Charge       = -1
  Multiplicity = 1
  Electrons    = 98
  Nalpha       = 49
  Nbeta        = 49

  ==> Algorithm <==

  SCF Algorithm Type is DF.
  DIIS enabled.
  MOM disabled.
  Fractional occupation disabled.
  Guess Type is SAD.
  Energy threshold   = 1.00e-10
  Density threshold  = 1.00e-10
  Integral threshold = 0.00e+00

  ==> Primary Basis <==

  Basis Set: AUG-CC-PVTZ
    Blend: AUG-CC-PVTZ
    Number of shells: 259
    Number of basis function: 805
    Number of Cartesian functions: 945
    Spherical Harmonics?: true
    Max angular momentum: 3

   => Loading Basis Set <=

    Name: (AUG-CC-PVTZ AUX)
    Role: JKFIT
    Keyword: DF_BASIS_SCF
    atoms 1-11  entry C          line   161 file /cbio/jclab/home/chayas/anaconda/envs/py35/share/psi4/basis/aug-cc-pvtz-jkfit.gbs 
    atoms 12    entry N          line   223 file /cbio/jclab/home/chayas/anaconda/envs/py35/share/psi4/basis/aug-cc-pvtz-jkfit.gbs 
    atoms 13    entry O          line   285 file /cbio/jclab/home/chayas/anaconda/envs/py35/share/psi4/basis/aug-cc-pvtz-jkfit.gbs 
    atoms 14    entry F          line   347 file /cbio/jclab/home/chayas/anaconda/envs/py35/share/psi4/basis/aug-cc-pvtz-jkfit.gbs 
    atoms 15-21 entry H          line    69 file /cbio/jclab/home/chayas/anaconda/envs/py35/share/psi4/basis/aug-cc-pvtz-jkfit.gbs 

  ==> Pre-Iterations <==

   -------------------------------------------------------
    Irrep   Nso     Nmo     Nalpha   Nbeta   Ndocc  Nsocc
   -------------------------------------------------------
     A        805     805       0       0       0       0
   -------------------------------------------------------
    Total     805     805      49      49      49       0
   -------------------------------------------------------

  ==> Integral Setup <==

  ==> DFJK: Density-Fitted J/K Matrices <==

    J tasked:                  Yes
    K tasked:                  Yes
    wK tasked:                  No
    OpenMP threads:              8
    Integrals threads:           8
    Memory (MB):              3576
    Algorithm:                Disk
    Integral Cache:           NONE
    Schwarz Cutoff:          1E-12
    Fitting Condition:       1E-12

   => Auxiliary Basis Set <=

  Basis Set: (AUG-CC-PVTZ AUX)
    Blend: AUG-CC-PVTZ-JKFIT
    Number of shells: 518
    Number of basis function: 1778
    Number of Cartesian functions: 2219
    Spherical Harmonics?: true
    Max angular momentum: 4

  Minimum eigenvalue in the overlap matrix is 7.3939399405E-07.
  Using Symmetric Orthogonalization.

  SCF Guess: Superposition of Atomic Densities via on-the-fly atomic UHF.

  ==> Iterations <==

                           Total Energy        Delta E     RMS |[F,P]|

   @DF-RHF iter   0:  -661.25543510633076   -6.61255e+02   2.12718e-02 
   @DF-RHF iter   1:  -649.12550090033778    1.21299e+01   2.66739e-03 
   @DF-RHF iter   2:  -649.45224012250981   -3.26739e-01   1.79603e-03 DIIS
   @DF-RHF iter   3:  -649.58081823675082   -1.28578e-01   5.25343e-04 DIIS
   @DF-RHF iter   4:  -649.60468813602927   -2.38699e-02   1.67249e-04 DIIS
   @DF-RHF iter   5:  -649.60816788957732   -3.47975e-03   6.46642e-05 DIIS
   @DF-RHF iter   6:  -649.60868244861547   -5.14559e-04   2.77991e-05 DIIS
   @DF-RHF iter   7:  -649.60875758258953   -7.51340e-05   8.83397e-06 DIIS
   @DF-RHF iter   8:  -649.60876547012958   -7.88754e-06   2.77014e-06 DIIS
   @DF-RHF iter   9:  -649.60876650221769   -1.03209e-06   1.21968e-06 DIIS
   @DF-RHF iter  10:  -649.60876673159055   -2.29373e-07   4.91323e-07 DIIS
   @DF-RHF iter  11:  -649.60876680686545   -7.52749e-08   1.98227e-07 DIIS
   @DF-RHF iter  12:  -649.60876681799346   -1.11280e-08   7.81796e-08 DIIS
   @DF-RHF iter  13:  -649.60876681952993   -1.53648e-09   3.18961e-08 DIIS
   @DF-RHF iter  14:  -649.60876681980949   -2.79556e-10   1.19745e-08 DIIS
   @DF-RHF iter  15:  -649.60876681985451   -4.50200e-11   6.13535e-09 DIIS
   @DF-RHF iter  16:  -649.60876681984359    1.09139e-11   2.74086e-09 DIIS
   @DF-RHF iter  17:  -649.60876681984291    6.82121e-13   8.71837e-10 DIIS
   @DF-RHF iter  18:  -649.60876681986633   -2.34195e-11   4.70357e-10 DIIS
   @DF-RHF iter  19:  -649.60876681986247    3.86535e-12   1.69384e-10 DIIS
   @DF-RHF iter  20:  -649.60876681986406   -1.59162e-12   1.04351e-10 DIIS
   @DF-RHF iter  21:  -649.60876681986599   -1.93268e-12   3.74621e-11 DIIS

  ==> Post-Iterations <==

    Orbital Energies (a.u.)
    -----------------------

    Doubly Occupied:                                                      

       1A    -26.192119     2A    -20.306905     3A    -15.449149  
       4A    -11.195197     5A    -11.166733     6A    -11.164502  
       7A    -11.145912     8A    -11.128040     9A    -11.120170  
      10A    -11.114995    11A    -11.112014    12A    -11.086135  
      13A    -11.068566    14A    -11.068140    15A     -1.514090  
      16A     -1.138383    17A     -1.137346    18A     -1.026172  
      19A     -0.964939    20A     -0.922529    21A     -0.877513  
      22A     -0.849697    23A     -0.751123    24A     -0.737753  
      25A     -0.704544    26A     -0.678936    27A     -0.607487  
      28A     -0.591796    29A     -0.581625    30A     -0.568009  
      31A     -0.546281    32A     -0.529171    33A     -0.501125  
      34A     -0.486782    35A     -0.472208    36A     -0.465396  
      37A     -0.432724    38A     -0.416747    39A     -0.409179  
      40A     -0.387018    41A     -0.378241    42A     -0.359507  
      43A     -0.316379    44A     -0.306752    45A     -0.249051  
      46A     -0.240727    47A     -0.225369    48A     -0.204041  
      49A     -0.116649  

    Virtual:                                                              

      50A      0.098839    51A      0.101307    52A      0.115165  
      53A      0.120348    54A      0.125670    55A      0.128527  
      56A      0.133545    57A      0.156490    58A      0.166454  
      59A      0.174655    60A      0.178008    61A      0.183910  
      62A      0.186990    63A      0.188337    64A      0.191989  
      65A      0.198037    66A      0.198766    67A      0.206420  
      68A      0.209844    69A      0.213316    70A      0.214688  
      71A      0.217169    72A      0.221461    73A      0.227461  
      74A      0.230548    75A      0.232928    76A      0.237264  
      77A      0.239179    78A      0.242880    79A      0.247735  
      80A      0.251389    81A      0.259267    82A      0.263353  
      83A      0.266749    84A      0.269088    85A      0.275427  
      86A      0.279391    87A      0.287578    88A      0.294000  
      89A      0.299845    90A      0.314845    91A      0.317213  
      92A      0.318467    93A      0.321936    94A      0.322630  
      95A      0.324553    96A      0.326084    97A      0.332820  
      98A      0.335218    99A      0.337307   100A      0.344160  
     101A      0.347614   102A      0.353583   103A      0.363437  
     104A      0.367316   105A      0.368417   106A      0.377805  
     107A      0.380540   108A      0.384256   109A      0.387508  
     110A      0.388975   111A      0.394319   112A      0.403302  
     113A      0.409664   114A      0.413114   115A      0.416265  
     116A      0.420497   117A      0.422485   118A      0.425520  
     119A      0.430434   120A      0.439391   121A      0.443816  
     122A      0.447074   123A      0.452760   124A      0.456430  
     125A      0.463918   126A      0.472279   127A      0.476530  
     128A      0.479255   129A      0.481195   130A      0.486352  
     131A      0.496523   132A      0.503454   133A      0.510382  
     134A      0.516734   135A      0.517978   136A      0.523513  
     137A      0.533964   138A      0.541197   139A      0.545208  
     140A      0.546270   141A      0.550062   142A      0.555040  
     143A      0.557507   144A      0.561974   145A      0.564146  
     146A      0.571675   147A      0.573685   148A      0.576917  
     149A      0.581843   150A      0.583823   151A      0.584895  
     152A      0.587912   153A      0.597399   154A      0.600043  
     155A      0.601616   156A      0.603212   157A      0.607832  
     158A      0.611719   159A      0.620593   160A      0.621690  
     161A      0.625383   162A      0.628792   163A      0.632108  
     164A      0.633527   165A      0.640021   166A      0.641906  
     167A      0.645595   168A      0.650107   169A      0.654178  
     170A      0.658353   171A      0.662083   172A      0.667758  
     173A      0.678409   174A      0.681067   175A      0.686505  
     176A      0.694126   177A      0.699440   178A      0.701735  
     179A      0.704187   180A      0.711538   181A      0.716494  
     182A      0.724320   183A      0.729691   184A      0.736032  
     185A      0.742606   186A      0.743873   187A      0.751286  
     188A      0.760744   189A      0.767616   190A      0.770443  
     191A      0.791393   192A      0.795350   193A      0.798837  
     194A      0.807245   195A      0.808661   196A      0.813028  
     197A      0.814793   198A      0.821237   199A      0.828365  
     200A      0.837746   201A      0.845314   202A      0.849489  
     203A      0.854747   204A      0.855245   205A      0.859398  
     206A      0.860392   207A      0.872010   208A      0.872338  
     209A      0.878741   210A      0.887319   211A      0.890526  
     212A      0.898879   213A      0.901849   214A      0.917594  
     215A      0.925918   216A      0.933483   217A      0.936782  
     218A      0.942574   219A      0.950525   220A      0.957445  
     221A      0.968752   222A      0.975762   223A      0.982098  
     224A      0.986248   225A      0.987761   226A      0.990972  
     227A      0.999432   228A      1.002498   229A      1.008771  
     230A      1.011634   231A      1.014816   232A      1.017540  
     233A      1.020134   234A      1.025010   235A      1.037581  
     236A      1.041169   237A      1.048888   238A      1.049538  
     239A      1.054458   240A      1.061025   241A      1.064198  
     242A      1.067608   243A      1.075622   244A      1.080647  
     245A      1.083733   246A      1.087716   247A      1.091341  
     248A      1.095388   249A      1.096885   250A      1.107301  
     251A      1.109717   252A      1.116610   253A      1.120000  
     254A      1.123746   255A      1.128415   256A      1.133562  
     257A      1.136605   258A      1.140987   259A      1.144469  
     260A      1.146422   261A      1.149559   262A      1.156095  
     263A      1.161444   264A      1.167445   265A      1.171933  
     266A      1.176969   267A      1.177791   268A      1.190123  
     269A      1.191858   270A      1.194262   271A      1.202057  
     272A      1.207107   273A      1.207648   274A      1.211021  
     275A      1.215238   276A      1.223853   277A      1.227697  
     278A      1.235444   279A      1.239409   280A      1.251506  
     281A      1.257377   282A      1.263429   283A      1.270644  
     284A      1.275938   285A      1.277474   286A      1.282630  
     287A      1.288248   288A      1.296440   289A      1.298073  
     290A      1.299629   291A      1.302586   292A      1.309922  
     293A      1.314885   294A      1.320725   295A      1.323197  
     296A      1.329227   297A      1.332615   298A      1.334919  
     299A      1.339896   300A      1.346519   301A      1.351992  
     302A      1.355515   303A      1.366885   304A      1.378142  
     305A      1.381380   306A      1.387170   307A      1.391841  
     308A      1.392337   309A      1.404215   310A      1.407486  
     311A      1.409944   312A      1.419255   313A      1.430505  
     314A      1.432972   315A      1.443700   316A      1.453702  
     317A      1.460345   318A      1.468262   319A      1.475125  
     320A      1.479557   321A      1.490250   322A      1.494624  
     323A      1.503483   324A      1.509837   325A      1.521079  
     326A      1.525354   327A      1.528032   328A      1.549590  
     329A      1.552692   330A      1.556411   331A      1.568922  
     332A      1.573605   333A      1.586301   334A      1.587625  
     335A      1.605857   336A      1.608879   337A      1.614543  
     338A      1.622967   339A      1.629578   340A      1.637666  
     341A      1.650534   342A      1.653677   343A      1.663142  
     344A      1.669605   345A      1.678539   346A      1.698607  
     347A      1.706348   348A      1.710451   349A      1.715140  
     350A      1.720998   351A      1.730982   352A      1.747511  
     353A      1.750599   354A      1.752288   355A      1.766477  
     356A      1.767677   357A      1.779977   358A      1.792845  
     359A      1.795237   360A      1.801312   361A      1.816199  
     362A      1.821909   363A      1.829871   364A      1.834777  
     365A      1.838475   366A      1.842103   367A      1.843994  
     368A      1.852047   369A      1.863613   370A      1.867031  
     371A      1.876741   372A      1.897925   373A      1.909104  
     374A      1.910265   375A      1.914086   376A      1.927346  
     377A      1.933336   378A      1.936084   379A      1.946077  
     380A      1.957068   381A      1.958498   382A      1.972571  
     383A      1.978724   384A      1.989389   385A      2.003687  
     386A      2.010951   387A      2.015366   388A      2.025281  
     389A      2.036110   390A      2.045043   391A      2.058253  
     392A      2.065225   393A      2.072853   394A      2.077127  
     395A      2.081871   396A      2.090978   397A      2.098137  
     398A      2.101989   399A      2.107962   400A      2.121707  
     401A      2.124731   402A      2.132218   403A      2.137794  
     404A      2.142659   405A      2.150497   406A      2.156731  
     407A      2.162252   408A      2.174284   409A      2.182596  
     410A      2.190026   411A      2.192804   412A      2.199739  
     413A      2.208024   414A      2.215094   415A      2.220394  
     416A      2.227882   417A      2.233583   418A      2.243523  
     419A      2.254282   420A      2.265149   421A      2.275652  
     422A      2.287405   423A      2.292195   424A      2.297367  
     425A      2.309089   426A      2.309692   427A      2.324784  
     428A      2.332311   429A      2.340863   430A      2.347120  
     431A      2.356912   432A      2.363815   433A      2.374330  
     434A      2.375740   435A      2.398017   436A      2.408313  
     437A      2.417217   438A      2.428610   439A      2.437122  
     440A      2.452926   441A      2.458233   442A      2.467434  
     443A      2.481962   444A      2.486028   445A      2.488327  
     446A      2.498299   447A      2.504476   448A      2.518856  
     449A      2.528744   450A      2.532443   451A      2.550590  
     452A      2.563902   453A      2.585932   454A      2.589001  
     455A      2.594388   456A      2.602302   457A      2.624401  
     458A      2.633978   459A      2.637945   460A      2.651838  
     461A      2.673411   462A      2.681623   463A      2.688714  
     464A      2.698901   465A      2.706343   466A      2.711991  
     467A      2.717721   468A      2.732027   469A      2.758817  
     470A      2.772295   471A      2.775832   472A      2.808567  
     473A      2.815747   474A      2.824459   475A      2.854192  
     476A      2.865320   477A      2.885113   478A      2.890040  
     479A      2.910214   480A      2.915894   481A      2.930779  
     482A      2.956549   483A      2.959414   484A      2.980868  
     485A      2.999695   486A      3.021824   487A      3.031109  
     488A      3.044839   489A      3.085031   490A      3.100073  
     491A      3.103486   492A      3.125532   493A      3.147124  
     494A      3.158220   495A      3.172662   496A      3.193508  
     497A      3.212633   498A      3.220140   499A      3.243237  
     500A      3.257251   501A      3.274089   502A      3.296357  
     503A      3.309020   504A      3.318260   505A      3.324526  
     506A      3.333351   507A      3.352101   508A      3.365149  
     509A      3.375454   510A      3.397246   511A      3.410964  
     512A      3.430522   513A      3.443064   514A      3.451545  
     515A      3.457761   516A      3.467139   517A      3.473868  
     518A      3.489484   519A      3.491663   520A      3.512641  
     521A      3.518484   522A      3.524364   523A      3.531735  
     524A      3.543296   525A      3.553955   526A      3.563777  
     527A      3.571149   528A      3.584020   529A      3.593571  
     530A      3.609908   531A      3.618303   532A      3.620553  
     533A      3.634536   534A      3.636352   535A      3.642043  
     536A      3.651229   537A      3.664813   538A      3.673897  
     539A      3.681459   540A      3.693267   541A      3.698646  
     542A      3.699207   543A      3.708804   544A      3.715559  
     545A      3.734115   546A      3.742494   547A      3.747229  
     548A      3.757456   549A      3.768252   550A      3.783769  
     551A      3.788949   552A      3.792962   553A      3.803029  
     554A      3.809643   555A      3.817323   556A      3.822713  
     557A      3.832987   558A      3.838689   559A      3.860549  
     560A      3.872586   561A      3.880680   562A      3.892529  
     563A      3.913047   564A      3.915768   565A      3.919150  
     566A      3.923111   567A      3.934249   568A      3.943046  
     569A      3.947266   570A      3.951040   571A      3.952864  
     572A      3.972708   573A      3.989826   574A      3.990746  
     575A      4.002570   576A      4.012235   577A      4.020580  
     578A      4.035309   579A      4.038044   580A      4.050291  
     581A      4.054542   582A      4.063320   583A      4.069065  
     584A      4.071221   585A      4.088367   586A      4.096330  
     587A      4.103194   588A      4.111058   589A      4.124110  
     590A      4.126469   591A      4.137972   592A      4.142262  
     593A      4.150175   594A      4.153512   595A      4.163649  
     596A      4.182549   597A      4.186826   598A      4.194540  
     599A      4.199094   600A      4.216571   601A      4.225761  
     602A      4.233369   603A      4.245884   604A      4.252904  
     605A      4.262777   606A      4.265128   607A      4.281583  
     608A      4.309360   609A      4.310491   610A      4.333492  
     611A      4.337122   612A      4.346008   613A      4.355193  
     614A      4.357434   615A      4.360995   616A      4.376028  
     617A      4.379759   618A      4.403611   619A      4.415613  
     620A      4.421196   621A      4.428717   622A      4.438820  
     623A      4.443539   624A      4.457580   625A      4.460675  
     626A      4.468191   627A      4.481496   628A      4.486859  
     629A      4.498975   630A      4.504729   631A      4.509536  
     632A      4.519690   633A      4.529435   634A      4.538718  
     635A      4.544194   636A      4.551573   637A      4.557724  
     638A      4.572386   639A      4.587132   640A      4.593983  
     641A      4.610666   642A      4.625661   643A      4.632172  
     644A      4.645228   645A      4.647411   646A      4.664714  
     647A      4.676195   648A      4.683016   649A      4.720358  
     650A      4.724628   651A      4.729347   652A      4.751199  
     653A      4.760748   654A      4.775134   655A      4.778051  
     656A      4.787777   657A      4.805316   658A      4.826854  
     659A      4.835997   660A      4.849847   661A      4.871133  
     662A      4.879151   663A      4.902377   664A      4.922696  
     665A      4.927081   666A      4.932156   667A      4.940975  
     668A      4.979747   669A      4.989667   670A      4.999024  
     671A      5.005785   672A      5.026188   673A      5.035069  
     674A      5.057042   675A      5.069334   676A      5.086334  
     677A      5.092878   678A      5.104293   679A      5.122523  
     680A      5.124680   681A      5.137917   682A      5.156497  
     683A      5.168526   684A      5.178653   685A      5.189994  
     686A      5.199350   687A      5.218136   688A      5.234859  
     689A      5.247945   690A      5.264579   691A      5.270121  
     692A      5.279199   693A      5.286279   694A      5.293739  
     695A      5.311954   696A      5.314916   697A      5.331575  
     698A      5.343371   699A      5.356420   700A      5.371605  
     701A      5.378040   702A      5.392570   703A      5.412668  
     704A      5.437462   705A      5.450979   706A      5.468664  
     707A      5.473670   708A      5.500504   709A      5.521647  
     710A      5.525307   711A      5.552821   712A      5.558811  
     713A      5.577242   714A      5.600363   715A      5.620699  
     716A      5.651752   717A      5.663796   718A      5.681197  
     719A      5.710323   720A      5.721489   721A      5.743515  
     722A      5.780893   723A      5.811600   724A      5.816893  
     725A      5.857636   726A      5.867701   727A      5.902255  
     728A      5.918127   729A      5.940337   730A      5.949466  
     731A      5.964225   732A      5.983784   733A      5.993885  
     734A      6.020689   735A      6.051255   736A      6.100810  
     737A      6.126483   738A      6.196536   739A      6.198125  
     740A      6.266126   741A      6.317012   742A      6.335376  
     743A      6.361511   744A      6.382733   745A      6.423455  
     746A      6.443405   747A      6.538701   748A      6.555700  
     749A      6.592053   750A      6.610190   751A      6.627031  
     752A      6.677473   753A      6.731862   754A      6.803084  
     755A      6.822635   756A      6.833520   757A      6.849750  
     758A      6.891446   759A      6.897730   760A      6.981608  
     761A      6.996473   762A      7.022181   763A      7.058064  
     764A      7.089315   765A      7.177212   766A      7.181951  
     767A      7.203907   768A      7.295745   769A      7.332940  
     770A      7.350579   771A      7.544651   772A      7.599589  
     773A      7.605630   774A      7.638096   775A      7.917121  
     776A      7.929788   777A      8.015591   778A      8.136466  
     779A      8.210993   780A      9.235556   781A      9.258123  
     782A      9.409224   783A      9.427716   784A      9.558160  
     785A      9.660787   786A      9.694807   787A      9.754040  
     788A      9.797690   789A      9.866133   790A     10.181094  
     791A     10.244203   792A     15.682769   793A     16.015007  
     794A     16.445729   795A     16.830534   796A     16.926767  
     797A     17.015531   798A     18.593534   799A     18.986482  
     800A     19.448759   801A     19.984072   802A     20.296864  
     803A     20.441275   804A     20.774860   805A     21.771062  

    Final Occupation by Irrep:
              A 
    DOCC [    49 ]

  Energy converged.

  @DF-RHF Final Energy:  -649.60876681986599

   => Energetics <=

    Nuclear Repulsion Energy =            804.1913743356737996
    One-Electron Energy =               -2497.5725478387839757
    Two-Electron Energy =                1043.7724066832442986
    DFT Exchange-Correlation Energy =       0.0000000000000000
    Empirical Dispersion Energy =           0.0000000000000000
    PCM Polarization Energy =               0.0000000000000000
    EFP Energy =                            0.0000000000000000
    Total Energy =                       -649.6087668198658776



Properties will be evaluated at   0.000000,   0.000000,   0.000000 Bohr

Properties computed using the SCF density matrix

  Nuclear Dipole Moment: (a.u.)
     X:     0.9309      Y:    -0.2973      Z:    -6.8836

  Electronic Dipole Moment: (a.u.)
     X:     1.5191      Y:    -1.0159      Z:     5.2783

  Dipole Moment: (a.u.)
     X:     2.4500      Y:    -1.3132      Z:    -1.6054     Total:     3.2100

  Dipole Moment: (Debye)
     X:     6.2274      Y:    -3.3378      Z:    -4.0804     Total:     8.1591


*** tstop() called on gpu-1-12.local at Mon Nov 13 12:40:54 2017
Module time:
	user time   =    1134.09 seconds =      18.90 minutes
	system time =      53.44 seconds =       0.89 minutes
	total time  =        451 seconds =       7.52 minutes
Total time:
	user time   =    1134.10 seconds =      18.90 minutes
	system time =      53.44 seconds =       0.89 minutes
	total time  =        451 seconds =       7.52 minutes

  //>>>>>>>>>>>>>>>>>>>>>>>>>>>>>>>>>>>//
  //               DFMP2               //
  //<<<<<<<<<<<<<<<<<<<<<<<<<<<<<<<<<<<//

   => Loading Basis Set <=

    Name: (AUG-CC-PVTZ AUX)
    Role: RIFIT
    Keyword: DF_BASIS_MP2
    atoms 1-11  entry C          line   147 file /cbio/jclab/home/chayas/anaconda/envs/py35/share/psi4/basis/aug-cc-pvtz-ri.gbs 
    atoms 12    entry N          line   205 file /cbio/jclab/home/chayas/anaconda/envs/py35/share/psi4/basis/aug-cc-pvtz-ri.gbs 
    atoms 13    entry O          line   263 file /cbio/jclab/home/chayas/anaconda/envs/py35/share/psi4/basis/aug-cc-pvtz-ri.gbs 
    atoms 14    entry F          line   321 file /cbio/jclab/home/chayas/anaconda/envs/py35/share/psi4/basis/aug-cc-pvtz-ri.gbs 
    atoms 15-21 entry H          line    29 file /cbio/jclab/home/chayas/anaconda/envs/py35/share/psi4/basis/aug-cc-pvtz-ri.gbs 

	 --------------------------------------------------------
	                          DF-MP2                         
	      2nd-Order Density-Fitted Moller-Plesset Theory     
	              RMP2 Wavefunction,   8 Threads             
	                                                         
	        Rob Parrish, Justin Turney, Andy Simmonett,      
	           Ed Hohenstein, and C. David Sherrill          
	 --------------------------------------------------------

   => Auxiliary Basis Set <=

  Basis Set: (AUG-CC-PVTZ AUX)
    Blend: AUG-CC-PVTZ-RI
    Number of shells: 490
    Number of basis function: 1806
    Number of Cartesian functions: 2289
    Spherical Harmonics?: true
    Max angular momentum: 4

	 --------------------------------------------------------
	                 NBF =   805, NAUX =  1806
	 --------------------------------------------------------
	   CLASS    FOCC     OCC    AOCC    AVIR     VIR    FVIR
	   PAIRS       0      49      49     756     756       0
	 --------------------------------------------------------


         ------------------------------------------------------------
                                     CPHF                           
                                  Rob Parrish                       
         ------------------------------------------------------------

  ==> Geometry <==

    Molecular point group: c1
    Full point group: C1

    Geometry (in Angstrom), charge = -1, multiplicity = 1:

       Center              X                  Y                   Z               Mass       
    ------------   -----------------  -----------------  -----------------  -----------------
           C         -1.345014174408     0.767491578286    -0.780718111140    12.000000000000
           C         -2.423014174408     1.340491578286    -0.107718111140    12.000000000000
           C          1.486985825592    -1.500508421714    -0.210718111140    12.000000000000
           C          1.204985825592     0.085491578286    -1.995718111140    12.000000000000
           C         -1.430014174408     0.724491578286     2.007281888860    12.000000000000
           C          2.548985825592    -2.032508421714    -0.923718111140    12.000000000000
           C          2.278985825592    -0.517508421714    -2.629718111140    12.000000000000
           C         -0.309014174408     0.172491578286    -0.060718111140    12.000000000000
           C          0.807985825592    -0.420508421714    -0.763718111140    12.000000000000
           C         -2.466014174408     1.319491578286     1.286281888860    12.000000000000
           C         -0.352014174408     0.151491578286     1.333281888860    12.000000000000
           N          2.963985825592    -1.567508421714    -2.123718111140    14.003074004780
           O         -3.457014174408     1.846491578286     1.905281888860    15.994914619560
           F          0.635985825592    -0.416508421714     2.040281888860    18.998403224000
           H         -1.326014174408     0.790491578286    -1.868718111140     1.007825032070
           H         -3.219014174408     1.796491578286    -0.693718111140     1.007825032070
           H          1.205985825592    -1.923508421714     0.748281888860     1.007825032070
           H          0.698985825592     0.927491578286    -2.458718111140     1.007825032070
           H         -1.439014174408     0.694491578286     3.095281888860     1.007825032070
           H          3.109985825592    -2.876508421714    -0.536718111140     1.007825032070
           H          2.628985825592    -0.159508421714    -3.591718111140     1.007825032070

  Nuclear repulsion =  804.191374335673800
  Reference energy  = -649.608766819865991

  ==> Basis Set <==

  Basis Set: AUG-CC-PVTZ
    Blend: AUG-CC-PVTZ
    Number of shells: 259
    Number of basis function: 805
    Number of Cartesian functions: 945
    Spherical Harmonics?: true
    Max angular momentum: 3

  ==> CGRSolver (by Rob Parrish) <==

   Number of roots    =         1
   Preconditioning    =    JACOBI
   Convergence cutoff =     1E-06
   Maximum iterations =       100

  ==> CPHFRHamiltonian (by Rob Parrish) <== 

  ==> DFJK: Density-Fitted J/K Matrices <==

    J tasked:                  Yes
    K tasked:                  Yes
    wK tasked:                  No
    OpenMP threads:              8
    Integrals threads:           8
    Memory (MB):              3576
    Algorithm:                Disk
    Integral Cache:           NONE
    Schwarz Cutoff:          1E-12
    Fitting Condition:       1E-12

   => Auxiliary Basis Set <=

  Basis Set: (AUG-CC-PVTZ AUX)
    Blend: AUG-CC-PVTZ-JKFIT
    Number of shells: 518
    Number of basis function: 1778
    Number of Cartesian functions: 2219
    Spherical Harmonics?: true
    Max angular momentum: 4

  ==> CPHF Iterations <==

  => Iterations <=

             Iter  Converged  Remaining    Residual
  CGR           1          0          1   1.339E-01
  CGR           2          0          1   4.982E-02
  CGR           3          0          1   2.978E-02
  CGR           4          0          1   1.117E-02
  CGR           5          0          1   5.263E-03
  CGR           6          0          1   2.668E-03
  CGR           7          0          1   1.042E-03
  CGR           8          0          1   3.979E-04
  CGR           9          0          1   1.290E-04
  CGR          10          0          1   3.717E-05
  CGR          11          0          1   1.395E-05
  CGR          12          0          1   3.319E-06
  CGR          13          0          1   1.199E-06
  CGR          14          1          0   5.252E-07

    CGRSolver converged.

  ==> DFCorrGrad: Density-Fitted Correlated Gradients <==

    OpenMP threads:              8
    Integrals threads:           8
    Memory (MB):              3576
    Schwarz Cutoff:          0E+00
    Fitting Condition:       1E-12

   => Auxiliary Basis Set <=

  Basis Set: (AUG-CC-PVTZ AUX)
    Blend: AUG-CC-PVTZ-JKFIT
    Number of shells: 518
    Number of basis function: 1778
    Number of Cartesian functions: 2219
    Spherical Harmonics?: true
    Max angular momentum: 4

	-----------------------------------------------------------
	 ==================> DF-MP2 Energies <==================== 
	-----------------------------------------------------------
	 Reference Energy          =    -649.6087668198659912 [Eh]
	 Singles Energy            =      -0.0000000000000001 [Eh]
	 Same-Spin Energy          =      -0.6868866584721144 [Eh]
	 Opposite-Spin Energy      =      -2.0271420008799295 [Eh]
	 Correlation Energy        =      -2.7140286593520440 [Eh]
	 Total Energy              =    -652.3227954792180299 [Eh]
	-----------------------------------------------------------
	 ================> DF-SCS-MP2 Energies <================== 
	-----------------------------------------------------------
	 SCS Same-Spin Scale       =       0.3333333333333333 [-]
	 SCS Opposite-Spin Scale   =       1.2000000000000000 [-]
	 SCS Same-Spin Energy      =      -0.2289622194907048 [Eh]
	 SCS Opposite-Spin Energy  =      -2.4325704010559153 [Eh]
	 SCS Correlation Energy    =      -2.6615326205466201 [Eh]
	 SCS Total Energy          =    -652.2702994404126002 [Eh]
	-----------------------------------------------------------


  -Total Gradient:
     Atom            X                  Y                   Z
    ------   -----------------  -----------------  -----------------
       1        0.019935363814    -0.014865144445    -0.012925382501
       2       -0.023089237000     0.011387925718     0.042182610769
       3       -0.015935059108     0.009882394092     0.008155203971
       4       -0.011828276686     0.008245975718     0.009316772062
       5       -0.045264716723     0.024790391432    -0.002016575507
       6       -0.003062606442    -0.003910131742     0.009726887388
       7       -0.004610443330     0.008936950707    -0.002765131958
       8       -0.023805484346     0.013023043425     0.009637163042
       9        0.020409994270    -0.011186675142    -0.014460115394
      10        0.048393725051    -0.026448290675    -0.030138264258
      11        0.046595441904    -0.020414900659     0.001041543278
      12        0.006335823804    -0.004170082907    -0.004441761461
      13       -0.003297322552     0.002040545949     0.001036823294
      14       -0.009370317672     0.000625686533    -0.010580710625
      15       -0.001533032293     0.002792908905    -0.005711748023
      16       -0.001691657083     0.001879202418    -0.008888225721
      17       -0.000926894679    -0.001952988558     0.009234008193
      18       -0.002982873819     0.003377549036    -0.004428881124
      19        0.003524221771    -0.002685503020     0.007055070078
      20        0.001353930189    -0.001108725346     0.000152916254
      21        0.000849420926    -0.000240131444    -0.001182201754


*** tstop() called on gpu-1-12.local at Mon Nov 13 13:16:35 2017
Module time:
	user time   =    5660.40 seconds =      94.34 minutes
	system time =     117.07 seconds =       1.95 minutes
	total time  =       2592 seconds =      43.20 minutes
Total time:
	user time   =    5660.41 seconds =      94.34 minutes
	system time =     117.07 seconds =       1.95 minutes
	total time  =       2592 seconds =      43.20 minutes

			-----------------------------------------
			 OPTKING 2.0: for geometry optimizations 
			  - R.A. King,  Bethel University        
			-----------------------------------------
	At level 1: Red. Int., RFO, no backsteps, dynamic trust

	Internal coordinates to be generated automatically.
	Detected frag 1 with atoms:  1 2 3 4 5 6 7 8 9 10 11 12 13 14 15 16 17 18 19 20
	 21
	---Fragment 1 Bond Connectivity---
	 1 : 2 8 15
	 2 : 1 10 16
	 3 : 6 9 17
	 4 : 7 9 18
	 5 : 10 11 19
	 6 : 3 12 20
	 7 : 4 12 21
	 8 : 1 9 11
	 9 : 3 4 8
	 10 : 2 5 13
	 11 : 5 8 14
	 12 : 6 7
	 13 : 10
	 14 : 11
	 15 : 1
	 16 : 2
	 17 : 3
	 18 : 4
	 19 : 5
	 20 : 6
	 21 : 7

	Assuming in current code that numbering for constraints corresponds to unified fragment.
	Fixed dihedral atom list: 
	     1     8     9     3
	---Fragment 1 Geometry and Gradient---
	 C          -2.5417084345        1.4503488923       -1.4753434170
	 C          -4.5788332057        2.5331619664       -0.2035577296
	 C           2.8099959739       -2.8355499771       -0.3981995213
	 C           2.2770932044        0.1615556696       -3.7713606685
	 C          -2.7023351558        1.3690906685        3.7932130414
	 C           4.8168851270       -3.8408842798       -1.7455742540
	 C           4.3066590711       -0.9779491885       -4.9694470367
	 C          -0.5839521608        0.3259618432       -0.1147406014
	 C           1.5268719296       -0.7946457536       -1.4432180728
	 C          -4.6600914294        2.4934777176        2.4307204996
	 C          -0.6652103845        0.2862775944        2.5195376279
	 N           5.6011214721       -2.9621616280       -4.0132456135
	 O          -6.5328100271        3.4893633896        3.6004609759
	 F           1.2018390348       -0.7870868491        3.8555740038
	 H          -2.5058036380        1.4938125933       -3.5313654496
	 H          -6.0830552075        3.3948770830       -1.3109372435
	 H           2.2789829305       -3.6349041313        1.4140478401
	 H           1.3208917811        1.7527050735       -4.6463038680
	 H          -2.7193426910        1.3123988846        5.8492350740
	 H           5.8770214875       -5.4358131360       -1.0142502406
	 H           4.9680632176       -0.3014272329       -6.7873635766
	             0.0199353638       -0.0148651444       -0.0129253825
	            -0.0230892370        0.0113879257        0.0421826108
	            -0.0159350591        0.0098823941        0.0081552040
	            -0.0118282767        0.0082459757        0.0093167721
	            -0.0452647167        0.0247903914       -0.0020165755
	            -0.0030626064       -0.0039101317        0.0097268874
	            -0.0046104433        0.0089369507       -0.0027651320
	            -0.0238054843        0.0130230434        0.0096371630
	             0.0204099943       -0.0111866751       -0.0144601154
	             0.0483937251       -0.0264482907       -0.0301382643
	             0.0465954419       -0.0204149007        0.0010415433
	             0.0063358238       -0.0041700829       -0.0044417615
	            -0.0032973226        0.0020405459        0.0010368233
	            -0.0093703177        0.0006256865       -0.0105807106
	            -0.0015330323        0.0027929089       -0.0057117480
	            -0.0016916571        0.0018792024       -0.0088882257
	            -0.0009268947       -0.0019529886        0.0092340082
	            -0.0029828738        0.0033775490       -0.0044288811
	             0.0035242218       -0.0026855030        0.0070550701
	             0.0013539302       -0.0011087253        0.0001529163
	             0.0008494209       -0.0002401314       -0.0011822018

	Previous optimization step data not found.  Starting new optimization.

	---Fragment 1 Intrafragment Coordinates---
	 - Coordinate -           - BOHR/RAD -       - ANG/DEG -
	 R(1,2)           =         2.634350	       1.394038
	 R(1,8)           =         2.635962	       1.394891
	 R(1,15)          =         2.056795	       1.088409
	 R(2,10)          =         2.635830	       1.394821
	 R(2,16)          =         2.057067	       1.088553
	 R(3,6)           =         2.617961	       1.385365
	 R(3,9)           =         2.627501	       1.390414
	 R(3,17)          =         2.050654	       1.085159
	 R(4,7)           =         2.617827	       1.385295
	 R(4,9)           =         2.626290	       1.389773
	 R(4,18)          =         2.052219	       1.085988
	 R(5,10)          =         2.636938	       1.395407
	 R(5,11)          =         2.635263	       1.394521
	 R(5,19)          =         2.056874	       1.088451
	 R(6,12)          =         2.555291	       1.352202
	 R(6,20)          =         2.050005	       1.084816
	 R(7,12)          =         2.554810	       1.351947
	 R(7,21)          =         2.049380	       1.084485
	 R(8,9)           =         2.734263	       1.446909
	 R(8,11)          =         2.635830	       1.394821
	 R(10,13)         =         2.422221	       1.281784
	 R(11,14)         =         2.534359	       1.341125
	 B(1,2,10)        =         2.094553	     120.009056
	 B(1,2,16)        =         2.068903	     118.539404
	 B(1,8,9)         =         2.091392	     119.827938
	 B(1,8,11)        =         2.093692	     119.959722
	 B(2,1,8)         =         2.094940	     120.031219
	 B(2,1,15)        =         2.079908	     119.169966
	 B(2,10,5)        =         2.094306	     119.994870
	 B(2,10,13)       =         2.094719	     120.018581
	 B(3,6,12)        =         2.165121	     124.052312
	 B(3,6,20)        =         2.107836	     120.770129
	 B(3,9,4)         =         2.089641	     119.727613
	 B(3,9,8)         =         2.096820	     120.138964
	 B(4,7,12)        =         2.164694	     124.027843
	 B(4,7,21)        =         2.108882	     120.830017
	 B(4,9,8)         =         2.096722	     120.133310
	 B(5,10,13)       =         2.094160	     119.986548
	 B(5,11,8)        =         2.095181	     120.045019
	 B(5,11,14)       =         2.081414	     119.256220
	 B(6,3,9)         =         2.057760	     117.900949
	 B(6,3,17)        =         2.098611	     120.241543
	 B(6,12,7)        =         2.030547	     116.341755
	 B(7,4,9)         =         2.058606	     117.949461
	 B(7,4,18)        =         2.098561	     120.238716
	 B(8,1,15)        =         2.108336	     120.798746
	 B(8,11,14)       =         2.106591	     120.698759
	 B(9,3,17)        =         2.126814	     121.857492
	 B(9,4,18)        =         2.126017	     121.811800
	 B(9,8,11)        =         2.098101	     120.212327
	 B(10,2,16)       =         2.119728	     121.451467
	 B(10,5,11)       =         2.093699	     119.960108
	 B(10,5,19)       =         2.120101	     121.472852
	 B(11,5,19)       =         2.069385	     118.567038
	 B(12,6,20)       =         2.010223	     115.177272
	 B(12,7,21)       =         2.009608	     115.142082
	 D(1,2,10,5)      =        -0.000325	      -0.018609
	 D(1,2,10,13)     =         3.141392	     179.988520
	 D(1,8,9,3)       =        -2.617582	    -149.976422
	 D(1,8,9,4)       =         0.521868	      29.900857
	 D(1,8,11,5)      =         0.000325	       0.018608
	 D(1,8,11,14)     =        -3.141528	    -179.996269
	 D(2,1,8,9)       =        -3.141211	    -179.978157
	 D(2,1,8,11)      =        -0.000348	      -0.019945
	 D(2,10,5,11)     =         0.000301	       0.017261
	 D(2,10,5,19)     =        -3.141543	    -179.997173
	 D(3,6,12,7)      =         0.000758	       0.043427
	 D(3,9,4,7)       =        -0.000987	      -0.056573
	 D(3,9,4,18)      =         3.141556	     179.997928
	 D(3,9,8,11)      =         0.524741	      30.065472
	 D(4,7,12,6)      =        -0.000020	      -0.001164
	 D(4,9,3,6)       =         0.001648	       0.094406
	 D(4,9,3,17)      =        -3.140747	    -179.951568
	 D(4,9,8,11)      =        -2.618993	    -150.057249
	 D(5,10,2,16)     =         3.139529	     179.881752
	 D(5,11,8,9)      =         3.141185	     179.976658
	 D(6,3,9,8)       =         3.141107	     179.972185
	 D(6,12,7,21)     =         3.140046	     179.911355
	 D(7,4,9,8)       =        -3.140447	    -179.934359
	 D(7,12,6,20)     =         3.138961	     179.849214
	 D(8,1,2,10)      =         0.000348	       0.019955
	 D(8,1,2,16)      =        -3.139556	    -179.883288
	 D(8,9,3,17)      =        -0.001288	      -0.073789
	 D(8,9,4,18)      =         0.002097	       0.120143
	 D(8,11,5,10)     =        -0.000301	      -0.017270
	 D(8,11,5,19)     =         3.141536	     179.996748
	 D(9,3,6,12)      =        -0.001580	      -0.090530
	 D(9,3,6,20)      =        -3.139602	    -179.885971
	 D(9,4,7,12)      =         0.000155	       0.008855
	 D(9,4,7,21)      =        -3.139828	    -179.898921
	 D(9,8,1,15)      =         0.002066	       0.118384
	 D(9,8,11,14)     =        -0.000667	      -0.038219
	 D(10,2,1,15)     =         3.140283	     179.924984
	 D(10,5,11,14)    =         3.141547	     179.997392
	 D(11,5,10,13)    =        -3.141416	    -179.989865
	 D(11,8,1,15)     =        -3.140256	    -179.923403
	 D(12,6,3,17)     =         3.140801	     179.954670
	 D(12,7,4,18)     =         3.140812	     179.955246
	 D(13,10,2,16)    =        -0.001939	      -0.111119
	 D(13,10,5,19)    =        -0.000075	      -0.004300
	 D(14,11,5,19)    =         0.000199	       0.011410
	 D(15,1,2,16)     =         0.000379	       0.021741
	 D(17,3,6,20)     =         0.002779	       0.159229
	 D(18,4,7,21)     =         0.000829	       0.047471
	 R(3,14)          =         4.987681	       2.639367

	Current energy   :      -652.3227954792

	Generating empirical Hessian (Schlegel '84) for each fragment.
	Adding user-defined constraint: Fragment 1; Coordinate 59:
		Value =    -2.617582; Fixed value    =    -2.617994
		Force =    -0.000206; Force constant =     0.500000
	Removing off-diagonal coupling between coordinate 59 and others.
	Taking RFO optimization step.
	Going to follow RFO solution 1.
	Using RFO vector 1.

	Determining step-restricting scale parameter for RS-RFO.
	Maximum step size allowed    0.10000

	 Iter      |step|        alpha        rfo_root  
	------------------------------------------------
	    0     0.31805       1.00000           1
	    1     0.22703       4.49587           1
	    2     0.16389      14.56798           1
	    3     0.12495      32.96764           1
	    4     0.10608      51.49573           1
	    5     0.10052      59.30540           1
	    6     0.10000      60.10250           1
	------------------------------------------------
	Norm of target step-size    0.10000
	Projected energy change by RFO approximation:        -0.0074318488

	Back-transformation to cartesian coordinates...
	Could not converge backtransformation.
	Using first guess instead.

	--- Internal Coordinate Step in ANG or DEG, aJ/ANG or AJ/DEG ---
	 ---------------------------------------------------------------------------
	   Coordinate                Previous        Force       Change         New 
	   ----------                --------       ------       ------       ------
	    1 R(1,2)          =      1.394038    -0.076642    -0.005313     1.388725
	    2 R(1,8)          =      1.394891     0.057202     0.003912     1.398803
	    3 R(1,15)         =      1.088409    -0.047306    -0.003783     1.084626
	    4 R(2,10)         =      1.394821     0.220665     0.015829     1.410650
	    5 R(2,16)         =      1.088553    -0.056098    -0.004482     1.084071
	    6 R(3,6)          =      1.385365     0.002073     0.000153     1.385518
	    7 R(3,9)          =      1.390414     0.062026     0.004650     1.395063
	    8 R(3,17)         =      1.085159    -0.075481    -0.005990     1.079169
	    9 R(4,7)          =      1.385295    -0.004650    -0.000339     1.384955
	   10 R(4,9)          =      1.389773     0.054802     0.004231     1.394004
	   11 R(4,18)         =      1.085988    -0.048582    -0.003844     1.082144
	   12 R(5,10)         =      1.395407     0.199772     0.014520     1.409927
	   13 R(5,11)         =      1.394521    -0.133669    -0.009292     1.385229
	   14 R(5,19)         =      1.088451    -0.058470    -0.004634     1.083817
	   15 R(6,12)         =      1.352202    -0.099324    -0.006579     1.345623
	   16 R(6,20)         =      1.084816    -0.013324    -0.001053     1.083764
	   17 R(7,12)         =      1.351947    -0.106099    -0.007051     1.344896
	   18 R(7,21)         =      1.084485    -0.010246    -0.000812     1.083673
	   19 R(8,9)          =      1.446909     0.063845     0.005004     1.451914
	   20 R(8,11)         =      1.394821    -0.004496    -0.000396     1.394425
	   21 R(10,13)        =      1.281784    -0.032040    -0.001727     1.280058
	   22 R(11,14)        =      1.341125     0.101978     0.006472     1.347597
	   23 B(1,2,10)       =    120.009056     0.000577     0.676089   120.685145
	   24 B(1,2,16)       =    118.539404     0.000198     0.257460   118.796864
	   25 B(1,8,9)        =    119.827938     0.000947     1.032818   120.860755
	   26 B(1,8,11)       =    119.959722    -0.001263    -1.452016   118.507705
	   27 B(2,1,8)        =    120.031219     0.000765     0.818147   120.849366
	   28 B(2,1,15)       =    119.169966    -0.000169    -0.149016   119.020950
	   29 B(2,10,5)       =    119.994870    -0.001817    -1.865276   118.129594
	   30 B(2,10,13)      =    120.018581     0.000998     1.030770   121.049351
	   31 B(3,6,12)       =    124.052312     0.000305     0.305816   124.358129
	   32 B(3,6,20)       =    120.770129    -0.000203    -0.214591   120.555538
	   33 B(3,9,4)        =    119.727613    -0.001517    -1.569980   118.157634
	   34 B(3,9,8)        =    120.138964     0.000764     0.809257   120.948221
	   35 B(4,7,12)       =    124.027843     0.000188     0.165805   124.193648
	   36 B(4,7,21)       =    120.830017    -0.000155    -0.157211   120.672806
	   37 B(4,9,8)        =    120.133310     0.000753     0.760732   120.894042
	   38 B(5,10,13)      =    119.986548     0.000819     0.834503   120.821051
	   39 B(5,11,8)       =    120.045019     0.001338     1.372190   121.417209
	   40 B(5,11,14)      =    119.256220    -0.000188    -0.195532   119.060688
	   41 B(6,3,9)        =    117.900949     0.000522     0.617043   118.517993
	   42 B(6,3,17)       =    120.241543    -0.000270    -0.322027   119.919516
	   43 B(6,12,7)       =    116.341755    -0.000188    -0.315498   116.026257
	   44 B(7,4,9)        =    117.949461     0.000690     0.796837   118.746299
	   45 B(7,4,18)       =    120.238716    -0.000235    -0.266612   119.972105
	   46 B(8,1,15)       =    120.798746    -0.000595    -0.669466   120.129279
	   47 B(8,11,14)      =    120.698759    -0.001150    -1.176932   119.521827
	   48 B(9,3,17)       =    121.857492    -0.000252    -0.295111   121.562381
	   49 B(9,4,18)       =    121.811800    -0.000455    -0.530358   121.281442
	   50 B(9,8,11)       =    120.212327     0.000316     0.419176   120.631504
	   51 B(10,2,16)      =    121.451467    -0.000775    -0.933567   120.517900
	   52 B(10,5,11)      =    119.960108     0.000401     0.450800   120.410908
	   53 B(10,5,19)      =    121.472852    -0.000540    -0.637123   120.835729
	   54 B(11,5,19)      =    118.567038     0.000139     0.186317   118.753355
	   55 B(12,6,20)      =    115.177272    -0.000102    -0.091360   115.085911
	   56 B(12,7,21)      =    115.142082    -0.000034    -0.008722   115.133360
	   57 D(1,2,10,5)     =     -0.018609    -0.000006    -0.038460    -0.057069
	   58 D(1,2,10,13)    =    179.988520    -0.000003    -0.024535   179.963985
	   59 D(1,8,9,3)      =   -149.976422     0.000001     0.011241  -149.965181
	   60 D(1,8,9,4)      =     29.900857     0.000002     0.014799    29.915656
	   61 D(1,8,11,5)     =      0.018608    -0.000006    -0.038348    -0.019740
	   62 D(1,8,11,14)    =   -179.996269     0.000024     0.169063  -179.827206
	   63 D(2,1,8,9)      =   -179.978157    -0.000002    -0.010945  -179.989102
	   64 D(2,1,8,11)     =     -0.019945    -0.000005    -0.037278    -0.057223
	   65 D(2,10,5,11)    =      0.017261    -0.000005    -0.036258    -0.018997
	   66 D(2,10,5,19)    =   -179.997173    -0.000007    -0.053516  -180.050689
	   67 D(3,6,12,7)     =      0.043427    -0.000004    -0.030095     0.013332
	   68 D(3,9,4,7)      =     -0.056573     0.000004     0.022700    -0.033873
	   69 D(3,9,4,18)     =    179.997928     0.000017     0.111344   180.109272
	   70 D(3,9,8,11)     =     30.065472     0.000004     0.038915    30.104387
	   71 D(4,7,12,6)     =     -0.001164     0.000004     0.030857     0.029693
	   72 D(4,9,3,6)      =      0.094406    -0.000004    -0.022010     0.072396
	   73 D(4,9,3,17)     =   -179.951568     0.000020     0.144794  -179.806774
	   74 D(4,9,8,11)     =   -150.057249     0.000006     0.042473  -150.014776
	   75 D(5,10,2,16)    =    179.881752    -0.000007    -0.049740   179.832012
	   76 D(5,11,8,9)     =    179.976658    -0.000009    -0.064357   179.912301
	   77 D(6,3,9,8)      =    179.972185    -0.000002    -0.015771   179.956414
	   78 D(6,12,7,21)    =    179.911355    -0.000006    -0.038279   179.873076
	   79 D(7,4,9,8)      =   -179.934359     0.000002     0.016402  -179.917956
	   80 D(7,12,6,20)    =    179.849214    -0.000010    -0.071878   179.777335
	   81 D(8,1,2,10)     =      0.019955     0.000011     0.076356     0.096311
	   82 D(8,1,2,16)     =   -179.883288     0.000013     0.088637  -179.794651
	   83 D(8,9,3,17)     =     -0.073789     0.000022     0.151033     0.077244
	   84 D(8,9,4,18)     =      0.120143     0.000015     0.105046     0.225189
	   85 D(8,11,5,10)    =     -0.017270     0.000011     0.075018     0.057748
	   86 D(8,11,5,19)    =    179.996748     0.000013     0.092040   180.088788
	   87 D(9,3,6,12)     =     -0.090530     0.000004     0.025639    -0.064891
	   88 D(9,3,6,20)     =   -179.885971     0.000010     0.069281  -179.816690
	   89 D(9,4,7,12)     =      0.008855    -0.000004    -0.027783    -0.018928
	   90 D(9,4,7,21)     =   -179.898921     0.000006     0.044844  -179.854076
	   91 D(9,8,1,15)     =      0.118384     0.000018     0.126189     0.244573
	   92 D(9,8,11,14)    =     -0.038219     0.000021     0.143054     0.104835
	   93 D(10,2,1,15)    =    179.924984    -0.000009    -0.059797   179.865187
	   94 D(10,5,11,14)   =    179.997392    -0.000019    -0.131311   179.866082
	   95 D(11,5,10,13)   =   -179.989865    -0.000007    -0.050136  -180.040001
	   96 D(11,8,1,15)    =   -179.923403     0.000015     0.099856  -179.823547
	   97 D(12,6,3,17)    =    179.954670    -0.000020    -0.138348   179.816322
	   98 D(12,7,4,18)    =    179.955246    -0.000017    -0.115396   179.839851
	   99 D(13,10,2,16)   =     -0.111119    -0.000005    -0.035815    -0.146934
	  100 D(13,10,5,19)   =     -0.004300    -0.000010    -0.067393    -0.071693
	  101 D(14,11,5,19)   =      0.011410    -0.000016    -0.114289    -0.102879
	  102 D(15,1,2,16)    =      0.021741    -0.000007    -0.047516    -0.025775
	  103 D(17,3,6,20)    =      0.159229    -0.000013    -0.094706     0.064523
	  104 D(18,4,7,21)    =      0.047471    -0.000006    -0.042768     0.004703
	  105 R(3,14)         =      2.639367     0.079517     0.010473     2.649840
	 ---------------------------------------------------------------------------
	Successfully symmetrized geometry.
	 Forces used to impose fixed constraints are not included.
	  Forces zeroed: 59 

  ==> Convergence Check <==

  Measures of convergence in internal coordinates in au.
  Criteria marked as inactive (o), active & met (*), and active & unmet ( ).
  --------------------------------------------------------------------------------------------- ~
   Step     Total Energy     Delta E     MAX Force     RMS Force      MAX Disp      RMS Disp    ~
  --------------------------------------------------------------------------------------------- ~
    Convergence Criteria    1.00e-06 *    3.00e-04 *             o    1.20e-03 *             o  ~
  --------------------------------------------------------------------------------------------- ~
      1    -652.32279548   -6.52e+02      2.68e-02      7.44e-03 o    3.26e-02      9.75e-03 o  ~
  ---------------------------------------------------------------------------------------------

	Writing optimization data to binary file.
	Structure for next step:
	Cartesian Geometry (in Angstrom)
	    C    -1.3632739836   0.7764503309  -0.7713087441
	    C    -2.4376799410   1.3469983120  -0.1014709588
	    C     1.4988561481  -1.5042410244  -0.2222866670
	    C     1.2245498074   0.0717228341  -2.0016032079
	    C    -1.4357186391   0.7279313319   2.0118378368
	    C     2.5627963472  -2.0346975265  -0.9338390812
	    C     2.3003808413  -0.5319840339  -2.6310688257
	    C    -0.3155773157   0.1753174949  -0.0658854477
	    C     0.8079487561  -0.4210575176  -0.7659424216
	    C    -2.4958602757   1.3349771791   1.3079274860
	    C    -0.3725710916   0.1622440680   1.3273130392
	    N     2.9825534564  -1.5757234695  -2.1270899199
	    O    -3.4824967180   1.8594086669   1.9324814144
	    F     0.6275065699  -0.4083825866   2.0274901610
	    H    -1.3472003134   0.7989419407  -1.8555824671
	    H    -3.2331449907   1.8009808664  -0.6814242456
	    H     1.2212340408  -1.9313237683   0.7290976718
	    H     0.7261357565   0.9109419284  -2.4688615731
	    H    -1.4352140678   0.6946768497   3.0951441263
	    H     3.1206359157  -2.8780545835  -0.5438296560
	    H     2.6518420347  -0.1728041486  -3.5911788535
			--------------------------
			 OPTKING Finished Execution 
			--------------------------

    Structure for next step:
    Molecular point group: c1
    Full point group: C1

    Geometry (in Angstrom), charge = -1, multiplicity = 1:

    C           -1.360020264252     0.774436449754    -0.771994682602
    C           -2.434426221625     1.344984430855    -0.102156897313
    C            1.502109867458    -1.506254905475    -0.222972605513
    C            1.227803526771     0.069708953015    -2.002289146414
    C           -1.432464919674     0.725917450848     2.011151898345
    C            2.566050066550    -2.036711407628    -0.934525019690
    C            2.303634560667    -0.533997915043    -2.631754764211
    C           -0.312323596281     0.173303613756    -0.066571386207
    C            0.811202475499    -0.423071398679    -0.766628360102
    C           -2.492606556351     1.332963298052     1.307241547560
    C           -0.369317372205     0.160230186949     1.326627100703
    N            2.985807175756    -1.577737350601    -2.127775858358
    O           -3.479242998631     1.857394785767     1.931795475890
    F            0.630760289254    -0.410396467734     2.026804222472
    H           -1.343946593965     0.796928059566    -1.856268405571
    H           -3.229891271318     1.798966985307    -0.682110184124
    H            1.224487760164    -1.933337649384     0.728411733302
    H            0.729389475938     0.908928047309    -2.469547511577
    H           -1.431960348416     0.692662968591     3.094458187833
    H            3.123889635132    -2.880068464566    -0.544515594500
    H            2.655095754131    -0.174818029670    -3.591864792012

gradient() will perform analytic gradient computation.

*** tstart() called on gpu-1-12.local
*** at Mon Nov 13 13:16:36 2017

    SCF Algorithm Type (re)set to DF.

*** tstart() called on gpu-1-12.local
*** at Mon Nov 13 13:16:36 2017

   => Loading Basis Set <=

    Name: AUG-CC-PVTZ
    Role: ORBITAL
    Keyword: BASIS
    atoms 1-11  entry C          line   221 file /cbio/jclab/home/chayas/anaconda/envs/py35/share/psi4/basis/aug-cc-pvtz.gbs 
    atoms 12    entry N          line   267 file /cbio/jclab/home/chayas/anaconda/envs/py35/share/psi4/basis/aug-cc-pvtz.gbs 
    atoms 13    entry O          line   313 file /cbio/jclab/home/chayas/anaconda/envs/py35/share/psi4/basis/aug-cc-pvtz.gbs 
    atoms 14    entry F          line   359 file /cbio/jclab/home/chayas/anaconda/envs/py35/share/psi4/basis/aug-cc-pvtz.gbs 
    atoms 15-21 entry H          line    34 file /cbio/jclab/home/chayas/anaconda/envs/py35/share/psi4/basis/aug-cc-pvtz.gbs 


         ---------------------------------------------------------
                                   SCF
            by Justin Turney, Rob Parrish, and Andy Simmonett
                              RHF Reference
                        8 Threads,   4768 MiB Core
         ---------------------------------------------------------

  ==> Geometry <==

    Molecular point group: c1
    Full point group: C1

    Geometry (in Angstrom), charge = -1, multiplicity = 1:

       Center              X                  Y                   Z               Mass       
    ------------   -----------------  -----------------  -----------------  -----------------
           C         -1.360020264252     0.774436449754    -0.771994682602    12.000000000000
           C         -2.434426221625     1.344984430855    -0.102156897313    12.000000000000
           C          1.502109867458    -1.506254905475    -0.222972605513    12.000000000000
           C          1.227803526771     0.069708953015    -2.002289146414    12.000000000000
           C         -1.432464919674     0.725917450848     2.011151898345    12.000000000000
           C          2.566050066550    -2.036711407628    -0.934525019690    12.000000000000
           C          2.303634560667    -0.533997915043    -2.631754764211    12.000000000000
           C         -0.312323596281     0.173303613756    -0.066571386207    12.000000000000
           C          0.811202475499    -0.423071398679    -0.766628360102    12.000000000000
           C         -2.492606556351     1.332963298052     1.307241547560    12.000000000000
           C         -0.369317372205     0.160230186949     1.326627100703    12.000000000000
           N          2.985807175756    -1.577737350601    -2.127775858358    14.003074004780
           O         -3.479242998631     1.857394785767     1.931795475890    15.994914619560
           F          0.630760289254    -0.410396467734     2.026804222472    18.998403224000
           H         -1.343946593965     0.796928059566    -1.856268405571     1.007825032070
           H         -3.229891271318     1.798966985307    -0.682110184124     1.007825032070
           H          1.224487760164    -1.933337649384     0.728411733302     1.007825032070
           H          0.729389475938     0.908928047309    -2.469547511577     1.007825032070
           H         -1.431960348416     0.692662968591     3.094458187833     1.007825032070
           H          3.123889635132    -2.880068464566    -0.544515594500     1.007825032070
           H          2.655095754131    -0.174818029670    -3.591864792012     1.007825032070

  Running in c1 symmetry.

  Rotational constants: A =      0.06397  B =      0.01366  C =      0.01149 [cm^-1]
  Rotational constants: A =   1917.64609  B =    409.50300  C =    344.42949 [MHz]
  Nuclear repulsion =  802.110679745947323

  Charge       = -1
  Multiplicity = 1
  Electrons    = 98
  Nalpha       = 49
  Nbeta        = 49

  ==> Algorithm <==

  SCF Algorithm Type is DF.
  DIIS enabled.
  MOM disabled.
  Fractional occupation disabled.
  Guess Type is READ.
  Energy threshold   = 1.00e-10
  Density threshold  = 1.00e-10
  Integral threshold = 0.00e+00

  ==> Primary Basis <==

  Basis Set: AUG-CC-PVTZ
    Blend: AUG-CC-PVTZ
    Number of shells: 259
    Number of basis function: 805
    Number of Cartesian functions: 945
    Spherical Harmonics?: true
    Max angular momentum: 3

   => Loading Basis Set <=

    Name: (AUG-CC-PVTZ AUX)
    Role: JKFIT
    Keyword: DF_BASIS_SCF
    atoms 1-11  entry C          line   161 file /cbio/jclab/home/chayas/anaconda/envs/py35/share/psi4/basis/aug-cc-pvtz-jkfit.gbs 
    atoms 12    entry N          line   223 file /cbio/jclab/home/chayas/anaconda/envs/py35/share/psi4/basis/aug-cc-pvtz-jkfit.gbs 
    atoms 13    entry O          line   285 file /cbio/jclab/home/chayas/anaconda/envs/py35/share/psi4/basis/aug-cc-pvtz-jkfit.gbs 
    atoms 14    entry F          line   347 file /cbio/jclab/home/chayas/anaconda/envs/py35/share/psi4/basis/aug-cc-pvtz-jkfit.gbs 
    atoms 15-21 entry H          line    69 file /cbio/jclab/home/chayas/anaconda/envs/py35/share/psi4/basis/aug-cc-pvtz-jkfit.gbs 

  Reading orbitals from file 180, no projection.

  ==> Pre-Iterations <==

   -------------------------------------------------------
    Irrep   Nso     Nmo     Nalpha   Nbeta   Ndocc  Nsocc
   -------------------------------------------------------
     A        805     805       0       0       0       0
   -------------------------------------------------------
    Total     805     805      49      49      49       0
   -------------------------------------------------------

  ==> Integral Setup <==

  ==> DFJK: Density-Fitted J/K Matrices <==

    J tasked:                  Yes
    K tasked:                  Yes
    wK tasked:                  No
    OpenMP threads:              8
    Integrals threads:           8
    Memory (MB):              3576
    Algorithm:                Disk
    Integral Cache:           NONE
    Schwarz Cutoff:          1E-12
    Fitting Condition:       1E-12

   => Auxiliary Basis Set <=

  Basis Set: (AUG-CC-PVTZ AUX)
    Blend: AUG-CC-PVTZ-JKFIT
    Number of shells: 518
    Number of basis function: 1778
    Number of Cartesian functions: 2219
    Spherical Harmonics?: true
    Max angular momentum: 4

  Minimum eigenvalue in the overlap matrix is 7.5314545988E-07.
  Using Symmetric Orthogonalization.

  SCF Guess: Orbitals guess was supplied from a previous computation.

  ==> Iterations <==

                           Total Energy        Delta E     RMS |[F,P]|

   @DF-RHF iter   0:  -649.70163415908632   -6.49702e+02   4.99191e-04 
   @DF-RHF iter   1:  -649.61602471733204    8.56094e-02   1.06798e-04 
   @DF-RHF iter   2:  -649.61650059897886   -4.75882e-04   7.85879e-05 DIIS
   @DF-RHF iter   3:  -649.61675312094553   -2.52522e-04   9.09473e-06 DIIS
   @DF-RHF iter   4:  -649.61676017887839   -7.05793e-06   5.00819e-06 DIIS
   @DF-RHF iter   5:  -649.61676216234082   -1.98346e-06   1.47923e-06 DIIS
   @DF-RHF iter   6:  -649.61676255217935   -3.89839e-07   8.00420e-07 DIIS
   @DF-RHF iter   7:  -649.61676267322366   -1.21044e-07   3.59383e-07 DIIS
   @DF-RHF iter   8:  -649.61676270477301   -3.15493e-08   1.58568e-07 DIIS
   @DF-RHF iter   9:  -649.61676270951034   -4.73733e-09   6.28041e-08 DIIS
   @DF-RHF iter  10:  -649.61676271023384   -7.23503e-10   2.12620e-08 DIIS
   @DF-RHF iter  11:  -649.61676271030092   -6.70752e-11   6.46345e-09 DIIS
   @DF-RHF iter  12:  -649.61676271030274   -1.81899e-12   3.61478e-09 DIIS
   @DF-RHF iter  13:  -649.61676271031001   -7.27596e-12   1.63778e-09 DIIS
   @DF-RHF iter  14:  -649.61676271030581    4.20641e-12   6.00663e-10 DIIS
   @DF-RHF iter  15:  -649.61676271031706   -1.12550e-11   2.78080e-10 DIIS
   @DF-RHF iter  16:  -649.61676271031376    3.29692e-12   1.18175e-10 DIIS
   @DF-RHF iter  17:  -649.61676271030581    7.95808e-12   4.69796e-11 DIIS

  ==> Post-Iterations <==

    Orbital Energies (a.u.)
    -----------------------

    Doubly Occupied:                                                      

       1A    -26.188699     2A    -20.313541     3A    -15.448315  
       4A    -11.194435     5A    -11.165423     6A    -11.163100  
       7A    -11.148301     8A    -11.134890     9A    -11.119958  
      10A    -11.114724    11A    -11.112407    12A    -11.087004  
      13A    -11.069218    14A    -11.068881    15A     -1.508940  
      16A     -1.141903    17A     -1.140965    18A     -1.024778  
      19A     -0.965611    20A     -0.921733    21A     -0.878032  
      22A     -0.849961    23A     -0.750485    24A     -0.738030  
      25A     -0.702516    26A     -0.678640    27A     -0.607300  
      28A     -0.588598    29A     -0.578369    30A     -0.566917  
      31A     -0.546378    32A     -0.528301    33A     -0.503860  
      34A     -0.485143    35A     -0.473339    36A     -0.464077  
      37A     -0.433557    38A     -0.421359    39A     -0.407632  
      40A     -0.386855    41A     -0.378631    42A     -0.364715  
      43A     -0.317722    44A     -0.307640    45A     -0.251076  
      46A     -0.239939    47A     -0.229163    48A     -0.205964  
      49A     -0.117711  

    Virtual:                                                              

      50A      0.098908    51A      0.101481    52A      0.115082  
      53A      0.120442    54A      0.125833    55A      0.128439  
      56A      0.133541    57A      0.156546    58A      0.166591  
      59A      0.174842    60A      0.178180    61A      0.183703  
      62A      0.187033    63A      0.188278    64A      0.192126  
      65A      0.197995    66A      0.198715    67A      0.206534  
      68A      0.210052    69A      0.213506    70A      0.214739  
      71A      0.217121    72A      0.221484    73A      0.227345  
      74A      0.229937    75A      0.232795    76A      0.237136  
      77A      0.238768    78A      0.242856    79A      0.247643  
      80A      0.250711    81A      0.258987    82A      0.263256  
      83A      0.266713    84A      0.268279    85A      0.275149  
      86A      0.279112    87A      0.288312    88A      0.293966  
      89A      0.299813    90A      0.313026    91A      0.317850  
      92A      0.318610    93A      0.321602    94A      0.322584  
      95A      0.323904    96A      0.325923    97A      0.329508  
      98A      0.335571    99A      0.337491   100A      0.344012  
     101A      0.347094   102A      0.353415   103A      0.363518  
     104A      0.367586   105A      0.368524   106A      0.377432  
     107A      0.381685   108A      0.384291   109A      0.387146  
     110A      0.389217   111A      0.393832   112A      0.403425  
     113A      0.409695   114A      0.413175   115A      0.415485  
     116A      0.420076   117A      0.422001   118A      0.425467  
     119A      0.430700   120A      0.440754   121A      0.444117  
     122A      0.446630   123A      0.452567   124A      0.456009  
     125A      0.464113   126A      0.472758   127A      0.476109  
     128A      0.479224   129A      0.480666   130A      0.486681  
     131A      0.496255   132A      0.503370   133A      0.509376  
     134A      0.516278   135A      0.518027   136A      0.523617  
     137A      0.533763   138A      0.541489   139A      0.544483  
     140A      0.546943   141A      0.548659   142A      0.555182  
     143A      0.556757   144A      0.561465   145A      0.563951  
     146A      0.571819   147A      0.572309   148A      0.576917  
     149A      0.581632   150A      0.583818   151A      0.585313  
     152A      0.588528   153A      0.597500   154A      0.599367  
     155A      0.601208   156A      0.603309   157A      0.608030  
     158A      0.611381   159A      0.619835   160A      0.622310  
     161A      0.625813   162A      0.628916   163A      0.633067  
     164A      0.633717   165A      0.639688   166A      0.641625  
     167A      0.645156   168A      0.650037   169A      0.653295  
     170A      0.657376   171A      0.661649   172A      0.666710  
     173A      0.676584   174A      0.680172   175A      0.685290  
     176A      0.692336   177A      0.698452   178A      0.700325  
     179A      0.702277   180A      0.709769   181A      0.715878  
     182A      0.723994   183A      0.728382   184A      0.736427  
     185A      0.740790   186A      0.743853   187A      0.746991  
     188A      0.759929   189A      0.766160   190A      0.770589  
     191A      0.788195   192A      0.793806   193A      0.800159  
     194A      0.807231   195A      0.808200   196A      0.811733  
     197A      0.813190   198A      0.820245   199A      0.826530  
     200A      0.837258   201A      0.842897   202A      0.848927  
     203A      0.852379   204A      0.855707   205A      0.859414  
     206A      0.861180   207A      0.870542   208A      0.872554  
     209A      0.877573   210A      0.885616   211A      0.890640  
     212A      0.897850   213A      0.901475   214A      0.917587  
     215A      0.925911   216A      0.931174   217A      0.935004  
     218A      0.941693   219A      0.950231   220A      0.957342  
     221A      0.968425   222A      0.976268   223A      0.982075  
     224A      0.986218   225A      0.987894   226A      0.990680  
     227A      0.998602   228A      1.001518   229A      1.008672  
     230A      1.011867   231A      1.013849   232A      1.017827  
     233A      1.020508   234A      1.024479   235A      1.036386  
     236A      1.039063   237A      1.046978   238A      1.050115  
     239A      1.053584   240A      1.060725   241A      1.064862  
     242A      1.067279   243A      1.076349   244A      1.077875  
     245A      1.082922   246A      1.085724   247A      1.090357  
     248A      1.094462   249A      1.096179   250A      1.106680  
     251A      1.107549   252A      1.117232   253A      1.118071  
     254A      1.121846   255A      1.128000   256A      1.131511  
     257A      1.134152   258A      1.140868   259A      1.143245  
     260A      1.145826   261A      1.148153   262A      1.156024  
     263A      1.158758   264A      1.166829   265A      1.169761  
     266A      1.176427   267A      1.178370   268A      1.188716  
     269A      1.191091   270A      1.192971   271A      1.201690  
     272A      1.205190   273A      1.206483   274A      1.210154  
     275A      1.213979   276A      1.222142   277A      1.227522  
     278A      1.233211   279A      1.239981   280A      1.248741  
     281A      1.256270   282A      1.262829   283A      1.268925  
     284A      1.273367   285A      1.276882   286A      1.280974  
     287A      1.287346   288A      1.294312   289A      1.295668  
     290A      1.298400   291A      1.303023   292A      1.309788  
     293A      1.313061   294A      1.319687   295A      1.322160  
     296A      1.328104   297A      1.329633   298A      1.331698  
     299A      1.339262   300A      1.342922   301A      1.350745  
     302A      1.354579   303A      1.366817   304A      1.377573  
     305A      1.380252   306A      1.387825   307A      1.391754  
     308A      1.393145   309A      1.405487   310A      1.406961  
     311A      1.409524   312A      1.417078   313A      1.429134  
     314A      1.432629   315A      1.444700   316A      1.450689  
     317A      1.457840   318A      1.464823   319A      1.473196  
     320A      1.476371   321A      1.486890   322A      1.490042  
     323A      1.502732   324A      1.508318   325A      1.519210  
     326A      1.523166   327A      1.525154   328A      1.547268  
     329A      1.552264   330A      1.555573   331A      1.569377  
     332A      1.572822   333A      1.581179   334A      1.584337  
     335A      1.602222   336A      1.606351   337A      1.610166  
     338A      1.622270   339A      1.626724   340A      1.631810  
     341A      1.649410   342A      1.653671   343A      1.662742  
     344A      1.666909   345A      1.679100   346A      1.696976  
     347A      1.705671   348A      1.708507   349A      1.713234  
[...]
	 R(7,21)          =         2.046243	       1.082825
	 R(8,9)           =         2.723334	       1.441126
	 R(8,11)          =         2.642375	       1.398285
	 R(10,13)         =         2.381281	       1.260120
	 R(11,14)         =         2.592272	       1.371771
	 B(1,2,10)        =         2.140495	     122.641311
	 B(1,2,16)        =         2.096860	     120.141201
	 B(1,8,9)         =         2.118782	     121.397295
	 B(1,8,11)        =         1.987217	     113.859134
	 B(2,1,8)         =         2.152975	     123.356385
	 B(2,1,15)        =         2.069756	     118.588264
	 B(2,10,5)        =         1.980218	     113.458158
	 B(2,10,13)       =         2.154485	     123.442880
	 B(3,6,12)        =         2.176422	     124.699810
	 B(3,6,20)        =         2.082733	     119.331800
	 B(3,9,4)         =         1.998080	     114.481524
	 B(3,9,8)         =         2.165927	     124.098497
	 B(4,7,12)        =         2.170120	     124.338726
	 B(4,7,21)        =         2.086610	     119.553969
	 B(4,9,8)         =         2.118611	     121.387460
	 B(5,10,13)       =         2.148470	     123.098289
	 B(5,11,8)        =         2.178109	     124.796477
	 B(5,11,14)       =         2.041287	     116.957145
	 B(6,3,9)         =         2.103204	     120.504720
	 B(6,3,17)        =         2.082999	     119.347067
	 B(6,12,7)        =         2.008441	     115.075178
	 B(7,4,9)         =         2.110062	     120.897627
	 B(7,4,18)        =         2.079652	     119.155261
	 B(8,1,15)        =         2.059531	     118.002412
	 B(8,11,14)       =         2.062914	     118.196286
	 B(9,3,17)        =         2.096849	     120.140604
	 B(9,4,18)        =         2.093166	     119.929597
	 B(9,8,11)        =         2.177031	     124.734667
	 B(10,2,16)       =         2.045736	     117.212032
	 B(10,5,11)       =         2.127203	     121.879734
	 B(10,5,19)       =         2.073807	     118.820391
	 B(11,5,19)       =         2.082122	     119.296814
	 B(12,6,20)       =         2.023986	     115.965881
	 B(12,7,21)       =         2.026384	     116.103232
	 D(1,2,10,5)      =        -0.010546	      -0.604248
	 D(1,2,10,13)     =         3.136118	     179.686353
	 D(1,8,9,3)       =        -2.620705	    -150.155317
	 D(1,8,9,4)       =         0.482660	      27.654355
	 D(1,8,11,5)      =        -0.014702	      -0.842377
	 D(1,8,11,14)     =        -3.109890	    -178.183575
	 D(2,1,8,9)       =         3.123972	     178.990399
	 D(2,1,8,11)      =         0.000468	       0.026800
	 D(2,10,5,11)     =        -0.003027	      -0.173429
	 D(2,10,5,19)     =         3.127375	     179.185389
	 D(3,6,12,7)      =         0.003564	       0.204206
	 D(3,9,4,7)       =         0.008602	       0.492870
	 D(3,9,4,18)      =        -3.106195	    -177.971862
	 D(3,9,8,11)      =         0.500758	      28.691306
	 D(4,7,12,6)      =         0.003330	       0.190810
	 D(4,9,3,6)       =        -0.002251	      -0.128962
	 D(4,9,3,17)      =        -3.126216	    -179.118981
	 D(4,9,8,11)      =        -2.679063	    -153.499022
	 D(5,10,2,16)     =         3.116216	     178.546033
	 D(5,11,8,9)      =        -3.137507	    -179.765898
	 D(6,3,9,8)       =         3.103485	     177.816580
	 D(6,12,7,21)     =         3.132008	     179.450847
	 D(7,4,9,8)       =        -3.098209	    -177.514283
	 D(7,12,6,20)     =         3.134993	     179.621893
	 D(8,1,2,10)      =         0.012176	       0.697616
	 D(8,1,2,16)      =        -3.114166	    -178.428561
	 D(8,9,3,17)      =        -0.020480	      -1.173439
	 D(8,9,4,18)      =         0.070179	       4.020985
	 D(8,11,5,10)     =         0.016403	       0.939827
	 D(8,11,5,19)     =        -3.113947	    -178.416022
	 D(9,3,6,12)      =        -0.004027	      -0.230737
	 D(9,3,6,20)      =        -3.135139	    -179.630218
	 D(9,4,7,12)      =        -0.009778	      -0.560237
	 D(9,4,7,21)      =        -3.138038	    -179.796359
	 D(9,8,1,15)      =         0.029284	       1.677856
	 D(9,8,11,14)     =         0.050491	       2.892904
	 D(10,2,1,15)     =         3.106604	     177.995315
	 D(10,5,11,14)    =         3.112112	     178.310910
	 D(11,5,10,13)    =         3.133514	     179.537114
	 D(11,8,1,15)     =        -3.094220	    -177.285744
	 D(12,6,3,17)     =         3.120077	     178.767244
	 D(12,7,4,18)     =         3.105224	     177.916213
	 D(13,10,2,16)    =        -0.020305	      -1.163365
	 D(13,10,5,19)    =        -0.019270	      -1.104068
	 D(14,11,5,19)    =        -0.018238	      -1.044939
	 D(15,1,2,16)     =        -0.019737	      -1.130863
	 D(17,3,6,20)     =        -0.011035	      -0.632236
	 D(18,4,7,21)     =        -0.023037	      -1.319909
	 R(3,14)          =         5.335927	       2.823651

	Current energy   :      -652.3361509346

	Energy change for the previous step:
		Projected    :        -0.0000061116
		Actual       :        -0.0000000200

	Performing BFGS update.
	Previous computed or guess Hessian on step 1.
	Denominators (dg)(dq) or (dq)(dq) are very small.
	 Skipping Hessian update for step 8.
	Steps to be used in Hessian update: 7 6
	Adding user-defined constraint: Fragment 1; Coordinate 59:
		Value =    -2.620705; Fixed value    =    -2.617994
		Force =     0.001898; Force constant =     0.700000
	Removing off-diagonal coupling between coordinate 59 and others.
	Taking RFO optimization step.
	Going to follow RFO solution 1.
	Using RFO vector 1.
	Norm of target step-size    0.00874
	Projected energy change by RFO approximation:        -0.0000061778

	Back-transformation to cartesian coordinates...
	Could not converge backtransformation.
	Using first guess instead.

	--- Internal Coordinate Step in ANG or DEG, aJ/ANG or AJ/DEG ---
	 ---------------------------------------------------------------------------
	   Coordinate                Previous        Force       Change         New 
	   ----------                --------       ------       ------       ------
	    1 R(1,2)          =      1.372713     0.000139     0.000012     1.372726
	    2 R(1,8)          =      1.409087     0.000195     0.000054     1.409141
	    3 R(1,15)         =      1.082112     0.000005    -0.000009     1.082103
	    4 R(2,10)         =      1.436943     0.000446     0.000041     1.436985
	    5 R(2,16)         =      1.080962    -0.000148    -0.000029     1.080933
	    6 R(3,6)          =      1.383301     0.000036    -0.000018     1.383283
	    7 R(3,9)          =      1.402399    -0.000126     0.000002     1.402401
	    8 R(3,17)         =      1.076942     0.000121     0.000012     1.076954
	    9 R(4,7)          =      1.382318     0.000414     0.000032     1.382350
	   10 R(4,9)          =      1.402484    -0.000282    -0.000020     1.402465
	   11 R(4,18)         =      1.079455    -0.000089    -0.000024     1.079430
	   12 R(5,10)         =      1.434458     0.000051    -0.000022     1.434436
	   13 R(5,11)         =      1.366331     0.000008    -0.000004     1.366328
	   14 R(5,19)         =      1.079088     0.000032     0.000005     1.079093
	   15 R(6,12)         =      1.339012    -0.000471    -0.000073     1.338939
	   16 R(6,20)         =      1.082717    -0.000033    -0.000008     1.082709
	   17 R(7,12)         =      1.338919    -0.000575    -0.000073     1.338846
	   18 R(7,21)         =      1.082825     0.000031    -0.000003     1.082822
	   19 R(8,9)          =      1.441126     0.000020     0.000031     1.441157
	   20 R(8,11)         =      1.398285    -0.000138    -0.000020     1.398265
	   21 R(10,13)        =      1.260120     0.000025    -0.000007     1.260112
	   22 R(11,14)        =      1.371771    -0.001218    -0.000134     1.371637
	   23 B(1,2,10)       =    122.641311     0.000001     0.002343   122.643654
	   24 B(1,2,16)       =    120.141201    -0.000005    -0.022810   120.118391
	   25 B(1,8,9)        =    121.397295    -0.000002    -0.022629   121.374665
	   26 B(1,8,11)       =    113.859134    -0.000001    -0.009909   113.849225
	   27 B(2,1,8)        =    123.356385     0.000001     0.010672   123.367057
	   28 B(2,1,15)       =    118.588264     0.000000    -0.002965   118.585299
	   29 B(2,10,5)       =    113.458158    -0.000005    -0.018997   113.439161
	   30 B(2,10,13)      =    123.442880     0.000004     0.013784   123.456664
	   31 B(3,6,12)       =    124.699810    -0.000001    -0.003844   124.695966
	   32 B(3,6,20)       =    119.331800     0.000001     0.002932   119.334733
	   33 B(3,9,4)        =    114.481524    -0.000000    -0.004655   114.476869
	   34 B(3,9,8)        =    124.098497    -0.000005    -0.001751   124.096747
	   35 B(4,7,12)       =    124.338726     0.000000     0.001231   124.339958
	   36 B(4,7,21)       =    119.553969     0.000000    -0.000895   119.553074
	   37 B(4,9,8)        =    121.387460     0.000005     0.005599   121.393058
	   38 B(5,10,13)      =    123.098289     0.000001     0.005756   123.104045
	   39 B(5,11,8)       =    124.796477    -0.000002    -0.005972   124.790505
	   40 B(5,11,14)      =    116.957145     0.000003     0.001981   116.959126
	   41 B(6,3,9)        =    120.504720     0.000001     0.005596   120.510316
	   42 B(6,3,17)       =    119.347067     0.000003     0.013416   119.360483
	   43 B(6,12,7)       =    115.075178     0.000002     0.003121   115.078299
	   44 B(7,4,9)        =    120.897627    -0.000001    -0.000864   120.896763
	   45 B(7,4,18)       =    119.155261     0.000000    -0.005484   119.149777
	   46 B(8,1,15)       =    118.002412    -0.000001    -0.008598   117.993814
	   47 B(8,11,14)      =    118.196286    -0.000001     0.011077   118.207363
	   48 B(9,3,17)       =    120.140604    -0.000003    -0.018727   120.121877
	   49 B(9,4,18)       =    119.929597     0.000001     0.006272   119.935869
	   50 B(9,8,11)       =    124.734667     0.000003     0.032614   124.767282
	   51 B(10,2,16)      =    117.212032     0.000004     0.020094   117.232125
	   52 B(10,5,11)      =    121.879734     0.000006     0.023106   121.902840
	   53 B(10,5,19)      =    118.820391    -0.000001     0.000711   118.821102
	   54 B(11,5,19)      =    119.296814    -0.000005    -0.023631   119.273183
	   55 B(12,6,20)      =    115.965881     0.000000     0.001630   115.967511
	   56 B(12,7,21)      =    116.103232    -0.000000     0.001022   116.104253
	   57 D(1,2,10,5)     =     -0.604248     0.000000     0.091291    -0.512957
	   58 D(1,2,10,13)    =    179.686353    -0.000000    -0.071199   179.615154
	   59 D(1,8,9,3)      =   -150.155317     0.000004     0.041075  -150.114242
	   60 D(1,8,9,4)      =     27.654355     0.000003     0.013985    27.668340
	   61 D(1,8,11,5)     =     -0.842377    -0.000000     0.091814    -0.750562
	   62 D(1,8,11,14)    =   -178.183575    -0.000002    -0.103387  -178.286962
	   63 D(2,1,8,9)      =    178.990399    -0.000001    -0.052345   178.938055
	   64 D(2,1,8,11)     =      0.026800     0.000000    -0.057170    -0.030370
	   65 D(2,10,5,11)    =     -0.173429    -0.000000    -0.058744    -0.232173
	   66 D(2,10,5,19)    =    179.185389     0.000000    -0.039105   179.146284
	   67 D(3,6,12,7)     =      0.204206    -0.000000     0.015808     0.220014
	   68 D(3,9,4,7)      =      0.492870    -0.000001    -0.051680     0.441190
	   69 D(3,9,4,18)     =   -177.971862    -0.000001    -0.048290  -178.020152
	   70 D(3,9,8,11)     =     28.691306     0.000003     0.045903    28.737209
	   71 D(4,7,12,6)     =      0.190810    -0.000000    -0.082946     0.107864
	   72 D(4,9,3,6)      =     -0.128962     0.000001    -0.010230    -0.139192
	   73 D(4,9,3,17)     =   -179.118981     0.000000    -0.029433  -179.148414
	   74 D(4,9,8,11)     =   -153.499022     0.000001     0.018814  -153.480209
	   75 D(5,10,2,16)    =    178.546033     0.000000     0.062533   178.608566
	   76 D(5,11,8,9)     =   -179.765898     0.000002     0.087484  -179.678413
	   77 D(6,3,9,8)      =    177.816580    -0.000001    -0.035436   177.781144
	   78 D(6,12,7,21)    =    179.450847     0.000001     0.052865   179.503712
	   79 D(7,4,9,8)      =   -177.514283     0.000001    -0.027068  -177.541350
	   80 D(7,12,6,20)    =    179.621893     0.000001     0.106243   179.728137
	   81 D(8,1,2,10)     =      0.697616    -0.000001    -0.034578     0.663038
	   82 D(8,1,2,16)     =   -178.428561    -0.000000    -0.005375  -178.433936
	   83 D(8,9,3,17)     =     -1.173439    -0.000001    -0.054640    -1.228078
	   84 D(8,9,4,18)     =      4.020985     0.000001    -0.023678     3.997307
	   85 D(8,11,5,10)    =      0.939827     0.000000    -0.033712     0.906115
	   86 D(8,11,5,19)    =   -178.416022    -0.000000    -0.053590  -178.469612
	   87 D(9,3,6,12)     =     -0.230737    -0.000000     0.029590    -0.201147
	   88 D(9,3,6,20)     =   -179.630218    -0.000001    -0.063665  -179.693883
	   89 D(9,4,7,12)     =     -0.560237     0.000001     0.105053    -0.455183
	   90 D(9,4,7,21)     =   -179.796359    -0.000000    -0.035158  -179.831517
	   91 D(9,8,1,15)     =      1.677856    -0.000001    -0.029732     1.648124
	   92 D(9,8,11,14)    =      2.892904     0.000000    -0.107717     2.785187
	   93 D(10,2,1,15)    =    177.995315    -0.000001    -0.057456   177.937858
	   94 D(10,5,11,14)   =    178.310910     0.000002     0.159503   178.470413
	   95 D(11,5,10,13)   =    179.537114     0.000001     0.103118   179.640232
	   96 D(11,8,1,15)    =   -177.285744     0.000000    -0.034557  -177.320301
	   97 D(12,6,3,17)    =    178.767244     0.000000     0.048326   178.815570
	   98 D(12,7,4,18)    =    177.916213     0.000001     0.101867   178.018080
	   99 D(13,10,2,16)   =     -1.163365    -0.000001    -0.099958    -1.263323
	  100 D(13,10,5,19)   =     -1.104068     0.000001     0.122757    -0.981311
	  101 D(14,11,5,19)   =     -1.044939     0.000001     0.139624    -0.905315
	  102 D(15,1,2,16)    =     -1.130863    -0.000000    -0.028254    -1.159116
	  103 D(17,3,6,20)    =     -0.632236    -0.000000    -0.044930    -0.677166
	  104 D(18,4,7,21)    =     -1.319909    -0.000000    -0.038344    -1.358254
	  105 R(3,14)         =      2.823651     0.000465     0.001169     2.824820
	 ---------------------------------------------------------------------------
	Successfully symmetrized geometry.
	 Forces used to impose fixed constraints are not included.
	  Forces zeroed: 59 

  ==> Convergence Check <==

  Measures of convergence in internal coordinates in au.
  Criteria marked as inactive (o), active & met (*), and active & unmet ( ).
  ---------------------------------------------------------------------------------------------
   Step     Total Energy     Delta E     MAX Force     RMS Force      MAX Disp      RMS Disp   
  ---------------------------------------------------------------------------------------------
    Convergence Criteria    1.00e-06 *    3.00e-04 *             o    1.20e-03 *             o
  ---------------------------------------------------------------------------------------------
      9    -652.33615093   -2.00e-08 *    1.50e-04 *    4.51e-05 o    2.78e-03      8.53e-04 o  ~
  ---------------------------------------------------------------------------------------------


  **** Optimization is complete! (in 9 steps) ****

  ==> Optimization Summary <==

  Measures of convergence in internal coordinates in au.
  --------------------------------------------------------------------------------------------------------------- ~
   Step         Total Energy             Delta E       MAX Force       RMS Force        MAX Disp        RMS Disp  ~
  --------------------------------------------------------------------------------------------------------------- ~
      1    -652.322795479218   -652.322795479218      0.02678387      0.00744047      0.03255521      0.00975328  ~
      2    -652.328988209074     -0.006192729856      0.01623129      0.00487053      0.03289408      0.00975540  ~
      3    -652.332860111304     -0.003871902230      0.00925004      0.00279069      0.05026472      0.00976129  ~
      4    -652.334845023993     -0.001984912690      0.00637356      0.00124588      0.07641807      0.00976758  ~
      5    -652.335652790761     -0.000807766767      0.00421043      0.00052043      0.08194036      0.00977272  ~
      6    -652.336014472909     -0.000361682148      0.00212137      0.00026362      0.07685637      0.00964647  ~
      7    -652.336147013861     -0.000132540952      0.00045395      0.00012129      0.01448113      0.00203246  ~
      8    -652.336150914587     -0.000003900726      0.00022394      0.00004856      0.00293746      0.00089392  ~
      9    -652.336150934635     -0.000000020048      0.00025019      0.00005132      0.00278384      0.00085340  ~
  --------------------------------------------------------------------------------------------------------------- ~

	Writing optimization data to binary file.
	Final energy is   -652.3361509346353
	Final (previous) structure:
	Cartesian Geometry (in Angstrom)
	    C    -1.3157243170   0.7896390780  -0.7340469334
	    C    -2.4044224072   1.3497389948  -0.1132679828
	    C     1.5870662610  -1.5191347305  -0.2527126577
	    C     1.2581074191   0.0391458430  -1.9926415003
	    C    -1.4780286636   0.7319489876   2.0136253658
	    C     2.6152638850  -2.0589240689  -1.0043499761
	    C     2.2947896525  -0.5706653788  -2.6739803210
	    C    -0.2603672372   0.1690184847  -0.0364962791
	    C     0.8529691089  -0.4248452576  -0.7326662095
	    C    -2.5588220090   1.3658638079   1.3152653019
	    C    -0.4207916982   0.1732994545   1.3525486648
	    N     2.9922398678  -1.6152427319  -2.2101645718
	    O    -3.5486664703   1.8806500023   1.9010168562
	    F     0.5741649968  -0.3747501248   2.1216125325
	    H    -1.2821043956   0.7846882879  -1.8156257025
	    H    -3.1972564843   1.7905161926  -0.7011523151
	    H     1.3433458199  -1.9576958906   0.7002135497
	    H     0.7743655463   0.8987694561  -2.4311201455
	    H    -1.4993818289   0.7066566404   3.0922060443
	    H     3.1656716586  -2.9075365435  -0.6181058931
	    H     2.5918821738  -0.1923770571  -3.6441062277
	Saving final (previous) structure.
			--------------------------
			 OPTKING Finished Execution 
			--------------------------

    Final optimized geometry and variables:
    Molecular point group: c1
    Full point group: C1

    Geometry (in Angstrom), charge = -1, multiplicity = 1:

    C           -1.315724317004     0.789639077952    -0.734046933433
    C           -2.404422407211     1.349738994824    -0.113267982772
    C            1.587066261028    -1.519134730515    -0.252712657715
    C            1.258107419120     0.039145843012    -1.992641500305
    C           -1.478028663619     0.731948987617     2.013625365807
    C            2.615263884973    -2.058924068935    -1.004349976064
    C            2.294789652485    -0.570665378791    -2.673980320990
    C           -0.260367237233     0.169018484747    -0.036496279054
    C            0.852969108882    -0.424845257645    -0.732666209511
    C           -2.558822008965     1.365863807910     1.315265301879
    C           -0.420791698176     0.173299454500     1.352548664815
    N            2.992239867828    -1.615242731878    -2.210164571769
    O           -3.548666470306     1.880650002272     1.901016856237
    F            0.574164996789    -0.374750124805     2.121612532463
    H           -1.282104395610     0.784688287901    -1.815625702475
    H           -3.197256484303     1.790516192630    -0.701152315090
    H            1.343345819906    -1.957695890611     0.700213549675
    H            0.774365546343     0.898769456136    -2.431120145454
    H           -1.499381828886     0.706656640379     3.092206044255
    H            3.165671658620    -2.907536543461    -0.618105893112
    H            2.591882173767    -0.192377057115    -3.644106227735

	Cleaning optimization helper files.

*** Psi4 exiting successfully. Buy a developer a beer!
