
    -----------------------------------------------------------------------
          Psi4: An Open-Source Ab Initio Electronic Structure Package
                               Psi4 1.1 release

                         Git: Rev {HEAD} add49b9 


    R. M. Parrish, L. A. Burns, D. G. A. Smith, A. C. Simmonett,
    A. E. DePrince III, E. G. Hohenstein, U. Bozkaya, A. Yu. Sokolov,
    R. Di Remigio, R. M. Richard, J. F. Gonthier, A. M. James,
    H. R. McAlexander, A. Kumar, M. Saitow, X. Wang, B. P. Pritchard,
    P. Verma, H. F. Schaefer III, K. Patkowski, R. A. King, E. F. Valeev,
    F. A. Evangelista, J. M. Turney, T. D. Crawford, and C. D. Sherrill,
    J. Chem. Theory Comput. in press (2017).
    (doi: 10.1021/acs.jctc.7b00174)

    -----------------------------------------------------------------------


    Psi4 started on: Saturday, 11 November 2017 06:12PM

    Process ID:  25213
    PSIDATADIR: /cbio/jclab/home/chayas/anaconda/envs/py35/share/psi4
    Memory:     500.0 MiB
    Threads:    8
    
  ==> Input File <==

--------------------------------------------------------------------------

memory 5 Gb

molecule phepyrF {
  symmetry C1
  0 1 
  C      1.885   -1.036   -0.112
  C      0.807   -0.463   0.561
  C      2.921   -1.631   0.608
  C      0.764   -0.484   1.955
  C      3.704   -2.858   3.980
  C      5.245   -2.279   2.226
  C      4.769   -3.437   4.651
  C      6.241   -2.884   2.975
  C      2.878   -1.652   2.002
  C      3.955   -2.270   2.745
  C      1.800   -1.079   2.676
  N      6.036   -3.466   4.179
  F      1.744   -1.089   4.016
  H      1.918   -1.020   -1.198
  H      0.000   -0.000   -0.000
  H      3.755   -2.073   0.068
  H      -0.076   -0.038   2.480
  H      2.711   -2.871   4.417
  H      5.479   -1.830   1.266
  H      4.626   -3.911   5.616
  H      7.264   -2.917   2.615
  units Angstrom
}

dih_string = "3 9 10 5 210"
set optking fixed_dihedral = $dih_string

optimize('MP2/aug-cc-PVTZ')
--------------------------------------------------------------------------

  Memory set to   4.657 GiB by Python driver.
gradient() will perform analytic gradient computation.

*** tstart() called on gpu-1-15.local
*** at Sat Nov 11 18:12:58 2017

    SCF Algorithm Type (re)set to DF.

*** tstart() called on gpu-1-15.local
*** at Sat Nov 11 18:12:58 2017

   => Loading Basis Set <=

    Name: AUG-CC-PVTZ
    Role: ORBITAL
    Keyword: BASIS
    atoms 1-11  entry C          line   221 file /cbio/jclab/home/chayas/anaconda/envs/py35/share/psi4/basis/aug-cc-pvtz.gbs 
    atoms 12    entry N          line   267 file /cbio/jclab/home/chayas/anaconda/envs/py35/share/psi4/basis/aug-cc-pvtz.gbs 
    atoms 13    entry F          line   359 file /cbio/jclab/home/chayas/anaconda/envs/py35/share/psi4/basis/aug-cc-pvtz.gbs 
    atoms 14-21 entry H          line    34 file /cbio/jclab/home/chayas/anaconda/envs/py35/share/psi4/basis/aug-cc-pvtz.gbs 


         ---------------------------------------------------------
                                   SCF
            by Justin Turney, Rob Parrish, and Andy Simmonett
                              RHF Reference
                        8 Threads,   4768 MiB Core
         ---------------------------------------------------------

  ==> Geometry <==

    Molecular point group: c1
    Full point group: C1

    Geometry (in Angstrom), charge = 0, multiplicity = 1:

       Center              X                  Y                   Z               Mass       
    ------------   -----------------  -----------------  -----------------  -----------------
           C         -1.369064629973     0.841192744457    -2.662522796624    12.000000000000
           C         -2.447064629973     1.414192744457    -1.989522796624    12.000000000000
           C         -0.333064629973     0.246192744457    -1.942522796624    12.000000000000
           C         -2.490064629973     1.393192744457    -0.595522796624    12.000000000000
           C          0.449935370027    -0.980807255543     1.429477203376    12.000000000000
           C          1.990935370027    -0.401807255543    -0.324522796624    12.000000000000
           C          1.514935370027    -1.559807255543     2.100477203376    12.000000000000
           C          2.986935370027    -1.006807255543     0.424477203376    12.000000000000
           C         -0.376064629973     0.225192744457    -0.548522796624    12.000000000000
           C          0.700935370027    -0.392807255543     0.194477203376    12.000000000000
           C         -1.454064629973     0.798192744457     0.125477203376    12.000000000000
           N          2.781935370027    -1.588807255543     1.628477203376    14.003074004780
           F         -1.510064629973     0.788192744457     1.465477203376    18.998403224000
           H         -1.336064629973     0.857192744457    -3.748522796624     1.007825032070
           H         -3.254064629973     1.877192744457    -2.550522796624     1.007825032070
           H          0.500935370027    -0.195807255543    -2.482522796624     1.007825032070
           H         -3.330064629973     1.839192744457    -0.070522796624     1.007825032070
           H         -0.543064629973    -0.993807255543     1.866477203376     1.007825032070
           H          2.224935370027     0.047192744457    -1.284522796624     1.007825032070
           H          1.371935370027    -2.033807255543     3.065477203376     1.007825032070
           H          4.009935370027    -1.039807255543     0.064477203376     1.007825032070

  Running in c1 symmetry.

  Rotational constants: A =      0.06384  B =      0.01858  C =      0.01478 [cm^-1]
  Rotational constants: A =   1913.89983  B =    557.09068  C =    443.01747 [MHz]
  Nuclear repulsion =  717.836800826371245

  Charge       = 0
  Multiplicity = 1
  Electrons    = 90
  Nalpha       = 45
  Nbeta        = 45

  ==> Algorithm <==

  SCF Algorithm Type is DF.
  DIIS enabled.
  MOM disabled.
  Fractional occupation disabled.
  Guess Type is SAD.
  Energy threshold   = 1.00e-10
  Density threshold  = 1.00e-10
  Integral threshold = 0.00e+00

  ==> Primary Basis <==

  Basis Set: AUG-CC-PVTZ
    Blend: AUG-CC-PVTZ
    Number of shells: 254
    Number of basis function: 782
    Number of Cartesian functions: 915
    Spherical Harmonics?: true
    Max angular momentum: 3

   => Loading Basis Set <=

    Name: (AUG-CC-PVTZ AUX)
    Role: JKFIT
    Keyword: DF_BASIS_SCF
    atoms 1-11  entry C          line   161 file /cbio/jclab/home/chayas/anaconda/envs/py35/share/psi4/basis/aug-cc-pvtz-jkfit.gbs 
    atoms 12    entry N          line   223 file /cbio/jclab/home/chayas/anaconda/envs/py35/share/psi4/basis/aug-cc-pvtz-jkfit.gbs 
    atoms 13    entry F          line   347 file /cbio/jclab/home/chayas/anaconda/envs/py35/share/psi4/basis/aug-cc-pvtz-jkfit.gbs 
    atoms 14-21 entry H          line    69 file /cbio/jclab/home/chayas/anaconda/envs/py35/share/psi4/basis/aug-cc-pvtz-jkfit.gbs 

  ==> Pre-Iterations <==

   -------------------------------------------------------
    Irrep   Nso     Nmo     Nalpha   Nbeta   Ndocc  Nsocc
   -------------------------------------------------------
     A        782     782       0       0       0       0
   -------------------------------------------------------
    Total     782     782      45      45      45       0
   -------------------------------------------------------

  ==> Integral Setup <==

  ==> DFJK: Density-Fitted J/K Matrices <==

    J tasked:                  Yes
    K tasked:                  Yes
    wK tasked:                  No
    OpenMP threads:              8
    Integrals threads:           8
    Memory (MB):              3576
    Algorithm:                Disk
    Integral Cache:           NONE
    Schwarz Cutoff:          1E-12
    Fitting Condition:       1E-12

   => Auxiliary Basis Set <=

  Basis Set: (AUG-CC-PVTZ AUX)
    Blend: AUG-CC-PVTZ-JKFIT
    Number of shells: 502
    Number of basis function: 1720
    Number of Cartesian functions: 2143
    Spherical Harmonics?: true
    Max angular momentum: 4

  Minimum eigenvalue in the overlap matrix is 6.3709915421E-07.
  Using Symmetric Orthogonalization.

  SCF Guess: Superposition of Atomic Densities via on-the-fly atomic UHF.

  ==> Iterations <==

                           Total Energy        Delta E     RMS |[F,P]|

   @DF-RHF iter   0:  -580.57684049950444   -5.80577e+02   1.46855e-02 
   @DF-RHF iter   1:  -574.92699273168660    5.64985e+00   1.94693e-03 
   @DF-RHF iter   2:  -575.22004529606806   -2.93053e-01   8.52934e-04 DIIS
   @DF-RHF iter   3:  -575.26415778261912   -4.41125e-02   4.25543e-04 DIIS
   @DF-RHF iter   4:  -575.27794655089087   -1.37888e-02   1.05350e-04 DIIS
   @DF-RHF iter   5:  -575.27904871620819   -1.10217e-03   4.34990e-05 DIIS
   @DF-RHF iter   6:  -575.27927541987037   -2.26704e-04   1.53126e-05 DIIS
   @DF-RHF iter   7:  -575.27931244441493   -3.70245e-05   5.81225e-06 DIIS
   @DF-RHF iter   8:  -575.27931648076287   -4.03635e-06   1.82219e-06 DIIS
   @DF-RHF iter   9:  -575.27931728469241   -8.03930e-07   9.14921e-07 DIIS
   @DF-RHF iter  10:  -575.27931751728840   -2.32596e-07   4.58424e-07 DIIS
   @DF-RHF iter  11:  -575.27931757992576   -6.26374e-08   1.39660e-07 DIIS
   @DF-RHF iter  12:  -575.27931758700242   -7.07666e-09   4.54073e-08 DIIS
   @DF-RHF iter  13:  -575.27931758753357   -5.31145e-10   1.30465e-08 DIIS
   @DF-RHF iter  14:  -575.27931758758473   -5.11591e-11   5.64162e-09 DIIS
   @DF-RHF iter  15:  -575.27931758760451   -1.97815e-11   2.58967e-09 DIIS
   @DF-RHF iter  16:  -575.27931758760462   -1.13687e-13   1.64331e-09 DIIS
   @DF-RHF iter  17:  -575.27931758762099   -1.63709e-11   1.20099e-09 DIIS
   @DF-RHF iter  18:  -575.27931758760883    1.21645e-11   4.17513e-10 DIIS
   @DF-RHF iter  19:  -575.27931758760678    2.04636e-12   1.68048e-10 DIIS
   @DF-RHF iter  20:  -575.27931758761940   -1.26192e-11   5.51952e-11 DIIS

  ==> Post-Iterations <==

    Orbital Energies (a.u.)
    -----------------------

    Doubly Occupied:                                                      

       1A    -26.326486     2A    -15.564388     3A    -11.343470  
       4A    -11.274352     5A    -11.272470     6A    -11.266101  
       7A    -11.262407     8A    -11.259664     9A    -11.259460  
      10A    -11.257004    11A    -11.251758    12A    -11.240115  
      13A    -11.235027    14A     -1.647719    15A     -1.249299  
      16A     -1.184880    17A     -1.114145    18A     -1.039214  
      19A     -1.031942    20A     -1.026123    21A     -0.893013  
      22A     -0.876096    23A     -0.843396    24A     -0.824236  
      25A     -0.759100    26A     -0.725745    27A     -0.720972  
      28A     -0.712788    29A     -0.670379    30A     -0.660424  
      31A     -0.651505    32A     -0.625770    33A     -0.610549  
      34A     -0.596193    35A     -0.586889    36A     -0.550217  
      37A     -0.540828    38A     -0.522414    39A     -0.516916  
      40A     -0.505614    41A     -0.418481    42A     -0.410564  
      43A     -0.354057    44A     -0.348473    45A     -0.326711  

    Virtual:                                                              

      46A      0.023358    47A      0.029202    48A      0.033856  
      49A      0.039386    50A      0.043659    51A      0.046312  
      52A      0.056056    53A      0.057345    54A      0.064691  
      55A      0.078938    56A      0.082733    57A      0.086142  
      58A      0.091012    59A      0.094147    60A      0.099847  
      61A      0.104174    62A      0.107218    63A      0.108481  
      64A      0.114358    65A      0.115436    66A      0.117137  
      67A      0.118734    68A      0.121503    69A      0.130916  
      70A      0.131650    71A      0.134029    72A      0.137735  
      73A      0.139631    74A      0.142236    75A      0.146649  
      76A      0.149584    77A      0.151577    78A      0.154791  
      79A      0.162795    80A      0.168130    81A      0.174779  
      82A      0.175560    83A      0.180033    84A      0.184150  
      85A      0.188297    86A      0.199571    87A      0.204579  
      88A      0.215826    89A      0.223827    90A      0.223980  
      91A      0.227427    92A      0.228625    93A      0.231159  
      94A      0.240055    95A      0.242377    96A      0.246543  
      97A      0.250153    98A      0.253232    99A      0.259739  
     100A      0.264838   101A      0.266789   102A      0.268539  
     103A      0.275569   104A      0.283985   105A      0.284820  
     106A      0.289564   107A      0.292289   108A      0.297128  
     109A      0.298565   110A      0.303098   111A      0.310510  
     112A      0.313550   113A      0.315141   114A      0.318256  
     115A      0.322629   116A      0.327885   117A      0.336108  
     118A      0.337783   119A      0.340612   120A      0.346216  
     121A      0.351585   122A      0.355919   123A      0.363672  
     124A      0.367163   125A      0.377784   126A      0.380279  
     127A      0.382208   128A      0.388402   129A      0.395605  
     130A      0.403370   131A      0.411834   132A      0.412544  
     133A      0.417563   134A      0.421540   135A      0.429851  
     136A      0.432100   137A      0.434332   138A      0.436899  
     139A      0.439706   140A      0.446656   141A      0.447030  
     142A      0.452978   143A      0.456804   144A      0.460340  
     145A      0.466537   146A      0.468649   147A      0.473424  
     148A      0.475845   149A      0.477312   150A      0.484839  
     151A      0.488435   152A      0.493787   153A      0.495342  
     154A      0.499611   155A      0.503237   156A      0.505623  
     157A      0.507638   158A      0.508390   159A      0.511774  
     160A      0.520092   161A      0.522404   162A      0.524485  
     163A      0.528336   164A      0.532324   165A      0.534560  
     166A      0.537829   167A      0.540762   168A      0.543765  
     169A      0.547055   170A      0.552103   171A      0.559083  
     172A      0.560348   173A      0.573093   174A      0.574943  
     175A      0.579946   176A      0.586368   177A      0.590790  
     178A      0.601806   179A      0.608432   180A      0.609337  
     181A      0.617747   182A      0.626522   183A      0.630334  
     184A      0.637178   185A      0.646646   186A      0.648729  
     187A      0.651991   188A      0.665698   189A      0.676485  
     190A      0.681748   191A      0.687359   192A      0.692288  
     193A      0.699924   194A      0.704559   195A      0.706819  
     196A      0.707229   197A      0.717760   198A      0.723998  
     199A      0.726388   200A      0.739928   201A      0.741092  
     202A      0.743543   203A      0.744140   204A      0.750023  
     205A      0.754107   206A      0.769401   207A      0.772950  
     208A      0.777745   209A      0.779494   210A      0.791016  
     211A      0.803486   212A      0.803865   213A      0.809368  
     214A      0.819322   215A      0.823528   216A      0.833643  
     217A      0.842537   218A      0.851544   219A      0.856167  
     220A      0.857570   221A      0.862853   222A      0.871572  
     223A      0.872630   224A      0.877977   225A      0.882913  
     226A      0.884251   227A      0.887483   228A      0.888382  
     229A      0.894065   230A      0.907011   231A      0.907456  
     232A      0.913736   233A      0.915114   234A      0.919495  
     235A      0.922965   236A      0.930088   237A      0.937617  
     238A      0.943249   239A      0.947948   240A      0.954428  
     241A      0.958941   242A      0.966269   243A      0.970202  
     244A      0.974058   245A      0.978421   246A      0.985273  
     247A      0.988843   248A      0.990795   249A      0.994084  
     250A      1.001075   251A      1.007148   252A      1.011300  
     253A      1.013612   254A      1.017555   255A      1.024194  
     256A      1.026726   257A      1.028114   258A      1.037992  
     259A      1.044691   260A      1.046003   261A      1.050094  
     262A      1.061865   263A      1.067164   264A      1.068840  
     265A      1.070061   266A      1.075535   267A      1.078173  
     268A      1.085467   269A      1.088291   270A      1.088374  
     271A      1.095993   272A      1.099246   273A      1.107318  
     274A      1.110346   275A      1.118524   276A      1.124072  
     277A      1.126951   278A      1.136174   279A      1.136663  
     280A      1.146059   281A      1.146787   282A      1.158994  
     283A      1.168133   284A      1.173991   285A      1.174881  
     286A      1.179144   287A      1.186428   288A      1.188195  
     289A      1.189133   290A      1.198120   291A      1.202982  
     292A      1.203369   293A      1.207257   294A      1.211334  
     295A      1.216175   296A      1.220495   297A      1.229259  
     298A      1.235639   299A      1.237675   300A      1.249106  
     301A      1.262700   302A      1.263494   303A      1.268516  
     304A      1.274111   305A      1.282654   306A      1.286789  
     307A      1.293155   308A      1.296562   309A      1.300362  
     310A      1.313334   311A      1.318049   312A      1.323363  
     313A      1.330950   314A      1.337304   315A      1.352666  
     316A      1.361688   317A      1.364626   318A      1.368252  
     319A      1.376647   320A      1.390563   321A      1.393851  
     322A      1.403777   323A      1.410367   324A      1.418109  
     325A      1.422524   326A      1.426899   327A      1.435017  
     328A      1.438159   329A      1.451102   330A      1.474396  
     331A      1.477626   332A      1.493335   333A      1.495700  
     334A      1.498821   335A      1.512805   336A      1.514322  
     337A      1.525625   338A      1.527083   339A      1.543592  
     340A      1.546151   341A      1.555177   342A      1.560548  
     343A      1.578431   344A      1.582173   345A      1.592921  
     346A      1.598314   347A      1.603394   348A      1.617647  
     349A      1.625960   350A      1.637132   351A      1.645888  
     352A      1.653860   353A      1.658295   354A      1.665346  
     355A      1.672843   356A      1.678972   357A      1.689292  
     358A      1.698626   359A      1.709681   360A      1.710186  
     361A      1.716639   362A      1.725013   363A      1.733398  
     364A      1.735486   365A      1.738209   366A      1.747497  
     367A      1.755553   368A      1.776511   369A      1.777803  
     370A      1.784728   371A      1.794002   372A      1.798514  
     373A      1.807631   374A      1.817454   375A      1.825368  
     376A      1.830549   377A      1.833292   378A      1.844174  
     379A      1.859912   380A      1.865012   381A      1.871044  
     382A      1.880146   383A      1.895900   384A      1.899758  
     385A      1.919040   386A      1.922933   387A      1.933815  
     388A      1.941273   389A      1.945117   390A      1.954129  
     391A      1.966459   392A      1.968714   393A      1.977320  
     394A      1.986555   395A      1.989479   396A      1.995798  
     397A      2.001507   398A      2.015144   399A      2.018315  
     400A      2.024998   401A      2.027962   402A      2.035605  
     403A      2.045259   404A      2.046665   405A      2.054926  
     406A      2.065785   407A      2.073148   408A      2.081662  
     409A      2.087751   410A      2.089942   411A      2.098710  
     412A      2.112584   413A      2.116451   414A      2.126545  
     415A      2.130609   416A      2.133766   417A      2.144697  
     418A      2.161239   419A      2.163322   420A      2.171153  
     421A      2.181323   422A      2.190182   423A      2.199785  
     424A      2.210125   425A      2.214871   426A      2.231427  
     427A      2.237615   428A      2.243131   429A      2.249987  
     430A      2.258304   431A      2.274854   432A      2.288091  
     433A      2.294807   434A      2.306010   435A      2.312731  
     436A      2.327616   437A      2.331524   438A      2.339807  
     439A      2.354608   440A      2.365514   441A      2.368701  
     442A      2.380505   443A      2.388203   444A      2.401784  
     445A      2.408021   446A      2.418798   447A      2.427810  
     448A      2.442820   449A      2.465346   450A      2.478289  
     451A      2.482378   452A      2.507432   453A      2.516196  
     454A      2.529083   455A      2.531668   456A      2.544768  
     457A      2.561823   458A      2.566562   459A      2.586491  
     460A      2.594257   461A      2.614540   462A      2.624962  
     463A      2.629188   464A      2.652983   465A      2.665507  
     466A      2.696619   467A      2.705944   468A      2.731617  
     469A      2.753996   470A      2.760662   471A      2.786020  
     472A      2.796657   473A      2.818034   474A      2.831098  
     475A      2.849312   476A      2.867910   477A      2.892349  
     478A      2.904491   479A      2.945352   480A      2.981047  
     481A      3.000063   482A      3.022302   483A      3.035281  
     484A      3.054861   485A      3.065743   486A      3.088640  
     487A      3.110044   488A      3.133584   489A      3.138770  
     490A      3.161706   491A      3.172497   492A      3.176896  
     493A      3.179139   494A      3.205499   495A      3.215732  
     496A      3.236310   497A      3.248604   498A      3.256467  
     499A      3.282364   500A      3.300289   501A      3.305598  
     502A      3.322384   503A      3.330576   504A      3.336738  
     505A      3.345013   506A      3.357615   507A      3.362737  
     508A      3.376040   509A      3.394380   510A      3.401324  
     511A      3.414116   512A      3.422959   513A      3.435316  
     514A      3.443577   515A      3.452856   516A      3.455020  
     517A      3.465050   518A      3.468870   519A      3.488541  
     520A      3.493190   521A      3.503036   522A      3.506122  
     523A      3.507197   524A      3.515143   525A      3.529236  
     526A      3.537432   527A      3.552327   528A      3.562262  
     529A      3.565315   530A      3.575408   531A      3.576333  
     532A      3.577872   533A      3.585697   534A      3.599751  
     535A      3.612214   536A      3.633107   537A      3.640243  
     538A      3.649447   539A      3.656355   540A      3.668111  
     541A      3.675473   542A      3.680913   543A      3.692814  
     544A      3.706316   545A      3.709424   546A      3.718672  
     547A      3.728699   548A      3.740493   549A      3.746924  
     550A      3.765466   551A      3.769663   552A      3.778686  
     553A      3.792037   554A      3.799272   555A      3.801802  
     556A      3.815718   557A      3.818156   558A      3.827645  
     559A      3.841983   560A      3.851200   561A      3.858329  
     562A      3.863028   563A      3.866475   564A      3.878975  
     565A      3.885156   566A      3.888464   567A      3.899381  
     568A      3.906267   569A      3.919496   570A      3.927482  
     571A      3.933915   572A      3.942698   573A      3.949866  
     574A      3.968371   575A      3.970495   576A      3.978779  
     577A      3.984787   578A      3.999756   579A      4.003937  
     580A      4.012456   581A      4.017238   582A      4.026716  
     583A      4.033660   584A      4.043686   585A      4.046213  
     586A      4.052678   587A      4.069757   588A      4.079109  
     589A      4.091672   590A      4.101737   591A      4.107886  
     592A      4.123693   593A      4.135051   594A      4.140251  
     595A      4.142943   596A      4.155227   597A      4.160655  
     598A      4.178389   599A      4.193319   600A      4.202884  
     601A      4.207550   602A      4.220323   603A      4.225639  
     604A      4.239952   605A      4.250367   606A      4.258585  
     607A      4.267061   608A      4.280399   609A      4.289919  
     610A      4.295136   611A      4.310517   612A      4.316173  
     613A      4.333253   614A      4.339809   615A      4.344574  
     616A      4.355824   617A      4.363490   618A      4.365750  
     619A      4.379382   620A      4.384043   621A      4.393057  
     622A      4.405406   623A      4.416253   624A      4.420556  
     625A      4.430853   626A      4.433341   627A      4.459522  
     628A      4.463787   629A      4.474901   630A      4.489489  
     631A      4.495782   632A      4.502169   633A      4.505414  
     634A      4.511344   635A      4.521788   636A      4.547111  
     637A      4.563158   638A      4.590211   639A      4.596573  
     640A      4.609935   641A      4.618145   642A      4.642040  
     643A      4.648569   644A      4.675244   645A      4.679446  
     646A      4.691025   647A      4.708930   648A      4.720104  
     649A      4.727305   650A      4.737218   651A      4.747347  
     652A      4.762615   653A      4.786590   654A      4.796214  
     655A      4.804824   656A      4.812766   657A      4.859437  
     658A      4.872130   659A      4.873770   660A      4.896803  
     661A      4.903188   662A      4.924619   663A      4.937877  
     664A      4.953920   665A      4.965932   666A      4.974717  
     667A      4.996295   668A      4.999686   669A      5.009914  
     670A      5.025143   671A      5.032385   672A      5.045950  
     673A      5.051940   674A      5.073600   675A      5.076998  
     676A      5.100544   677A      5.116889   678A      5.124595  
     679A      5.126962   680A      5.133432   681A      5.143481  
     682A      5.163247   683A      5.171136   684A      5.186223  
     685A      5.193529   686A      5.205017   687A      5.210999  
     688A      5.220207   689A      5.236123   690A      5.249813  
     691A      5.255688   692A      5.295737   693A      5.305857  
     694A      5.318182   695A      5.337473   696A      5.355676  
     697A      5.370432   698A      5.379524   699A      5.395900  
     700A      5.404888   701A      5.420174   702A      5.449489  
     703A      5.458829   704A      5.474419   705A      5.529842  
     706A      5.542226   707A      5.562443   708A      5.569386  
     709A      5.576034   710A      5.603352   711A      5.666418  
     712A      5.679103   713A      5.689936   714A      5.695565  
     715A      5.705498   716A      5.756605   717A      5.782932  
     718A      5.801481   719A      5.832082   720A      5.837770  
     721A      5.852977   722A      5.862809   723A      5.885171  
     724A      5.909173   725A      5.964780   726A      6.002087  
     727A      6.053615   728A      6.084424   729A      6.139406  
     730A      6.186910   731A      6.193876   732A      6.203858  
     733A      6.229970   734A      6.259459   735A      6.287385  
     736A      6.341572   737A      6.372567   738A      6.415215  
     739A      6.474560   740A      6.486601   741A      6.495362  
     742A      6.556514   743A      6.603779   744A      6.673352  
     745A      6.712663   746A      6.714625   747A      6.734664  
     748A      6.819974   749A      6.886976   750A      6.947190  
     751A      6.985030   752A      7.012082   753A      7.070778  
     754A      7.090608   755A      7.301663   756A      7.439901  
     757A      7.484992   758A      9.103361   759A      9.128284  
     760A      9.275426   761A      9.292664   762A      9.425713  
     763A      9.525951   764A      9.560513   765A      9.630193  
     766A      9.669008   767A      9.733687   768A     10.042962  
     769A     10.108271   770A     15.582597   771A     16.245751  
     772A     16.543369   773A     16.700322   774A     16.775312  
     775A     18.451448   776A     18.793069   777A     19.122029  
     778A     19.364642   779A     20.023569   780A     20.195820  
     781A     20.568155   782A     21.726669  

    Final Occupation by Irrep:
              A 
    DOCC [    45 ]

  Energy converged.

  @DF-RHF Final Energy:  -575.27931758761940

   => Energetics <=

    Nuclear Repulsion Energy =            717.8368008263712454
    One-Electron Energy =               -2207.5175234044872923
    Two-Electron Energy =                 914.4014049904966441
    DFT Exchange-Correlation Energy =       0.0000000000000000
    Empirical Dispersion Energy =           0.0000000000000000
    PCM Polarization Energy =               0.0000000000000000
    EFP Energy =                            0.0000000000000000
    Total Energy =                       -575.2793175876194027



Properties will be evaluated at   0.000000,   0.000000,   0.000000 Bohr

Properties computed using the SCF density matrix

  Nuclear Dipole Moment: (a.u.)
     X:     1.0832      Y:    -0.4037      Z:    -6.2060

  Electronic Dipole Moment: (a.u.)
     X:    -1.9366      Y:     0.8965      Z:     5.0620

  Dipole Moment: (a.u.)
     X:    -0.8534      Y:     0.4927      Z:    -1.1440     Total:     1.5099

  Dipole Moment: (Debye)
     X:    -2.1692      Y:     1.2524      Z:    -2.9077     Total:     3.8378


*** tstop() called on gpu-1-15.local at Sat Nov 11 18:19:48 2017
Module time:
	user time   =     974.86 seconds =      16.25 minutes
	system time =      47.44 seconds =       0.79 minutes
	total time  =        410 seconds =       6.83 minutes
Total time:
	user time   =     974.87 seconds =      16.25 minutes
	system time =      47.44 seconds =       0.79 minutes
	total time  =        410 seconds =       6.83 minutes

  //>>>>>>>>>>>>>>>>>>>>>>>>>>>>>>>>>>>//
  //               DFMP2               //
  //<<<<<<<<<<<<<<<<<<<<<<<<<<<<<<<<<<<//

   => Loading Basis Set <=

    Name: (AUG-CC-PVTZ AUX)
    Role: RIFIT
    Keyword: DF_BASIS_MP2
    atoms 1-11  entry C          line   147 file /cbio/jclab/home/chayas/anaconda/envs/py35/share/psi4/basis/aug-cc-pvtz-ri.gbs 
    atoms 12    entry N          line   205 file /cbio/jclab/home/chayas/anaconda/envs/py35/share/psi4/basis/aug-cc-pvtz-ri.gbs 
    atoms 13    entry F          line   321 file /cbio/jclab/home/chayas/anaconda/envs/py35/share/psi4/basis/aug-cc-pvtz-ri.gbs 
    atoms 14-21 entry H          line    29 file /cbio/jclab/home/chayas/anaconda/envs/py35/share/psi4/basis/aug-cc-pvtz-ri.gbs 

	 --------------------------------------------------------
	                          DF-MP2                         
	      2nd-Order Density-Fitted Moller-Plesset Theory     
	              RMP2 Wavefunction,   8 Threads             
	                                                         
	        Rob Parrish, Justin Turney, Andy Simmonett,      
	           Ed Hohenstein, and C. David Sherrill          
	 --------------------------------------------------------

   => Auxiliary Basis Set <=

  Basis Set: (AUG-CC-PVTZ AUX)
    Blend: AUG-CC-PVTZ-RI
    Number of shells: 476
    Number of basis function: 1746
    Number of Cartesian functions: 2208
    Spherical Harmonics?: true
    Max angular momentum: 4

	 --------------------------------------------------------
	                 NBF =   782, NAUX =  1746
	 --------------------------------------------------------
	   CLASS    FOCC     OCC    AOCC    AVIR     VIR    FVIR
	   PAIRS       0      45      45     737     737       0
	 --------------------------------------------------------


         ------------------------------------------------------------
                                     CPHF                           
                                  Rob Parrish                       
         ------------------------------------------------------------

  ==> Geometry <==

    Molecular point group: c1
    Full point group: C1

    Geometry (in Angstrom), charge = 0, multiplicity = 1:

       Center              X                  Y                   Z               Mass       
    ------------   -----------------  -----------------  -----------------  -----------------
           C         -1.369064629973     0.841192744457    -2.662522796624    12.000000000000
           C         -2.447064629973     1.414192744457    -1.989522796624    12.000000000000
           C         -0.333064629973     0.246192744457    -1.942522796624    12.000000000000
           C         -2.490064629973     1.393192744457    -0.595522796624    12.000000000000
           C          0.449935370027    -0.980807255543     1.429477203376    12.000000000000
           C          1.990935370027    -0.401807255543    -0.324522796624    12.000000000000
           C          1.514935370027    -1.559807255543     2.100477203376    12.000000000000
           C          2.986935370027    -1.006807255543     0.424477203376    12.000000000000
           C         -0.376064629973     0.225192744457    -0.548522796624    12.000000000000
           C          0.700935370027    -0.392807255543     0.194477203376    12.000000000000
           C         -1.454064629973     0.798192744457     0.125477203376    12.000000000000
           N          2.781935370027    -1.588807255543     1.628477203376    14.003074004780
           F         -1.510064629973     0.788192744457     1.465477203376    18.998403224000
           H         -1.336064629973     0.857192744457    -3.748522796624     1.007825032070
           H         -3.254064629973     1.877192744457    -2.550522796624     1.007825032070
           H          0.500935370027    -0.195807255543    -2.482522796624     1.007825032070
           H         -3.330064629973     1.839192744457    -0.070522796624     1.007825032070
           H         -0.543064629973    -0.993807255543     1.866477203376     1.007825032070
           H          2.224935370027     0.047192744457    -1.284522796624     1.007825032070
           H          1.371935370027    -2.033807255543     3.065477203376     1.007825032070
           H          4.009935370027    -1.039807255543     0.064477203376     1.007825032070

  Nuclear repulsion =  717.836800826371245
  Reference energy  = -575.279317587619403

  ==> Basis Set <==

  Basis Set: AUG-CC-PVTZ
    Blend: AUG-CC-PVTZ
    Number of shells: 254
    Number of basis function: 782
    Number of Cartesian functions: 915
    Spherical Harmonics?: true
    Max angular momentum: 3

  ==> CGRSolver (by Rob Parrish) <==

   Number of roots    =         1
   Preconditioning    =    JACOBI
   Convergence cutoff =     1E-06
   Maximum iterations =       100

  ==> CPHFRHamiltonian (by Rob Parrish) <== 

  ==> DFJK: Density-Fitted J/K Matrices <==

    J tasked:                  Yes
    K tasked:                  Yes
    wK tasked:                  No
    OpenMP threads:              8
    Integrals threads:           8
    Memory (MB):              3576
    Algorithm:                Disk
    Integral Cache:           NONE
    Schwarz Cutoff:          1E-12
    Fitting Condition:       1E-12

   => Auxiliary Basis Set <=

  Basis Set: (AUG-CC-PVTZ AUX)
    Blend: AUG-CC-PVTZ-JKFIT
    Number of shells: 502
    Number of basis function: 1720
    Number of Cartesian functions: 2143
    Spherical Harmonics?: true
    Max angular momentum: 4

  ==> CPHF Iterations <==

  => Iterations <=

             Iter  Converged  Remaining    Residual
  CGR           1          0          1   9.782E-02
  CGR           2          0          1   2.986E-02
  CGR           3          0          1   1.971E-02
  CGR           4          0          1   9.702E-03
  CGR           5          0          1   3.858E-03
  CGR           6          0          1   1.471E-03
  CGR           7          0          1   4.559E-04
  CGR           8          0          1   1.830E-04
  CGR           9          0          1   9.164E-05
  CGR          10          0          1   3.934E-05
  CGR          11          0          1   1.516E-05
  CGR          12          0          1   4.974E-06
  CGR          13          0          1   1.625E-06
  CGR          14          1          0   5.626E-07

    CGRSolver converged.

  ==> DFCorrGrad: Density-Fitted Correlated Gradients <==

    OpenMP threads:              8
    Integrals threads:           8
    Memory (MB):              3576
    Schwarz Cutoff:          0E+00
    Fitting Condition:       1E-12

   => Auxiliary Basis Set <=

  Basis Set: (AUG-CC-PVTZ AUX)
    Blend: AUG-CC-PVTZ-JKFIT
    Number of shells: 502
    Number of basis function: 1720
    Number of Cartesian functions: 2143
    Spherical Harmonics?: true
    Max angular momentum: 4

	-----------------------------------------------------------
	 ==================> DF-MP2 Energies <==================== 
	-----------------------------------------------------------
	 Reference Energy          =    -575.2793175876194027 [Eh]
	 Singles Energy            =      -0.0000000000000008 [Eh]
	 Same-Spin Energy          =      -0.6090942623731661 [Eh]
	 Opposite-Spin Energy      =      -1.8334998926407700 [Eh]
	 Correlation Energy        =      -2.4425941550139370 [Eh]
	 Total Energy              =    -577.7219117426333241 [Eh]
	-----------------------------------------------------------
	 ================> DF-SCS-MP2 Energies <================== 
	-----------------------------------------------------------
	 SCS Same-Spin Scale       =       0.3333333333333333 [-]
	 SCS Opposite-Spin Scale   =       1.2000000000000000 [-]
	 SCS Same-Spin Energy      =      -0.2030314207910554 [Eh]
	 SCS Opposite-Spin Energy  =      -2.2001998711689237 [Eh]
	 SCS Correlation Energy    =      -2.4032312919599801 [Eh]
	 SCS Total Energy          =    -577.6825488795793717 [Eh]
	-----------------------------------------------------------


  -Total Gradient:
     Atom            X                  Y                   Z
    ------   -----------------  -----------------  -----------------
       1       -0.002574172881     0.000901133167     0.000617131270
       2       -0.003515538057     0.001848781468    -0.002273015021
       3        0.013493677316    -0.009538673167     0.007299751476
       4        0.000573617951    -0.000243260196    -0.004972104266
       5       -0.008898967266     0.005999799326    -0.005395596454
       6       -0.004443416776     0.005640860879    -0.006613219518
       7       -0.013809389239     0.003046817771     0.002107176840
       8       -0.002731914705     0.007089415266    -0.011074478622
       9       -0.002563700250     0.002000356012    -0.004202519435
      10        0.003062529170    -0.002282086543     0.000632745796
      11        0.012402310209    -0.005386166375     0.026622816928
      12        0.012296969493    -0.007938980300     0.008619208239
      13        0.003525543877    -0.006770293413     0.002163631518
      14        0.000318871835     0.000263915379    -0.005342944986
      15       -0.003448720186     0.002199674403    -0.003829653014
      16        0.005000413914    -0.000547356225    -0.005803809497
      17       -0.005001103643     0.002480754407     0.000895791520
      18       -0.008329918226     0.002555958068     0.003931144033
      19        0.001282784179     0.000552990396    -0.005511773888
      20        0.000513588828    -0.001311872603     0.002418482250
      21        0.002846534462    -0.000561767719    -0.000288765169


*** tstop() called on gpu-1-15.local at Sat Nov 11 18:48:00 2017
Module time:
	user time   =    4568.89 seconds =      76.15 minutes
	system time =     102.77 seconds =       1.71 minutes
	total time  =       2102 seconds =      35.03 minutes
Total time:
	user time   =    4568.90 seconds =      76.15 minutes
	system time =     102.77 seconds =       1.71 minutes
	total time  =       2102 seconds =      35.03 minutes

			-----------------------------------------
			 OPTKING 2.0: for geometry optimizations 
			  - R.A. King,  Bethel University        
			-----------------------------------------

	Internal coordinates to be generated automatically.
	Detected frag 1 with atoms:  1 2 3 4 5 6 7 8 9 10 11 12 13 14 15 16 17 18 19 20
	 21
	---Fragment 1 Bond Connectivity---
	 1 : 2 3 14
	 2 : 1 4 15
	 3 : 1 9 16
	 4 : 2 11 17
	 5 : 7 10 18
	 6 : 8 10 19
	 7 : 5 12 20
	 8 : 6 12 21
	 9 : 3 10 11
	 10 : 5 6 9
	 11 : 4 9 13
	 12 : 7 8
	 13 : 11
	 14 : 1
	 15 : 2
	 16 : 3
	 17 : 4
	 18 : 5
	 19 : 6
	 20 : 7
	 21 : 8

	Assuming in current code that numbering for constraints corresponds to unified fragment.
	Fixed dihedral atom list: 
	     3     9    10     5
	---Fragment 1 Geometry and Gradient---
	 C          -2.5871572089        1.5896239120       -5.0314389082
	 C          -4.6242819801        2.6724369861       -3.7596532208
	 C          -0.6294009352        0.4652368629       -3.6708360925
	 C          -4.7055402038        2.6327527373       -1.1253749915
	 C           0.8502546268       -1.8534571021        2.7013204276
	 C           3.7623225976       -0.7593056712       -0.6132592095
	 C           2.8628129584       -2.9476085331        3.9693266628
	 C           5.6444898260       -1.9025899816        0.8021456640
	 C          -0.7106591589        0.4255526141       -1.0365578633
	 C           1.3245758862       -0.7422981360        0.3675086535
	 C          -2.7477839302        1.5083656883        0.2371175503
	 N           5.2570959687       -3.0024105909        3.0773759280
	 F          -2.8536085936        1.4894684270        2.7693505684
	 H          -2.5247962465        1.6198595301       -7.0836814885
	 H          -6.1492909694        3.5473801857       -4.8197895813
	 H           0.9466306596       -0.3700220878       -4.6912882043
	 H          -6.2929101555        3.4755705926       -0.1332687717
	 H          -1.0262434231       -1.8780235419        3.5271307477
	 H           4.2045185127        0.0891813625       -2.4273962971
	 H           2.5925821214       -3.8433387201        5.7929123810
	 H           7.5776796599       -1.9649509440        0.1218442562
	            -0.0025741729        0.0009011332        0.0006171313
	            -0.0035155381        0.0018487815       -0.0022730150
	             0.0134936773       -0.0095386732        0.0072997515
	             0.0005736180       -0.0002432602       -0.0049721043
	            -0.0088989673        0.0059997993       -0.0053955965
	            -0.0044434168        0.0056408609       -0.0066132195
	            -0.0138093892        0.0030468178        0.0021071768
	            -0.0027319147        0.0070894153       -0.0110744786
	            -0.0025637002        0.0020003560       -0.0042025194
	             0.0030625292       -0.0022820865        0.0006327458
	             0.0124023102       -0.0053861664        0.0266228169
	             0.0122969695       -0.0079389803        0.0086192082
	             0.0035255439       -0.0067702934        0.0021636315
	             0.0003188718        0.0002639154       -0.0053429450
	            -0.0034487202        0.0021996744       -0.0038296530
	             0.0050004139       -0.0005473562       -0.0058038095
	            -0.0050011036        0.0024807544        0.0008957915
	            -0.0083299182        0.0025559581        0.0039311440
	             0.0012827842        0.0005529904       -0.0055117739
	             0.0005135888       -0.0013118726        0.0024184822
	             0.0028465345       -0.0005617677       -0.0002887652

	Previous optimization step data not found.  Starting new optimization.

	---Fragment 1 Intrafragment Coordinates---
	 - Coordinate -           - BOHR/RAD -       - ANG/DEG -
	 R(1,2)           =         2.634350	       1.394038
	 R(1,3)           =         2.635962	       1.394891
	 R(1,14)          =         2.053412	       1.086619
	 R(2,4)           =         2.635830	       1.394821
	 R(2,15)          =         2.053063	       1.086434
	 R(3,9)           =         2.635830	       1.394821
	 R(3,16)          =         2.054959	       1.087437
	 R(4,11)          =         2.636938	       1.395407
	 R(4,17)          =         2.052891	       1.086343
	 R(5,7)           =         2.618282	       1.385535
	 R(5,10)          =         2.627990	       1.390672
	 R(5,18)          =         2.050320	       1.084982
	 R(6,8)           =         2.617828	       1.385295
	 R(6,10)          =         2.627699	       1.390519
	 R(6,19)          =         2.050990	       1.085337
	 R(7,12)          =         2.555615	       1.352373
	 R(7,20)          =         2.049591	       1.084597
	 R(8,12)          =         2.556629	       1.352910
	 R(8,21)          =         2.050347	       1.084997
	 R(9,10)          =         2.734494	       1.447032
	 R(9,11)          =         2.635263	       1.394521
	 R(11,13)         =         2.534514	       1.341207
	 B(1,2,4)         =         2.094553	     120.009056
	 B(1,2,15)        =         2.094721	     120.018646
	 B(1,3,9)         =         2.093692	     119.959722
	 B(1,3,16)        =         2.079074	     119.122177
	 B(2,1,3)         =         2.094940	     120.031219
	 B(2,1,14)        =         2.094311	     119.995189
	 B(2,4,11)        =         2.094306	     119.994870
	 B(2,4,17)        =         2.095140	     120.042665
	 B(3,1,14)        =         2.093934	     119.973570
	 B(3,9,10)        =         2.090528	     119.778448
	 B(3,9,11)        =         2.095181	     120.045019
	 B(4,2,15)        =         2.093912	     119.972298
	 B(4,11,9)        =         2.093699	     119.960108
	 B(4,11,13)       =         2.081063	     119.236128
	 B(5,7,12)        =         2.165265	     124.060523
	 B(5,7,20)        =         2.108509	     120.808671
	 B(5,10,6)        =         2.089973	     119.746634
	 B(5,10,9)        =         2.096972	     120.147664
	 B(6,8,12)        =         2.165302	     124.062650
	 B(6,8,21)        =         2.108057	     120.782775
	 B(6,10,9)        =         2.096240	     120.105683
	 B(7,5,10)        =         2.057862	     117.906830
	 B(7,5,18)        =         2.098356	     120.226931
	 B(7,12,8)        =         2.030113	     116.316926
	 B(8,6,10)        =         2.057855	     117.906426
	 B(8,6,19)        =         2.098905	     120.258412
	 B(9,3,16)        =         2.110419	     120.918077
	 B(9,11,13)       =         2.108422	     120.803676
	 B(10,5,18)       =         2.126967	     121.866237
	 B(10,6,19)       =         2.126425	     121.835161
	 B(10,9,11)       =         2.097476	     120.176533
	 B(11,4,17)       =         2.093740	     119.962450
	 B(12,7,20)       =         2.009407	     115.130538
	 B(12,8,21)       =         2.009826	     115.154558
	 D(1,2,4,11)      =        -0.000325	      -0.018609
	 D(1,2,4,17)      =        -3.141151	    -179.974682
	 D(1,3,9,10)      =        -3.141334	    -179.985190
	 D(1,3,9,11)      =         0.000325	       0.018608
	 D(2,1,3,9)       =        -0.000348	      -0.019945
	 D(2,1,3,16)      =        -3.140969	    -179.964243
	 D(2,4,11,9)      =         0.000301	       0.017261
	 D(2,4,11,13)     =         3.140029	     179.910408
	 D(3,1,2,4)       =         0.000348	       0.019955
	 D(3,1,2,15)      =        -3.141142	    -179.974167
	 D(3,9,10,5)      =        -2.618105	    -150.006384
	 D(3,9,10,6)      =         0.522609	      29.943269
	 D(3,9,11,4)      =        -0.000301	      -0.017270
	 D(3,9,11,13)     =        -3.139999	    -179.908714
	 D(4,2,1,14)      =         3.141002	     179.966134
	 D(4,11,9,10)     =         3.141358	     179.986543
	 D(5,7,12,8)      =         0.000693	       0.039684
	 D(5,10,6,8)      =         0.000096	       0.005511
	 D(5,10,6,19)     =        -3.141272	    -179.981610
	 D(5,10,9,11)     =         0.523421	      29.989814
	 D(6,8,12,7)      =        -0.000411	      -0.023565
	 D(6,10,5,7)      =         0.000156	       0.008926
	 D(6,10,5,18)     =        -3.141185	    -179.976667
	 D(6,10,9,11)     =        -2.619050	    -150.060534
	 D(7,5,10,9)      =         3.140873	     179.958760
	 D(7,12,8,21)     =         3.140356	     179.929144
	 D(8,6,10,9)      =        -3.140621	    -179.944344
	 D(8,12,7,20)     =         3.139009	     179.851951
	 D(9,3,1,14)      =        -3.141002	    -179.966136
	 D(9,10,5,18)     =        -0.000468	      -0.026833
	 D(9,10,6,19)     =         0.001196	       0.068535
	 D(9,11,4,17)     =         3.141128	     179.973370
	 D(10,5,7,12)     =        -0.000578	      -0.033135
	 D(10,5,7,20)     =        -3.138717	    -179.835247
	 D(10,6,8,12)     =         0.000034	       0.001974
	 D(10,6,8,21)     =        -3.140689	    -179.948200
	 D(10,9,3,16)     =        -0.000731	      -0.041910
	 D(10,9,11,13)    =         0.001660	       0.095099
	 D(11,4,2,15)     =         3.141165	     179.975516
	 D(11,9,3,16)     =         3.140927	     179.961888
	 D(12,7,5,18)     =         3.140767	     179.952704
	 D(12,8,6,19)     =         3.141406	     179.989306
	 D(13,11,4,17)    =        -0.002330	      -0.133484
	 D(14,1,2,15)     =        -0.000488	      -0.027988
	 D(14,1,3,16)     =         0.001563	       0.089566
	 D(15,2,4,17)     =         0.000339	       0.019443
	 D(18,5,7,20)     =         0.002628	       0.150593
	 D(19,6,8,21)     =         0.000683	       0.039132
	 R(5,13)          =         4.989828	       2.640503

	Current energy   :      -577.7219117426

	Generating empirical Hessian (Schlegel '84) for each fragment.
	Adding user-defined constraint: Fragment 1; Coordinate 67:
		Value =    -2.618105; Fixed value    =    -2.617994
		Force =     0.000056; Force constant =     0.500000
	Removing off-diagonal coupling between coordinate 67 and others.
	Taking RFO optimization step.
	Going to follow RFO solution 1.
	Using RFO vector 1.

	Determining step-restricting scale parameter for RS-RFO.
	Maximum step size allowed    0.10000

	 Iter      |step|        alpha        rfo_root  
	------------------------------------------------
	    0     0.32455       1.00000           1
	    1     0.21968       4.10063           1
	    2     0.15918      11.24016           1
	    3     0.12399      24.20182           1
	    4     0.10618      38.33252           1
	    5     0.10058      44.82153           1
	    6     0.10001      45.56299           1
	------------------------------------------------
	Norm of target step-size    0.10001
	Projected energy change by RFO approximation:        -0.0052525673

	Back-transformation to cartesian coordinates...
	Could not converge backtransformation.
	Using first guess instead.

	--- Internal Coordinate Step in ANG or DEG, aJ/ANG or AJ/DEG ---
	 ---------------------------------------------------------------------------
	   Coordinate                Previous        Force       Change         New 
	   ----------                --------       ------       ------       ------
	    1 R(1,2)          =      1.394038    -0.047091    -0.004485     1.389553
	    2 R(1,3)          =      1.394891    -0.060877    -0.005629     1.389262
	    3 R(1,14)         =      1.086619    -0.044108    -0.004912     1.081707
	    4 R(2,4)          =      1.394821    -0.073222    -0.006982     1.387839
	    5 R(2,15)         =      1.086434    -0.045120    -0.005003     1.081431
	    6 R(3,9)          =      1.394821    -0.005384    -0.000156     1.394665
	    7 R(3,16)         =      1.087437    -0.057175    -0.006375     1.081062
	    8 R(4,11)         =      1.395407    -0.112233    -0.010415     1.384992
	    9 R(4,17)         =      1.086343    -0.043815    -0.004767     1.081576
	   10 R(5,7)          =      1.385535     0.003468     0.000344     1.385879
	   11 R(5,10)         =      1.390672     0.015560     0.001993     1.392666
	   12 R(5,18)         =      1.084982    -0.075604    -0.008339     1.076644
	   13 R(6,8)          =      1.385295    -0.005897    -0.000581     1.384713
	   14 R(6,10)         =      1.390519     0.007463     0.001299     1.391818
	   15 R(6,19)         =      1.085337    -0.044327    -0.004890     1.080447
	   16 R(7,12)         =      1.352373    -0.123663    -0.010650     1.341724
	   17 R(7,20)         =      1.084597    -0.021896    -0.002424     1.082172
	   18 R(8,12)         =      1.352910    -0.131468    -0.011377     1.341532
	   19 R(8,21)         =      1.084997    -0.023040    -0.002541     1.082456
	   20 R(9,10)         =      1.447032     0.135670     0.014731     1.461763
	   21 R(9,11)         =      1.394521    -0.048486    -0.003901     1.390620
	   22 R(11,13)        =      1.341207    -0.020264    -0.001563     1.339644
	   23 B(1,2,4)        =    120.009056     0.000002    -0.022083   119.986973
	   24 B(1,2,15)       =    120.018646     0.000091     0.192744   120.211389
	   25 B(1,3,9)        =    119.959722     0.000396     0.731759   120.691480
	   26 B(1,3,16)       =    119.122177     0.000019     0.060220   119.182397
	   27 B(2,1,3)        =    120.031219    -0.000049    -0.071961   119.959258
	   28 B(2,1,14)       =    119.995189     0.000021     0.028680   120.023869
	   29 B(2,4,11)       =    119.994870    -0.000274    -0.484484   119.510386
	   30 B(2,4,17)       =    120.042665     0.000286     0.535172   120.577837
	   31 B(3,1,14)       =    119.973570     0.000028     0.043233   120.016803
	   32 B(3,9,10)       =    119.778448     0.000865     1.255214   121.033662
	   33 B(3,9,11)       =    120.045019    -0.001044    -1.680905   118.364114
	   34 B(4,2,15)       =    119.972298    -0.000093    -0.170661   119.801637
	   35 B(4,11,9)       =    119.960108     0.000969     1.527610   121.487719
	   36 B(4,11,13)      =    119.236128    -0.000170    -0.349726   118.886402
	   37 B(5,7,12)       =    124.060523     0.000131     0.167600   124.228123
	   38 B(5,7,20)       =    120.808671    -0.000134    -0.218365   120.590306
	   39 B(5,10,6)       =    119.746634    -0.001051    -1.593071   118.153563
	   40 B(5,10,9)       =    120.147664     0.000532     0.881713   121.029377
	   41 B(6,8,12)       =    124.062650     0.000008    -0.063604   123.999046
	   42 B(6,8,21)       =    120.782775    -0.000068    -0.094235   120.688540
	   43 B(6,10,9)       =    120.105683     0.000520     0.711345   120.817028
	   44 B(7,5,10)       =    117.906830     0.000307     0.602479   118.509309
	   45 B(7,5,18)       =    120.226931    -0.000239    -0.473130   119.753801
	   46 B(7,12,8)       =    116.316926     0.000110    -0.016641   116.300284
	   47 B(8,6,10)       =    117.906426     0.000495     0.903138   118.809564
	   48 B(8,6,19)       =    120.258412    -0.000210    -0.382309   119.876103
	   49 B(9,3,16)       =    120.918077    -0.000415    -0.792195   120.125882
	   50 B(9,11,13)      =    120.803676    -0.000800    -1.179176   119.624501
	   51 B(10,5,18)      =    121.866237    -0.000068    -0.130465   121.735772
	   52 B(10,6,19)      =    121.835161    -0.000285    -0.521196   121.313965
	   53 B(10,9,11)      =    120.176533     0.000180     0.425464   120.601997
	   54 B(11,4,17)      =    119.962450    -0.000012    -0.050675   119.911775
	   55 B(12,7,20)      =    115.130538     0.000003     0.050782   115.181319
	   56 B(12,8,21)      =    115.154558     0.000060     0.157733   115.312291
	   57 D(1,2,4,11)     =     -0.018609    -0.000004    -0.059234    -0.077843
	   58 D(1,2,4,17)     =   -179.974682    -0.000007    -0.117395  -180.092077
	   59 D(1,3,9,10)     =   -179.985190     0.000004     0.086133  -179.899057
	   60 D(1,3,9,11)     =      0.018608    -0.000004    -0.090318    -0.071710
	   61 D(2,1,3,9)      =     -0.019945     0.000004     0.074050     0.054105
	   62 D(2,1,3,16)     =   -179.964243    -0.000012    -0.159686  -180.123929
	   63 D(2,4,11,9)     =      0.017261     0.000004     0.042558     0.059819
	   64 D(2,4,11,13)    =    179.910408    -0.000019    -0.279489   179.630919
	   65 D(3,1,2,4)      =      0.019955    -0.000000     0.001818     0.021773
	   66 D(3,1,2,15)     =   -179.974167    -0.000001    -0.016185  -179.990352
	   67 D(3,9,10,5)     =   -150.006384     0.000021     0.187446  -149.818937
	   68 D(3,9,10,6)     =     29.943269     0.000027     0.304096    30.247365
	   69 D(3,9,11,4)     =     -0.017270    -0.000000     0.031943     0.014672
	   70 D(3,9,11,13)    =   -179.908714     0.000023     0.355393  -179.553321
	   71 D(4,2,1,14)     =    179.966134    -0.000004    -0.040552   179.925582
	   72 D(4,11,9,10)    =    179.986543    -0.000008    -0.143749   179.842794
	   73 D(5,7,12,8)     =      0.039684    -0.000007    -0.093418    -0.053734
	   74 D(5,10,6,8)     =      0.005511     0.000003     0.053209     0.058720
	   75 D(5,10,6,19)    =   -179.981610     0.000019     0.261284  -179.720326
	   76 D(5,10,9,11)    =     29.989814     0.000029     0.367758    30.357572
	   77 D(6,8,12,7)     =     -0.023565     0.000001     0.010815    -0.012751
	   78 D(6,10,5,7)     =      0.008926    -0.000009    -0.127184    -0.118258
	   79 D(6,10,5,18)    =   -179.976667     0.000019     0.244268  -179.732399
	   80 D(6,10,9,11)    =   -150.060534     0.000035     0.484408  -149.576126
	   81 D(7,5,10,9)     =    179.958760    -0.000002    -0.012436   179.946324
	   82 D(7,12,8,21)    =    179.929144    -0.000005    -0.069018   179.860125
	   83 D(8,6,10,9)     =   -179.944344    -0.000003    -0.061374  -180.005719
	   84 D(8,12,7,20)    =    179.851951    -0.000007    -0.087899   179.764052
	   85 D(9,3,1,14)     =   -179.966136     0.000008     0.116425  -179.849711
	   86 D(9,10,5,18)    =     -0.026833     0.000025     0.359017     0.332183
	   87 D(9,10,6,19)    =      0.068535     0.000013     0.146700     0.215235
	   88 D(9,11,4,17)    =    179.973370     0.000008     0.100588   180.073957
	   89 D(10,5,7,12)    =     -0.033135     0.000011     0.154234     0.121098
	   90 D(10,5,7,20)    =   -179.835247     0.000011     0.147902  -179.687344
	   91 D(10,6,8,12)    =      0.001974     0.000001     0.006485     0.008458
	   92 D(10,6,8,21)    =   -179.948200     0.000007     0.090292  -179.857908
	   93 D(10,9,3,16)    =     -0.041910     0.000021     0.322565     0.280655
	   94 D(10,9,11,13)   =      0.095099     0.000015     0.179701     0.274800
	   95 D(11,4,2,15)    =    179.975516    -0.000003    -0.041284   179.934232
	   96 D(11,9,3,16)    =    179.961888     0.000013     0.146114   180.108002
	   97 D(12,7,5,18)    =    179.952704    -0.000016    -0.209606   179.743098
	   98 D(12,8,6,19)    =    179.989306    -0.000014    -0.198547   179.790759
	   99 D(13,11,4,17)   =     -0.133484    -0.000015    -0.221459    -0.354943
	  100 D(14,1,2,15)    =     -0.027988    -0.000004    -0.058555    -0.086543
	  101 D(14,1,3,16)    =      0.089566    -0.000009    -0.117311    -0.027746
	  102 D(15,2,4,17)    =      0.019443    -0.000007    -0.099445    -0.080002
	  103 D(18,5,7,20)    =      0.150593    -0.000016    -0.215937    -0.065344
	  104 D(19,6,8,21)    =      0.039132    -0.000009    -0.114739    -0.075607
	  105 R(5,13)         =      2.640503     0.082108     0.019997     2.660500
	 ---------------------------------------------------------------------------
	Successfully symmetrized geometry.
	 Forces used to impose fixed constraints are not included.
	  Forces zeroed: 67 

  ==> Convergence Check <==

  Measures of convergence in internal coordinates in au.
  Criteria marked as inactive (o), active & met (*), and active & unmet ( ).
  --------------------------------------------------------------------------------------------- ~
   Step     Total Energy     Delta E     MAX Force     RMS Force      MAX Disp      RMS Disp    ~
  --------------------------------------------------------------------------------------------- ~
    Convergence Criteria    1.00e-06 *    3.00e-04 *             o    1.20e-03 *             o  ~
  --------------------------------------------------------------------------------------------- ~
      1    -577.72191174   -5.78e+02      1.65e-02      4.99e-03 o    3.78e-02      9.77e-03 o  ~
  ---------------------------------------------------------------------------------------------

	Writing optimization data to binary file.
	Structure for next step:
	Cartesian Geometry (in Angstrom)
	    C    -1.3912173610   0.8492806917  -2.6708491447
	    C    -2.4609292916   1.4228878644  -1.9944257182
	    C    -0.3579996604   0.2544204226  -1.9576510992
	    C    -2.4962114347   1.4015561038  -0.6071994648
	    C     0.4661490620  -0.9904978217   1.4321971110
	    C     2.0036533070  -0.4124905138  -0.3021088129
	    C     1.5321384613  -1.5659383751   2.1053952479
	    C     2.9987666697  -1.0129244262   0.4506593612
	    C    -0.3806577710   0.2240556251  -0.5635008599
	    C     0.7035101425  -0.3979094722   0.1944506840
	    C    -1.4607506229   0.8044998037   0.0924773958
	    N     2.7917118117  -1.5902823026   1.6437626539
	    F    -1.5038640418   0.7976041273   1.4314100727
	    H    -1.3636986018   0.8645053679  -3.7520985158
	    H    -3.2674651088   1.8868907249  -2.5455110769
	    H     0.4670822125  -0.1898281730  -2.4967044958
	    H    -3.3234367099   1.8464594311  -0.0709475793
	    H    -0.5177618607  -1.0158167982   1.8685909803
	    H     2.2460244851   0.0362023526  -1.2546299634
	    H     1.3849223608  -2.0400219551   3.0669924938
	    H     4.0206767225  -1.0396050436   0.0947120015
			--------------------------
			 OPTKING Finished Execution 
			--------------------------

    Structure for next step:
    Molecular point group: c1
    Full point group: C1

    Geometry (in Angstrom), charge = 0, multiplicity = 1:

    C           -1.391463083741     0.848361043621    -2.666435460568
    C           -2.461175014299     1.421968216342    -1.990012034013
    C           -0.358245383092     0.253500774502    -1.953237415034
    C           -2.496457157434     1.400636455668    -0.602785780655
    C            0.465903339247    -0.991417469819     1.436610795191
    C            2.003407584263    -0.413410161858    -0.297695128685
    C            1.531892738534    -1.566858023161     2.109808932027
    C            2.998520946961    -1.013844074323     0.455073045376
    C           -0.380903493722     0.223135977033    -0.559087175725
    C            0.703264419805    -0.398829120251     0.198864368127
    C           -1.460996345612     0.803580155570     0.096891079936
    N            2.791466088983    -1.591201950643     1.648176338090
    F           -1.504109764490     0.796684479244     1.435823756828
    H           -1.363944324506     0.863585719842    -3.747684831651
    H           -3.267710831507     1.885971076800    -2.541097392765
    H            0.466836489738    -0.190747821084    -2.492290811669
    H           -3.323682432586     1.845539782963    -0.066533895104
    H           -0.518007583437    -1.016736446325     1.873004664513
    H            2.245778762391     0.035282704540    -1.250216279271
    H            1.384676638104    -2.040941603231     3.071406177959
    H            4.020430999729    -1.040524691663     0.099125685625

gradient() will perform analytic gradient computation.

*** tstart() called on gpu-1-15.local
*** at Sat Nov 11 18:48:01 2017

    SCF Algorithm Type (re)set to DF.

*** tstart() called on gpu-1-15.local
*** at Sat Nov 11 18:48:01 2017

   => Loading Basis Set <=

    Name: AUG-CC-PVTZ
    Role: ORBITAL
    Keyword: BASIS
    atoms 1-11  entry C          line   221 file /cbio/jclab/home/chayas/anaconda/envs/py35/share/psi4/basis/aug-cc-pvtz.gbs 
    atoms 12    entry N          line   267 file /cbio/jclab/home/chayas/anaconda/envs/py35/share/psi4/basis/aug-cc-pvtz.gbs 
    atoms 13    entry F          line   359 file /cbio/jclab/home/chayas/anaconda/envs/py35/share/psi4/basis/aug-cc-pvtz.gbs 
    atoms 14-21 entry H          line    34 file /cbio/jclab/home/chayas/anaconda/envs/py35/share/psi4/basis/aug-cc-pvtz.gbs 


         ---------------------------------------------------------
                                   SCF
            by Justin Turney, Rob Parrish, and Andy Simmonett
                              RHF Reference
                        8 Threads,   4768 MiB Core
         ---------------------------------------------------------

  ==> Geometry <==

    Molecular point group: c1
    Full point group: C1

    Geometry (in Angstrom), charge = 0, multiplicity = 1:

       Center              X                  Y                   Z               Mass       
    ------------   -----------------  -----------------  -----------------  -----------------
           C         -1.391463083741     0.848361043621    -2.666435460568    12.000000000000
           C         -2.461175014299     1.421968216342    -1.990012034013    12.000000000000
           C         -0.358245383092     0.253500774502    -1.953237415034    12.000000000000
           C         -2.496457157434     1.400636455668    -0.602785780655    12.000000000000
           C          0.465903339247    -0.991417469819     1.436610795191    12.000000000000
           C          2.003407584263    -0.413410161858    -0.297695128685    12.000000000000
           C          1.531892738534    -1.566858023161     2.109808932027    12.000000000000
           C          2.998520946961    -1.013844074323     0.455073045376    12.000000000000
           C         -0.380903493722     0.223135977033    -0.559087175725    12.000000000000
           C          0.703264419805    -0.398829120251     0.198864368127    12.000000000000
           C         -1.460996345612     0.803580155570     0.096891079936    12.000000000000
           N          2.791466088983    -1.591201950643     1.648176338090    14.003074004780
           F         -1.504109764490     0.796684479244     1.435823756828    18.998403224000
           H         -1.363944324506     0.863585719842    -3.747684831651     1.007825032070
           H         -3.267710831507     1.885971076800    -2.541097392765     1.007825032070
           H          0.466836489738    -0.190747821084    -2.492290811669     1.007825032070
           H         -3.323682432586     1.845539782963    -0.066533895104     1.007825032070
           H         -0.518007583437    -1.016736446325     1.873004664513     1.007825032070
           H          2.245778762391     0.035282704540    -1.250216279271     1.007825032070
           H          1.384676638104    -2.040941603231     3.071406177959     1.007825032070
           H          4.020430999729    -1.040524691663     0.099125685625     1.007825032070

  Running in c1 symmetry.

  Rotational constants: A =      0.06495  B =      0.01831  C =      0.01467 [cm^-1]
  Rotational constants: A =   1947.02419  B =    549.04930  C =    439.77816 [MHz]
  Nuclear repulsion =  717.680984994480355

  Charge       = 0
  Multiplicity = 1
  Electrons    = 90
  Nalpha       = 45
  Nbeta        = 45

  ==> Algorithm <==

  SCF Algorithm Type is DF.
  DIIS enabled.
  MOM disabled.
  Fractional occupation disabled.
  Guess Type is READ.
  Energy threshold   = 1.00e-10
  Density threshold  = 1.00e-10
  Integral threshold = 0.00e+00

  ==> Primary Basis <==

  Basis Set: AUG-CC-PVTZ
    Blend: AUG-CC-PVTZ
    Number of shells: 254
    Number of basis function: 782
    Number of Cartesian functions: 915
    Spherical Harmonics?: true
    Max angular momentum: 3

   => Loading Basis Set <=

    Name: (AUG-CC-PVTZ AUX)
    Role: JKFIT
    Keyword: DF_BASIS_SCF
    atoms 1-11  entry C          line   161 file /cbio/jclab/home/chayas/anaconda/envs/py35/share/psi4/basis/aug-cc-pvtz-jkfit.gbs 
    atoms 12    entry N          line   223 file /cbio/jclab/home/chayas/anaconda/envs/py35/share/psi4/basis/aug-cc-pvtz-jkfit.gbs 
    atoms 13    entry F          line   347 file /cbio/jclab/home/chayas/anaconda/envs/py35/share/psi4/basis/aug-cc-pvtz-jkfit.gbs 
    atoms 14-21 entry H          line    69 file /cbio/jclab/home/chayas/anaconda/envs/py35/share/psi4/basis/aug-cc-pvtz-jkfit.gbs 

  Reading orbitals from file 180, no projection.

  ==> Pre-Iterations <==

   -------------------------------------------------------
    Irrep   Nso     Nmo     Nalpha   Nbeta   Ndocc  Nsocc
   -------------------------------------------------------
     A        782     782       0       0       0       0
   -------------------------------------------------------
    Total     782     782      45      45      45       0
   -------------------------------------------------------

  ==> Integral Setup <==

  ==> DFJK: Density-Fitted J/K Matrices <==

    J tasked:                  Yes
    K tasked:                  Yes
    wK tasked:                  No
    OpenMP threads:              8
    Integrals threads:           8
    Memory (MB):              3576
    Algorithm:                Disk
    Integral Cache:           NONE
    Schwarz Cutoff:          1E-12
    Fitting Condition:       1E-12

   => Auxiliary Basis Set <=

  Basis Set: (AUG-CC-PVTZ AUX)
    Blend: AUG-CC-PVTZ-JKFIT
    Number of shells: 502
    Number of basis function: 1720
    Number of Cartesian functions: 2143
    Spherical Harmonics?: true
    Max angular momentum: 4

  Minimum eigenvalue in the overlap matrix is 6.1950896110E-07.
  Using Symmetric Orthogonalization.

  SCF Guess: Orbitals guess was supplied from a previous computation.

  ==> Iterations <==

                           Total Energy        Delta E     RMS |[F,P]|

   @DF-RHF iter   0:  -575.39292970023519   -5.75393e+02   5.36164e-04 
   @DF-RHF iter   1:  -575.28469347166572    1.08236e-01   1.46601e-04 
   @DF-RHF iter   2:  -575.28529114429602   -5.97673e-04   7.19457e-05 DIIS
   @DF-RHF iter   3:  -575.28577909303237   -4.87949e-04   1.13044e-05 DIIS
   @DF-RHF iter   4:  -575.28578863099608   -9.53796e-06   3.67972e-06 DIIS
   @DF-RHF iter   5:  -575.28579066979205   -2.03880e-06   1.55622e-06 DIIS
   @DF-RHF iter   6:  -575.28579103010952   -3.60317e-07   6.90828e-07 DIIS
   @DF-RHF iter   7:  -575.28579116980450   -1.39695e-07   3.95470e-07 DIIS
   @DF-RHF iter   8:  -575.28579120551535   -3.57109e-08   1.34667e-07 DIIS
   @DF-RHF iter   9:  -575.28579120900145   -3.48609e-09   4.77059e-08 DIIS
   @DF-RHF iter  10:  -575.28579120935456   -3.53111e-10   1.47803e-08 DIIS
   @DF-RHF iter  11:  -575.28579120939764   -4.30873e-11   4.13725e-09 DIIS
   @DF-RHF iter  12:  -575.28579120939105    6.59384e-12   1.52670e-09 DIIS
   @DF-RHF iter  13:  -575.28579120939264   -1.59162e-12   8.78598e-10 DIIS
   @DF-RHF iter  14:  -575.28579120938650    6.13909e-12   3.54701e-10 DIIS
   @DF-RHF iter  15:  -575.28579120940810   -2.16005e-11   1.54176e-10 DIIS
   @DF-RHF iter  16:  -575.28579120940458    3.52429e-12   7.34462e-11 DIIS

  ==> Post-Iterations <==

    Orbital Energies (a.u.)
    -----------------------

    Doubly Occupied:                                                      

       1A    -26.323622     2A    -15.562780     3A    -11.340764  
       4A    -11.272452     5A    -11.270635     6A    -11.268648  
       7A    -11.263051     8A    -11.258269     9A    -11.257838  
      10A    -11.253577    11A    -11.249351    12A    -11.239640  
      13A    -11.234791    14A     -1.646259    15A     -1.255094  
      16A     -1.186332    17A     -1.114557    18A     -1.039812  
      19A     -1.033121    20A     -1.028678    21A     -0.893406  
      22A     -0.875552    23A     -0.845626    24A     -0.826462  
      25A     -0.759341    26A     -0.724442    27A     -0.721623  
      28A     -0.711637    29A     -0.672193    30A     -0.661470  
      31A     -0.651712    32A     -0.626121    33A     -0.611848  
      34A     -0.596194    35A     -0.589555    36A     -0.551220  
      37A     -0.541383    38A     -0.524498    39A     -0.519285  
      40A     -0.506588    41A     -0.418491    42A     -0.411550  
      43A     -0.354979    44A     -0.347848    45A     -0.328839  

    Virtual:                                                              

      46A      0.023387    47A      0.029277    48A      0.033864  
      49A      0.039403    50A      0.043616    51A      0.046665  
      52A      0.056016    53A      0.057274    54A      0.065316  
      55A      0.079095    56A      0.082845    57A      0.086196  
      58A      0.091467    59A      0.094591    60A      0.099922  
      61A      0.104165    62A      0.107315    63A      0.108707  
      64A      0.114318    65A      0.115389    66A      0.117070  
      67A      0.118618    68A      0.121454    69A      0.130849  
      70A      0.131750    71A      0.134113    72A      0.137705  
      73A      0.139533    74A      0.142311    75A      0.146492  
      76A      0.149449    77A      0.151434    78A      0.154799  
      79A      0.162558    80A      0.168038    81A      0.174896  
      82A      0.175202    83A      0.179637    84A      0.184104  
      85A      0.187957    86A      0.199658    87A      0.204804  
      88A      0.215867    89A      0.223284    90A      0.223806  
      91A      0.227758    92A      0.228306    93A      0.231659  
      94A      0.239922    95A      0.242440    96A      0.246345  
      97A      0.249774    98A      0.253099    99A      0.259728  
     100A      0.264868   101A      0.266908   102A      0.268477  
     103A      0.275511   104A      0.284003   105A      0.285405  
     106A      0.289800   107A      0.292647   108A      0.297115  
     109A      0.299936   110A      0.303541   111A      0.311105  
     112A      0.314347   113A      0.315742   114A      0.318463  
     115A      0.322002   116A      0.328978   117A      0.336431  
     118A      0.338096   119A      0.340290   120A      0.346811  
     121A      0.351749   122A      0.355618   123A      0.364055  
     124A      0.367211   125A      0.377781   126A      0.380936  
     127A      0.382737   128A      0.389576   129A      0.396410  
     130A      0.402928   131A      0.412008   132A      0.412590  
     133A      0.417166   134A      0.422650   135A      0.429082  
     136A      0.431811   137A      0.433846   138A      0.437327  
     139A      0.440293   140A      0.446459   141A      0.447518  
     142A      0.453821   143A      0.457033   144A      0.461414  
     145A      0.466491   146A      0.469354   147A      0.473685  
     148A      0.475918   149A      0.477619   150A      0.484005  
     151A      0.488906   152A      0.494051   153A      0.496012  
     154A      0.499814   155A      0.502918   156A      0.505157  
     157A      0.507788   158A      0.509376   159A      0.511592  
     160A      0.521098   161A      0.523920   162A      0.525016  
     163A      0.528711   164A      0.532024   165A      0.533794  
     166A      0.537050   167A      0.541033   168A      0.543758  
     169A      0.547746   170A      0.551354   171A      0.558520  
     172A      0.559520   173A      0.573312   174A      0.574688  
     175A      0.580098   176A      0.584659   177A      0.590376  
     178A      0.601996   179A      0.607650   180A      0.609126  
     181A      0.617962   182A      0.624059   183A      0.630848  
     184A      0.637134   185A      0.646236   186A      0.647546  
     187A      0.653364   188A      0.665608   189A      0.676830  
     190A      0.682268   191A      0.688599   192A      0.692066  
     193A      0.700131   194A      0.704232   195A      0.706491  
     196A      0.707886   197A      0.719071   198A      0.724497  
     199A      0.727426   200A      0.738941   201A      0.739981  
     202A      0.743263   203A      0.745014   204A      0.750173  
     205A      0.753572   206A      0.768792   207A      0.772517  
     208A      0.778423   209A      0.780554   210A      0.789953  
     211A      0.803148   212A      0.804467   213A      0.808868  
     214A      0.819840   215A      0.824650   216A      0.835242  
     217A      0.843036   218A      0.851495   219A      0.855650  
     220A      0.858400   221A      0.864909   222A      0.871862  
     223A      0.872627   224A      0.878323   225A      0.883377  
     226A      0.884852   227A      0.886882   228A      0.887789  
     229A      0.893631   230A      0.906045   231A      0.907043  
     232A      0.911581   233A      0.914367   234A      0.920336  
     235A      0.923649   236A      0.929979   237A      0.938183  
     238A      0.944419   239A      0.948692   240A      0.955057  
     241A      0.958851   242A      0.965820   243A      0.968810  
     244A      0.973721   245A      0.978328   246A      0.984569  
     247A      0.989269   248A      0.990608   249A      0.991465  
     250A      1.000251   251A      1.008033   252A      1.010408  
     253A      1.013863   254A      1.018080   255A      1.025081  
     256A      1.027067   257A      1.029217   258A      1.036610  
     259A      1.043606   260A      1.045140   261A      1.049220  
     262A      1.062403   263A      1.066396   264A      1.067989  
     265A      1.071275   266A      1.075500   267A      1.076210  
     268A      1.084878   269A      1.087863   270A      1.089006  
     271A      1.094774   272A      1.099388   273A      1.107111  
     274A      1.109322   275A      1.118749   276A      1.123400  
     277A      1.126765   278A      1.136219   279A      1.137278  
     280A      1.145424   281A      1.147024   282A      1.159869  
     283A      1.168284   284A      1.173142   285A      1.176432  
     286A      1.179484   287A      1.184688   288A      1.187348  
     289A      1.188606   290A      1.198542   291A      1.201081  
     292A      1.202834   293A      1.207074   294A      1.211503  
     295A      1.216318   296A      1.218226   297A      1.228696  
     298A      1.236331   299A      1.238262   300A      1.249278  
     301A      1.260858   302A      1.263325   303A      1.269025  
     304A      1.275063   305A      1.285705   306A      1.288591  
     307A      1.293562   308A      1.297833   309A      1.300813  
     310A      1.314608   311A      1.318641   312A      1.324632  
     313A      1.330365   314A      1.336892   315A      1.352936  
     316A      1.359682   317A      1.363660   318A      1.368006  
     319A      1.377248   320A      1.388765   321A      1.392865  
     322A      1.405977   323A      1.410035   324A      1.420557  
     325A      1.423198   326A      1.426229   327A      1.433193  
     328A      1.439145   329A      1.451368   330A      1.473651  
     331A      1.476374   332A      1.489661   333A      1.494204  
     334A      1.498670   335A      1.508580   336A      1.513138  
     337A      1.523908   338A      1.526979   339A      1.542904  
     340A      1.546155   341A      1.554407   342A      1.562244  
     343A      1.576984   344A      1.581865   345A      1.592807  
     346A      1.596092   347A      1.603014   348A      1.616221  
     349A      1.623712   350A      1.635467   351A      1.646091  
     352A      1.655760   353A      1.657416   354A      1.665129  
     355A      1.674125   356A      1.677887   357A      1.693167  
     358A      1.700031   359A      1.710173   360A      1.711486  
     361A      1.720618   362A      1.725244   363A      1.737087  
     364A      1.738462   365A      1.741336   366A      1.749672  
     367A      1.756957   368A      1.773828   369A      1.780476  
     370A      1.787226   371A      1.795332   372A      1.802856  
     373A      1.808598   374A      1.818685   375A      1.823056  
     376A      1.831165   377A      1.836239   378A      1.846818  
     379A      1.861685   380A      1.865641   381A      1.874556  
     382A      1.881355   383A      1.896399   384A      1.899851  
     385A      1.918628   386A      1.925680   387A      1.931587  
     388A      1.941770   389A      1.949359   390A      1.951578  
     391A      1.965803   392A      1.967337   393A      1.979298  
     394A      1.985996   395A      1.990252   396A      1.996017  
     397A      1.999459   398A      2.013114   399A      2.020103  
     400A      2.025554   401A      2.029050   402A      2.038090  
     403A      2.045624   404A      2.050681   405A      2.054093  
     406A      2.066453   407A      2.073170   408A      2.082208  
     409A      2.088318   410A      2.094564   411A      2.097402  
     412A      2.111881   413A      2.113926   414A      2.126285  
[...]
	 R(5,18)          =         2.034657	       1.076694
	 R(6,8)           =         2.616796	       1.384749
	 R(6,10)          =         2.633367	       1.393518
	 R(6,19)          =         2.039186	       1.079091
	 R(7,12)          =         2.522197	       1.334689
	 R(7,20)          =         2.042635	       1.080916
	 R(8,12)          =         2.522593	       1.334899
	 R(8,21)          =         2.042843	       1.081026
	 R(9,10)          =         2.765708	       1.463550
	 R(9,11)          =         2.630022	       1.391748
	 R(11,13)         =         2.546409	       1.347502
	 B(1,2,4)         =         2.087949	     119.630687
	 B(1,2,15)        =         2.104663	     120.588307
	 B(1,3,9)         =         2.128859	     121.974660
	 B(1,3,16)        =         2.086106	     119.525085
	 B(2,1,3)         =         2.092488	     119.890755
	 B(2,1,14)        =         2.099378	     120.285524
	 B(2,4,11)        =         2.081242	     119.246355
	 B(2,4,17)        =         2.127465	     121.894748
	 B(3,1,14)        =         2.091291	     119.822125
	 B(3,9,10)        =         2.104638	     120.586871
	 B(3,9,11)        =         2.028064	     116.199514
	 B(4,2,15)        =         2.090572	     119.780976
	 B(4,11,9)        =         2.147687	     123.053388
	 B(4,11,13)       =         2.048421	     117.365876
	 B(5,7,12)        =         2.164300	     124.005252
	 B(5,7,20)        =         2.090479	     119.775608
	 B(5,10,6)        =         2.034256	     116.554288
	 B(5,10,9)        =         2.147497	     123.042522
	 B(6,8,12)        =         2.158651	     123.681596
	 B(6,8,21)        =         2.094146	     119.985702
	 B(6,10,9)        =         2.101369	     120.399555
	 B(7,5,10)        =         2.085023	     119.463039
	 B(7,5,18)        =         2.087626	     119.612186
	 B(7,12,8)        =         2.032827	     116.472432
	 B(8,6,10)        =         2.091132	     119.813065
	 B(8,6,19)        =         2.086099	     119.524694
	 B(9,3,16)        =         2.067628	     118.466367
	 B(9,11,13)       =         2.086674	     119.557590
	 B(10,5,18)       =         2.110215	     120.906410
	 B(10,6,19)       =         2.105593	     120.641597
	 B(10,9,11)       =         2.149599	     123.162974
	 B(11,4,17)       =         2.074446	     118.856988
	 B(12,7,20)       =         2.028405	     116.219067
	 B(12,8,21)       =         2.030365	     116.331327
	 D(1,2,4,11)      =        -0.005176	      -0.296544
	 D(1,2,4,17)      =         3.127541	     179.194875
	 D(1,3,9,10)      =        -3.111192	    -178.258170
	 D(1,3,9,11)      =        -0.013366	      -0.765799
	 D(2,1,3,9)       =         0.006039	       0.346037
	 D(2,1,3,16)      =         3.110099	     178.195522
	 D(2,4,11,9)      =        -0.002864	      -0.164067
	 D(2,4,11,13)     =         3.108003	     178.075447
	 D(3,1,2,4)       =         0.003613	       0.207020
	 D(3,1,2,15)      =        -3.139070	    -179.855477
	 D(3,9,10,5)      =        -2.612583	    -149.689956
	 D(3,9,10,6)      =         0.541539	      31.027903
	 D(3,9,11,4)      =         0.011853	       0.679130
	 D(3,9,11,13)     =        -3.098369	    -177.523478
	 D(4,2,1,14)      =         3.137171	     179.746653
	 D(4,11,9,10)     =         3.108437	     178.100337
	 D(5,7,12,8)      =        -0.000286	      -0.016387
	 D(5,10,6,8)      =         0.017307	       0.991623
	 D(5,10,6,19)     =        -3.095304	    -177.347868
	 D(5,10,9,11)     =         0.575923	      32.997966
	 D(6,8,12,7)      =        -0.003890	      -0.222900
	 D(6,10,5,7)      =        -0.021064	      -1.206860
	 D(6,10,5,18)     =        -3.135343	    -179.641922
	 D(6,10,9,11)     =        -2.553141	    -146.284175
	 D(7,5,10,9)      =         3.132610	     179.485323
	 D(7,12,8,21)     =         3.130237	     179.349394
	 D(8,6,10,9)      =        -3.136027	    -179.681097
	 D(8,12,7,20)     =        -3.140167	    -179.918288
	 D(9,3,1,14)      =        -3.127556	    -179.195746
	 D(9,10,5,18)     =         0.018331	       1.050261
	 D(9,10,6,19)     =         0.034547	       1.979413
	 D(9,11,4,17)     =        -3.135851	    -179.671053
	 D(10,5,7,12)     =         0.013267	       0.760156
	 D(10,5,7,20)     =        -3.130095	    -179.341237
	 D(10,6,8,12)     =        -0.005023	      -0.287770
	 D(10,6,8,21)     =        -3.138891	    -179.845203
	 D(10,9,3,16)     =         0.067552	       3.870423
	 D(10,9,11,13)    =        -0.001785	      -0.102272
	 D(11,4,2,15)     =         3.137499	     179.765443
	 D(11,9,3,16)     =        -3.117807	    -178.637207
	 D(12,7,5,18)     =         3.127904	     179.215712
	 D(12,8,6,19)     =         3.107914	     178.070372
	 D(13,11,4,17)    =        -0.024985	      -1.431539
	 D(14,1,2,15)     =        -0.005513	      -0.315844
	 D(14,1,3,16)     =        -0.023497	      -1.346260
	 D(15,2,4,17)     =        -0.012970	      -0.743139
	 D(18,5,7,20)     =        -0.015458	      -0.885681
	 D(19,6,8,21)     =        -0.025954	      -1.487061
	 R(5,13)          =         5.317278	       2.813782

	Current energy   :      -577.7274875817

	Energy change for the previous step:
		Projected    :        -0.0000001139
		Actual       :         0.0000000664

	Performing BFGS update.
	Previous computed or guess Hessian on step 1.
	Steps to be used in Hessian update: 6 5
	Adding user-defined constraint: Fragment 1; Coordinate 67:
		Value =    -2.612583; Fixed value    =    -2.617990
		Force =    -0.003515; Force constant =     0.650000
	Removing off-diagonal coupling between coordinate 67 and others.
	Taking RFO optimization step.
	Going to follow RFO solution 1.
	Using RFO vector 1.
	Norm of target step-size    0.00349
	Projected energy change by RFO approximation:        -0.0000009400

	Back-transformation to cartesian coordinates...
	Could not converge backtransformation.
	Using first guess instead.

	--- Internal Coordinate Step in ANG or DEG, aJ/ANG or AJ/DEG ---
	 ---------------------------------------------------------------------------
	   Coordinate                Previous        Force       Change         New 
	   ----------                --------       ------       ------       ------
	    1 R(1,2)          =      1.387900     0.000091     0.000014     1.387914
	    2 R(1,3)          =      1.384515    -0.000238    -0.000033     1.384482
	    3 R(1,14)         =      1.078463    -0.000082    -0.000011     1.078451
	    4 R(2,4)          =      1.385800    -0.000421    -0.000062     1.385737
	    5 R(2,15)         =      1.078748    -0.000074    -0.000010     1.078737
	    6 R(3,9)          =      1.397438     0.000050     0.000014     1.397452
	    7 R(3,16)         =      1.079176    -0.000075    -0.000007     1.079169
	    8 R(4,11)         =      1.379777     0.000055     0.000015     1.379792
	    9 R(4,17)         =      1.077921    -0.000009     0.000002     1.077923
	   10 R(5,7)          =      1.385870    -0.000171    -0.000024     1.385846
	   11 R(5,10)         =      1.393106     0.000100     0.000014     1.393120
	   12 R(5,18)         =      1.076694    -0.000127    -0.000009     1.076685
	   13 R(6,8)          =      1.384749     0.000069     0.000010     1.384759
	   14 R(6,10)         =      1.393518    -0.000324    -0.000042     1.393476
	   15 R(6,19)         =      1.079091    -0.000069    -0.000007     1.079084
	   16 R(7,12)         =      1.334689    -0.000031     0.000000     1.334689
	   17 R(7,20)         =      1.080916    -0.000064    -0.000010     1.080906
	   18 R(8,12)         =      1.334899    -0.000336    -0.000034     1.334865
	   19 R(8,21)         =      1.081026    -0.000045    -0.000007     1.081018
	   20 R(9,10)         =      1.463550     0.000685     0.000113     1.463663
	   21 R(9,11)         =      1.391748    -0.000378    -0.000044     1.391704
	   22 R(11,13)        =      1.347502    -0.001502    -0.000164     1.347338
	   23 B(1,2,4)        =    119.630687    -0.000000    -0.001853   119.628834
	   24 B(1,2,15)       =    120.588307     0.000001     0.004575   120.592882
	   25 B(1,3,9)        =    121.974660     0.000001     0.004990   121.979650
	   26 B(1,3,16)       =    119.525085    -0.000001    -0.002873   119.522213
	   27 B(2,1,3)        =    119.890755    -0.000002    -0.005516   119.885240
	   28 B(2,1,14)       =    120.285524     0.000001     0.004163   120.289687
	   29 B(2,4,11)       =    119.246355     0.000003     0.010246   119.256601
	   30 B(2,4,17)       =    121.894748    -0.000002    -0.008175   121.886573
	   31 B(3,1,14)       =    119.822125     0.000001     0.001461   119.823586
	   32 B(3,9,10)       =    120.586871    -0.000004    -0.018851   120.568020
	   33 B(3,9,11)       =    116.199514     0.000001     0.002169   116.201684
	   34 B(4,2,15)       =    119.780976    -0.000001    -0.002719   119.778257
	   35 B(4,11,9)       =    123.053388    -0.000003    -0.010019   123.043369
	   36 B(4,11,13)      =    117.365876     0.000001    -0.000951   117.364925
	   37 B(5,7,12)       =    124.005252    -0.000000    -0.001386   124.003867
	   38 B(5,7,20)       =    119.775608     0.000002     0.007119   119.782727
	   39 B(5,10,6)       =    116.554288     0.000000     0.001476   116.555765
	   40 B(5,10,9)       =    123.042522    -0.000001     0.000740   123.043262
	   41 B(6,8,12)       =    123.681596     0.000000     0.001546   123.683142
	   42 B(6,8,21)       =    119.985702     0.000000     0.001644   119.987347
	   43 B(6,10,9)       =    120.399555     0.000000    -0.001883   120.397671
	   44 B(7,5,10)       =    119.463039    -0.000000     0.000349   119.463388
	   45 B(7,5,18)       =    119.612186     0.000001     0.005977   119.618163
	   46 B(7,12,8)       =    116.472432     0.000000     0.000600   116.473032
	   47 B(8,6,10)       =    119.813065    -0.000001    -0.002154   119.810911
	   48 B(8,6,19)       =    119.524694     0.000000     0.000188   119.524883
	   49 B(9,3,16)       =    118.466367    -0.000000    -0.001724   118.464643
	   50 B(9,11,13)      =    119.557590     0.000002     0.010841   119.568431
	   51 B(10,5,18)      =    120.906410    -0.000001    -0.005760   120.900651
	   52 B(10,6,19)      =    120.641597     0.000001     0.002920   120.644518
	   53 B(10,9,11)      =    123.162974     0.000003     0.016212   123.179186
	   54 B(11,4,17)      =    118.856988    -0.000000    -0.002232   118.854755
	   55 B(12,7,20)      =    116.219067    -0.000001    -0.005661   116.213406
	   56 B(12,8,21)      =    116.331327    -0.000001    -0.003127   116.328200
	   57 D(1,2,4,11)     =     -0.296544    -0.000000     0.020099    -0.276445
	   58 D(1,2,4,17)     =    179.194875    -0.000000    -0.000935   179.193940
	   59 D(1,3,9,10)     =   -178.258170     0.000001     0.009210  -178.248960
	   60 D(1,3,9,11)     =     -0.765799    -0.000001    -0.001935    -0.767735
	   61 D(2,1,3,9)      =      0.346037     0.000000     0.004907     0.350943
	   62 D(2,1,3,16)     =    178.195522     0.000000     0.017390   178.212912
	   63 D(2,4,11,9)     =     -0.164067    -0.000000    -0.017694    -0.181761
	   64 D(2,4,11,13)    =    178.075447    -0.000000    -0.022397   178.053050
	   65 D(3,1,2,4)      =      0.207020     0.000000    -0.014039     0.192980
	   66 D(3,1,2,15)     =   -179.855477    -0.000000    -0.010443  -179.865920
	   67 D(3,9,10,5)     =   -149.689956    -0.000004    -0.013764  -149.703721
	   68 D(3,9,10,6)     =     31.027903    -0.000003    -0.047413    30.980489
	   69 D(3,9,11,4)     =      0.679130     0.000001     0.008367     0.687498
	   70 D(3,9,11,13)    =   -177.523478     0.000001     0.013378  -177.510100
	   71 D(4,2,1,14)     =    179.746653     0.000000     0.001808   179.748460
	   72 D(4,11,9,10)    =    178.100337    -0.000001    -0.004079   178.096258
	   73 D(5,7,12,8)     =     -0.016387     0.000000     0.046009     0.029621
	   74 D(5,10,6,8)     =      0.991623     0.000001     0.002666     0.994288
	   75 D(5,10,6,19)    =   -177.347868     0.000000    -0.036200  -177.384068
	   76 D(5,10,9,11)    =     32.997966    -0.000002    -0.001367    32.996599
	   77 D(6,8,12,7)     =     -0.222900    -0.000000    -0.004211    -0.227110
	   78 D(6,10,5,7)     =     -1.206860    -0.000001     0.035418    -1.171441
	   79 D(6,10,5,18)    =   -179.641922    -0.000001     0.011020  -179.630901
	   80 D(6,10,9,11)    =   -146.284175    -0.000001    -0.035016  -146.319191
	   81 D(7,5,10,9)     =    179.485323     0.000001     0.002994   179.488317
	   82 D(7,12,8,21)    =    179.349394    -0.000000     0.005853   179.355247
	   83 D(8,6,10,9)     =   -179.681097    -0.000001     0.034196  -179.646901
	   84 D(8,12,7,20)    =   -179.918288    -0.000000    -0.055904  -179.974191
	   85 D(9,3,1,14)     =   -179.195746     0.000000    -0.010878  -179.206624
	   86 D(9,10,5,18)    =      1.050261     0.000001    -0.021404     1.028857
	   87 D(9,10,6,19)    =      1.979413    -0.000001    -0.004670     1.974742
	   88 D(9,11,4,17)    =   -179.671053    -0.000000     0.002731  -179.668322
	   89 D(10,5,7,12)    =      0.760156    -0.000000    -0.063160     0.696996
	   90 D(10,5,7,20)    =   -179.341237     0.000000     0.042174  -179.299063
	   91 D(10,6,8,12)    =     -0.287770    -0.000000    -0.019450    -0.307220
	   92 D(10,6,8,21)    =   -179.845203    -0.000000    -0.029845  -179.875048
	   93 D(10,9,3,16)    =      3.870423     0.000001    -0.003120     3.867303
	   94 D(10,9,11,13)   =     -0.102272    -0.000001     0.000932    -0.101339
	   95 D(11,4,2,15)    =    179.765443     0.000000     0.016528   179.781971
	   96 D(11,9,3,16)    =   -178.637207    -0.000001    -0.014265  -178.651472
	   97 D(12,7,5,18)    =    179.215712     0.000000    -0.039263   179.176448
	   98 D(12,8,6,19)    =    178.070372    -0.000000     0.019024   178.089397
	   99 D(13,11,4,17)   =     -1.431539    -0.000000    -0.001973    -1.433511
	  100 D(14,1,2,15)    =     -0.315844     0.000000     0.005404    -0.310440
	  101 D(14,1,3,16)    =     -1.346260     0.000000     0.001604    -1.344656
	  102 D(15,2,4,17)    =     -0.743139    -0.000000    -0.004506    -0.747644
	  103 D(18,5,7,20)    =     -0.885681     0.000000     0.066071    -0.819611
	  104 D(19,6,8,21)    =     -1.487061    -0.000000     0.008630    -1.478431
	  105 R(5,13)         =      2.813782     0.000275     0.000848     2.814631
	 ---------------------------------------------------------------------------
	Successfully symmetrized geometry.
	 Forces used to impose fixed constraints are not included.
	  Forces zeroed: 67 

  ==> Convergence Check <==

  Measures of convergence in internal coordinates in au.
  Criteria marked as inactive (o), active & met (*), and active & unmet ( ).
  ---------------------------------------------------------------------------------------------
   Step     Total Energy     Delta E     MAX Force     RMS Force      MAX Disp      RMS Disp   
  ---------------------------------------------------------------------------------------------
    Convergence Criteria    1.00e-06 *    3.00e-04 *             o    1.20e-03 *             o
  ---------------------------------------------------------------------------------------------
      7    -577.72748758    6.64e-08 *    1.82e-04 *    3.62e-05 o    1.60e-03      3.40e-04 o  ~
  ---------------------------------------------------------------------------------------------


  **** Optimization is complete! (in 7 steps) ****

  ==> Optimization Summary <==

  Measures of convergence in internal coordinates in au.
  --------------------------------------------------------------------------------------------------------------- ~
   Step         Total Energy             Delta E       MAX Force       RMS Force        MAX Disp        RMS Disp  ~
  --------------------------------------------------------------------------------------------------------------- ~
      1    -577.721911742633   -577.721911742633      0.01646742      0.00499063      0.03778873      0.00977060  ~
      2    -577.725378328720     -0.003466586087      0.00807841      0.00207290      0.07138346      0.00976900  ~
      3    -577.726671611735     -0.001293283014      0.00547798      0.00080919      0.08189074      0.00976120  ~
      4    -577.727205266217     -0.000533654482      0.00313108      0.00038563      0.08222936      0.00976554  ~
      5    -577.727445672795     -0.000240406578      0.00118695      0.00017591      0.04556348      0.00514304  ~
      6    -577.727487648119     -0.000041975325      0.00042855      0.00008738      0.00859397      0.00102307  ~
      7    -577.727487581678      0.000000066442      0.00022638      0.00004240      0.00160326      0.00034038  ~
  --------------------------------------------------------------------------------------------------------------- ~

	Writing optimization data to binary file.
	Final energy is   -577.7274875816776
	Final (previous) structure:
	Cartesian Geometry (in Angstrom)
	    C    -1.3400697996   0.7916092178  -2.6959843538
	    C    -2.4097219049   1.4197017921  -2.0734004282
	    C    -0.3537213424   0.1902833648  -1.9328288864
	    C    -2.4793443296   1.4434035454  -0.6895537234
	    C     0.4782367521  -1.0144001316   1.4881214615
	    C     1.9858698506  -0.4289543542  -0.2446935157
	    C     1.5519021778  -1.5819449373   2.1557821717
	    C     2.9957960862  -1.0169708643   0.4981485645
	    C    -0.3985343932   0.1855575780  -0.5361171363
	    C     0.6799301477  -0.4261368927   0.2415216261
	    C    -1.4833873565   0.8345129905   0.0460454288
	    N     2.8011094059  -1.5941552937   1.6859660036
	    F    -1.5678440817   0.9145894611   1.3885114960
	    H    -1.2774163901   0.7633266550  -3.7722538511
	    H    -3.1856760894   1.8897559459  -2.6570450018
	    H     0.4599967548  -0.3216892721  -2.4231024809
	    H    -3.2865918901   1.9317176357  -0.1681960499
	    H    -0.5037831420  -1.0559729022   1.9276427917
	    H     2.2241856361   0.0465241578  -1.1836093599
	    H     1.3991568552  -2.0491777495   3.1184565221
	    H     4.0103000161  -1.0185400088   0.1247907887
	Saving final (previous) structure.
			--------------------------
			 OPTKING Finished Execution 
			--------------------------

    Final optimized geometry and variables:
    Molecular point group: c1
    Full point group: C1

    Geometry (in Angstrom), charge = 0, multiplicity = 1:

    C           -1.340069799614     0.791609217840    -2.695984353759
    C           -2.409721904859     1.419701792064    -2.073400428224
    C           -0.353721342360     0.190283364842    -1.932828886417
    C           -2.479344329601     1.443403545414    -0.689553723388
    C            0.478236752124    -1.014400131594     1.488121461465
    C            1.985869850618    -0.428954354235    -0.244693515716
    C            1.551902177844    -1.581944937257     2.155782171728
    C            2.995796086201    -1.016970864286     0.498148564488
    C           -0.398534393163     0.185557577990    -0.536117136313
    C            0.679930147654    -0.426136892660     0.241521626053
    C           -1.483387356518     0.834512990459     0.046045428841
    N            2.801109405941    -1.594155293684     1.685966003560
    F           -1.567844081683     0.914589461099     1.388511496028
    H           -1.277416390139     0.763326655020    -3.772253851062
    H           -3.185676089388     1.889755945930    -2.657045001837
    H            0.459996754819    -0.321689272100    -2.423102480901
    H           -3.286591890135     1.931717635730    -0.168196049881
    H           -0.503783141960    -1.055972902209     1.927642791672
    H            2.224185636068     0.046524157845    -1.183609359917
    H            1.399156855167    -2.049177749498     3.118456522142
    H            4.010300016142    -1.018540008829     0.124790788739

	Cleaning optimization helper files.

*** Psi4 exiting successfully. Buy a developer a beer!
