
    -----------------------------------------------------------------------
          Psi4: An Open-Source Ab Initio Electronic Structure Package
                               Psi4 1.1 release

                         Git: Rev {HEAD} add49b9 


    R. M. Parrish, L. A. Burns, D. G. A. Smith, A. C. Simmonett,
    A. E. DePrince III, E. G. Hohenstein, U. Bozkaya, A. Yu. Sokolov,
    R. Di Remigio, R. M. Richard, J. F. Gonthier, A. M. James,
    H. R. McAlexander, A. Kumar, M. Saitow, X. Wang, B. P. Pritchard,
    P. Verma, H. F. Schaefer III, K. Patkowski, R. A. King, E. F. Valeev,
    F. A. Evangelista, J. M. Turney, T. D. Crawford, and C. D. Sherrill,
    J. Chem. Theory Comput. in press (2017).
    (doi: 10.1021/acs.jctc.7b00174)

    -----------------------------------------------------------------------


    Psi4 started on: Sunday, 12 November 2017 11:07AM

    Process ID:  10449
    PSIDATADIR: /cbio/jclab/home/chayas/anaconda/envs/py35/share/psi4
    Memory:     500.0 MiB
    Threads:    8
    
  ==> Input File <==

--------------------------------------------------------------------------

memory 5 Gb

molecule phepyrOH_neutral {
  symmetry C1
  0 1 
  C      1.885   -1.036   -0.112
  C      2.878   -1.652   2.002
  C      0.807   -0.463   0.561
  C      1.800   -1.079   2.676
  C      5.339   -1.985   0.341
  C      3.819   -3.041   -1.195
  C      6.376   -2.579   -0.361
  C      4.924   -3.587   -1.828
  C      2.921   -1.631   0.608
  C      4.040   -2.225   -0.090
  C      0.764   -0.484   1.955
  N      6.201   -3.376   -1.438
  O      -0.288   0.076   2.612
  H      1.904   -1.012   -1.199
  H      3.678   -2.112   2.578
  H      0.003   -0.001   -0.006
  H      1.772   -1.098   3.762
  H      5.551   -1.355   1.199
  H      2.819   -3.250   -1.560
  H      7.408   -2.424   -0.064
  H      4.805   -4.229   -2.694
  H      -0.175   -0.018   3.571
  units Angstrom
}

dih_string = "1 9 10 5 135"
set optking fixed_dihedral = $dih_string

optimize('MP2/aug-cc-PVTZ')
--------------------------------------------------------------------------

  Memory set to   4.657 GiB by Python driver.
gradient() will perform analytic gradient computation.

*** tstart() called on gpu-1-15.local
*** at Sun Nov 12 11:07:26 2017

    SCF Algorithm Type (re)set to DF.

*** tstart() called on gpu-1-15.local
*** at Sun Nov 12 11:07:26 2017

   => Loading Basis Set <=

    Name: AUG-CC-PVTZ
    Role: ORBITAL
    Keyword: BASIS
    atoms 1-11  entry C          line   221 file /cbio/jclab/home/chayas/anaconda/envs/py35/share/psi4/basis/aug-cc-pvtz.gbs 
    atoms 12    entry N          line   267 file /cbio/jclab/home/chayas/anaconda/envs/py35/share/psi4/basis/aug-cc-pvtz.gbs 
    atoms 13    entry O          line   313 file /cbio/jclab/home/chayas/anaconda/envs/py35/share/psi4/basis/aug-cc-pvtz.gbs 
    atoms 14-22 entry H          line    34 file /cbio/jclab/home/chayas/anaconda/envs/py35/share/psi4/basis/aug-cc-pvtz.gbs 


         ---------------------------------------------------------
                                   SCF
            by Justin Turney, Rob Parrish, and Andy Simmonett
                              RHF Reference
                        8 Threads,   4768 MiB Core
         ---------------------------------------------------------

  ==> Geometry <==

    Molecular point group: c1
    Full point group: C1

    Geometry (in Angstrom), charge = 0, multiplicity = 1:

       Center              X                  Y                   Z               Mass       
    ------------   -----------------  -----------------  -----------------  -----------------
           C         -1.253187677251     0.710804320365    -0.591089114974    12.000000000000
           C         -0.260187677251     0.094804320365     1.522910885026    12.000000000000
           C         -2.331187677251     1.283804320365     0.081910885026    12.000000000000
           C         -1.338187677251     0.667804320365     2.196910885026    12.000000000000
           C          2.200812322749    -0.238195679635    -0.138089114974    12.000000000000
           C          0.680812322749    -1.294195679635    -1.674089114974    12.000000000000
           C          3.237812322749    -0.832195679635    -0.840089114974    12.000000000000
           C          1.785812322749    -1.840195679635    -2.307089114974    12.000000000000
           C         -0.217187677251     0.115804320365     0.128910885026    12.000000000000
           C          0.901812322749    -0.478195679635    -0.569089114974    12.000000000000
           C         -2.374187677251     1.262804320365     1.475910885026    12.000000000000
           N          3.062812322749    -1.629195679635    -1.917089114974    14.003074004780
           O         -3.426187677251     1.822804320365     2.132910885026    15.994914619560
           H         -1.234187677251     0.734804320365    -1.678089114974     1.007825032070
           H          0.539812322749    -0.365195679635     2.098910885026     1.007825032070
           H         -3.135187677251     1.745804320365    -0.485089114974     1.007825032070
           H         -1.366187677251     0.648804320365     3.282910885026     1.007825032070
           H          2.412812322749     0.391804320365     0.719910885026     1.007825032070
           H         -0.319187677251    -1.503195679635    -2.039089114974     1.007825032070
           H          4.269812322749    -0.677195679635    -0.543089114974     1.007825032070
           H          1.666812322749    -2.482195679635    -3.173089114974     1.007825032070
           H         -3.313187677251     1.728804320365     3.091910885026     1.007825032070

  Running in c1 symmetry.

  Rotational constants: A =      0.09694  B =      0.01340  C =      0.01221 [cm^-1]
  Rotational constants: A =   2906.31229  B =    401.69668  C =    365.92838 [MHz]
  Nuclear repulsion =  698.076914539212794

  Charge       = 0
  Multiplicity = 1
  Electrons    = 90
  Nalpha       = 45
  Nbeta        = 45

  ==> Algorithm <==

  SCF Algorithm Type is DF.
  DIIS enabled.
  MOM disabled.
  Fractional occupation disabled.
  Guess Type is SAD.
  Energy threshold   = 1.00e-10
  Density threshold  = 1.00e-10
  Integral threshold = 0.00e+00

  ==> Primary Basis <==

  Basis Set: AUG-CC-PVTZ
    Blend: AUG-CC-PVTZ
    Number of shells: 263
    Number of basis function: 805
    Number of Cartesian functions: 940
    Spherical Harmonics?: true
    Max angular momentum: 3

   => Loading Basis Set <=

    Name: (AUG-CC-PVTZ AUX)
    Role: JKFIT
    Keyword: DF_BASIS_SCF
    atoms 1-11  entry C          line   161 file /cbio/jclab/home/chayas/anaconda/envs/py35/share/psi4/basis/aug-cc-pvtz-jkfit.gbs 
    atoms 12    entry N          line   223 file /cbio/jclab/home/chayas/anaconda/envs/py35/share/psi4/basis/aug-cc-pvtz-jkfit.gbs 
    atoms 13    entry O          line   285 file /cbio/jclab/home/chayas/anaconda/envs/py35/share/psi4/basis/aug-cc-pvtz-jkfit.gbs 
    atoms 14-22 entry H          line    69 file /cbio/jclab/home/chayas/anaconda/envs/py35/share/psi4/basis/aug-cc-pvtz-jkfit.gbs 

  ==> Pre-Iterations <==

   -------------------------------------------------------
    Irrep   Nso     Nmo     Nalpha   Nbeta   Ndocc  Nsocc
   -------------------------------------------------------
     A        805     805       0       0       0       0
   -------------------------------------------------------
    Total     805     805      45      45      45       0
   -------------------------------------------------------

  ==> Integral Setup <==

  ==> DFJK: Density-Fitted J/K Matrices <==

    J tasked:                  Yes
    K tasked:                  Yes
    wK tasked:                  No
    OpenMP threads:              8
    Integrals threads:           8
    Memory (MB):              3576
    Algorithm:                Disk
    Integral Cache:           NONE
    Schwarz Cutoff:          1E-12
    Fitting Condition:       1E-12

   => Auxiliary Basis Set <=

  Basis Set: (AUG-CC-PVTZ AUX)
    Blend: AUG-CC-PVTZ-JKFIT
    Number of shells: 516
    Number of basis function: 1766
    Number of Cartesian functions: 2198
    Spherical Harmonics?: true
    Max angular momentum: 4

  Minimum eigenvalue in the overlap matrix is 5.7674583493E-07.
  Using Symmetric Orthogonalization.

  SCF Guess: Superposition of Atomic Densities via on-the-fly atomic UHF.

  ==> Iterations <==

                           Total Energy        Delta E     RMS |[F,P]|

   @DF-RHF iter   0:  -559.41610468970225   -5.59416e+02   1.64124e-02 
   @DF-RHF iter   1:  -550.94688888367568    8.46922e+00   1.87248e-03 
   @DF-RHF iter   2:  -551.22783019731730   -2.80941e-01   8.96442e-04 DIIS
   @DF-RHF iter   3:  -551.27136302103224   -4.35328e-02   3.06884e-04 DIIS
   @DF-RHF iter   4:  -551.28502333179551   -1.36603e-02   9.07487e-05 DIIS
   @DF-RHF iter   5:  -551.28669280917836   -1.66948e-03   5.09988e-05 DIIS
   @DF-RHF iter   6:  -551.28696021647875   -2.67407e-04   1.60879e-05 DIIS
   @DF-RHF iter   7:  -551.28700542224033   -4.52058e-05   3.39978e-06 DIIS
   @DF-RHF iter   8:  -551.28701088149558   -5.45926e-06   1.88731e-06 DIIS
   @DF-RHF iter   9:  -551.28701235095821   -1.46946e-06   1.03650e-06 DIIS
   @DF-RHF iter  10:  -551.28701298006649   -6.29108e-07   6.87995e-07 DIIS
   @DF-RHF iter  11:  -551.28701309493363   -1.14867e-07   2.04106e-07 DIIS
   @DF-RHF iter  12:  -551.28701311021825   -1.52846e-08   6.04346e-08 DIIS
   @DF-RHF iter  13:  -551.28701311126997   -1.05172e-09   1.87829e-08 DIIS
   @DF-RHF iter  14:  -551.28701311139662   -1.26647e-10   7.84095e-09 DIIS
   @DF-RHF iter  15:  -551.28701311140787   -1.12550e-11   5.06615e-09 DIIS
   @DF-RHF iter  16:  -551.28701311142788   -2.00089e-11   2.43461e-09 DIIS
   @DF-RHF iter  17:  -551.28701311144584   -1.79625e-11   9.61944e-10 DIIS
   @DF-RHF iter  18:  -551.28701311143129    1.45519e-11   3.36401e-10 DIIS
   @DF-RHF iter  19:  -551.28701311142640    4.88853e-12   1.92787e-10 DIIS
   @DF-RHF iter  20:  -551.28701311143698   -1.05729e-11   9.00433e-11 DIIS

  ==> Post-Iterations <==

    Orbital Energies (a.u.)
    -----------------------

    Doubly Occupied:                                                      

       1A    -20.600395     2A    -15.562412     3A    -11.315139  
       4A    -11.273981     5A    -11.273789     6A    -11.262287  
       7A    -11.254334     8A    -11.253080     9A    -11.245276  
      10A    -11.243639    11A    -11.241822    12A    -11.236294  
      13A    -11.236243    14A     -1.415623    15A     -1.248881  
      16A     -1.173231    17A     -1.103726    18A     -1.037638  
      19A     -1.029168    20A     -1.009436    21A     -0.880958  
      22A     -0.869416    23A     -0.842468    24A     -0.810375  
      25A     -0.746884    26A     -0.724609    27A     -0.682454  
      28A     -0.660837    29A     -0.654762    30A     -0.633894  
      31A     -0.614598    32A     -0.605091    33A     -0.601570  
      34A     -0.595241    35A     -0.576463    36A     -0.539835  
      37A     -0.528646    38A     -0.521711    39A     -0.504495  
      40A     -0.492466    41A     -0.417607    42A     -0.389854  
      43A     -0.354736    44A     -0.349039    45A     -0.310376  

    Virtual:                                                              

      46A      0.021708    47A      0.030185    48A      0.032141  
      49A      0.038539    50A      0.042503    51A      0.046277  
      52A      0.052511    53A      0.055748    54A      0.062768  
      55A      0.080429    56A      0.082186    57A      0.084981  
      58A      0.090161    59A      0.095065    60A      0.098192  
      61A      0.101756    62A      0.104635    63A      0.106875  
      64A      0.109399    65A      0.111597    66A      0.113946  
      67A      0.117276    68A      0.120065    69A      0.125285  
      70A      0.128323    71A      0.130578    72A      0.133365  
      73A      0.134378    74A      0.142899    75A      0.146185  
      76A      0.148974    77A      0.150644    78A      0.152343  
      79A      0.156586    80A      0.160171    81A      0.168472  
      82A      0.170637    83A      0.175402    84A      0.178346  
      85A      0.179871    86A      0.188215    87A      0.203144  
      88A      0.205453    89A      0.214502    90A      0.218018  
      91A      0.218968    92A      0.223619    93A      0.231739  
      94A      0.235803    95A      0.239682    96A      0.241198  
      97A      0.246009    98A      0.248200    99A      0.253198  
     100A      0.256424   101A      0.257319   102A      0.264072  
     103A      0.267117   104A      0.270384   105A      0.274931  
     106A      0.279709   107A      0.279726   108A      0.287001  
     109A      0.290996   110A      0.295430   111A      0.300307  
     112A      0.304649   113A      0.307147   114A      0.309406  
     115A      0.314398   116A      0.318987   117A      0.323806  
     118A      0.324332   119A      0.327621   120A      0.332885  
     121A      0.338783   122A      0.342275   123A      0.353552  
     124A      0.358766   125A      0.361511   126A      0.365413  
     127A      0.369397   128A      0.373450   129A      0.381517  
     130A      0.390491   131A      0.394620   132A      0.401264  
     133A      0.403968   134A      0.407720   135A      0.410520  
     136A      0.418624   137A      0.419583   138A      0.421267  
     139A      0.426421   140A      0.435564   141A      0.438504  
     142A      0.441328   143A      0.445091   144A      0.447096  
     145A      0.451499   146A      0.452449   147A      0.458122  
     148A      0.461706   149A      0.464903   150A      0.470583  
     151A      0.475232   152A      0.477033   153A      0.478552  
     154A      0.483004   155A      0.484721   156A      0.488240  
     157A      0.497115   158A      0.502027   159A      0.502838  
     160A      0.504379   161A      0.509203   162A      0.511673  
     163A      0.513968   164A      0.515618   165A      0.519805  
     166A      0.524691   167A      0.527459   168A      0.529819  
     169A      0.535048   170A      0.539055   171A      0.544695  
     172A      0.546129   173A      0.548998   174A      0.554030  
     175A      0.558039   176A      0.561720   177A      0.573197  
     178A      0.577529   179A      0.579741   180A      0.582768  
     181A      0.590792   182A      0.596368   183A      0.605372  
     184A      0.606100   185A      0.612257   186A      0.613479  
     187A      0.628705   188A      0.632996   189A      0.637377  
     190A      0.643546   191A      0.655781   192A      0.661616  
     193A      0.664652   194A      0.676550   195A      0.685952  
     196A      0.690239   197A      0.697189   198A      0.703487  
     199A      0.705474   200A      0.709504   201A      0.714318  
     202A      0.717432   203A      0.724069   204A      0.731732  
     205A      0.732992   206A      0.739251   207A      0.745571  
     208A      0.750053   209A      0.755668   210A      0.756214  
     211A      0.760034   212A      0.772504   213A      0.773095  
     214A      0.788298   215A      0.796542   216A      0.802686  
     217A      0.807465   218A      0.811339   219A      0.814080  
     220A      0.821425   221A      0.826788   222A      0.830493  
     223A      0.832953   224A      0.838208   225A      0.839603  
     226A      0.850368   227A      0.856541   228A      0.865226  
     229A      0.871173   230A      0.876142   231A      0.878646  
     232A      0.879730   233A      0.883146   234A      0.886262  
     235A      0.891951   236A      0.898236   237A      0.903063  
     238A      0.910502   239A      0.914024   240A      0.919645  
     241A      0.926021   242A      0.928732   243A      0.931438  
     244A      0.940927   245A      0.946190   246A      0.946976  
     247A      0.953755   248A      0.962321   249A      0.963965  
     250A      0.968912   251A      0.970078   252A      0.973693  
     253A      0.981225   254A      0.981442   255A      0.987036  
     256A      0.991414   257A      0.999541   258A      1.002534  
     259A      1.009590   260A      1.012122   261A      1.018427  
     262A      1.025720   263A      1.026793   264A      1.031301  
     265A      1.040512   266A      1.044010   267A      1.046329  
     268A      1.052340   269A      1.053308   270A      1.055748  
     271A      1.059899   272A      1.068018   273A      1.070874  
     274A      1.071846   275A      1.077928   276A      1.080613  
     277A      1.082475   278A      1.085565   279A      1.086354  
     280A      1.098381   281A      1.107560   282A      1.110850  
     283A      1.113029   284A      1.114132   285A      1.121995  
     286A      1.131946   287A      1.140489   288A      1.147068  
     289A      1.148151   290A      1.152328   291A      1.153128  
     292A      1.163397   293A      1.164115   294A      1.166488  
     295A      1.172528   296A      1.177296   297A      1.178672  
     298A      1.182797   299A      1.196246   300A      1.201928  
     301A      1.204597   302A      1.211731   303A      1.215920  
     304A      1.220127   305A      1.224651   306A      1.226847  
     307A      1.236415   308A      1.241476   309A      1.251809  
     310A      1.260726   311A      1.261231   312A      1.262251  
     313A      1.267742   314A      1.279466   315A      1.282322  
     316A      1.288606   317A      1.294809   318A      1.296981  
     319A      1.301479   320A      1.315676   321A      1.321029  
     322A      1.330245   323A      1.333319   324A      1.341637  
     325A      1.353986   326A      1.357164   327A      1.361348  
     328A      1.370787   329A      1.379652   330A      1.382018  
     331A      1.394620   332A      1.397042   333A      1.406279  
     334A      1.408012   335A      1.424289   336A      1.429532  
     337A      1.441973   338A      1.444351   339A      1.454850  
     340A      1.463255   341A      1.465991   342A      1.483077  
     343A      1.489814   344A      1.496365   345A      1.500367  
     346A      1.503975   347A      1.512945   348A      1.515120  
     349A      1.527817   350A      1.529327   351A      1.536508  
     352A      1.551093   353A      1.562691   354A      1.573218  
     355A      1.577641   356A      1.585030   357A      1.594879  
     358A      1.597948   359A      1.603845   360A      1.612586  
     361A      1.632451   362A      1.634091   363A      1.648394  
     364A      1.652835   365A      1.656532   366A      1.668445  
     367A      1.672008   368A      1.672523   369A      1.685997  
     370A      1.696509   371A      1.701555   372A      1.707978  
     373A      1.714942   374A      1.727550   375A      1.731903  
     376A      1.734163   377A      1.738318   378A      1.743204  
     379A      1.746203   380A      1.757976   381A      1.763558  
     382A      1.773919   383A      1.789105   384A      1.794372  
     385A      1.805925   386A      1.813415   387A      1.819748  
     388A      1.823158   389A      1.833393   390A      1.841163  
     391A      1.850516   392A      1.854939   393A      1.860868  
     394A      1.863426   395A      1.875942   396A      1.890845  
     397A      1.896171   398A      1.910913   399A      1.915979  
     400A      1.925923   401A      1.933628   402A      1.938146  
     403A      1.942795   404A      1.943436   405A      1.949675  
     406A      1.955583   407A      1.967780   408A      1.977935  
     409A      1.984537   410A      1.997396   411A      1.999620  
     412A      2.006706   413A      2.014953   414A      2.023112  
     415A      2.033502   416A      2.039051   417A      2.044589  
     418A      2.053869   419A      2.054665   420A      2.058577  
     421A      2.078040   422A      2.079643   423A      2.097287  
     424A      2.100040   425A      2.105491   426A      2.116956  
     427A      2.121089   428A      2.130123   429A      2.132863  
     430A      2.143391   431A      2.152398   432A      2.161057  
     433A      2.163580   434A      2.171332   435A      2.182079  
     436A      2.203522   437A      2.207553   438A      2.216139  
     439A      2.220531   440A      2.224657   441A      2.240621  
     442A      2.248263   443A      2.262158   444A      2.271129  
     445A      2.284763   446A      2.288140   447A      2.294452  
     448A      2.303536   449A      2.312745   450A      2.323564  
     451A      2.335378   452A      2.340116   453A      2.358183  
     454A      2.364395   455A      2.366396   456A      2.384811  
     457A      2.390334   458A      2.399192   459A      2.407074  
     460A      2.415954   461A      2.429175   462A      2.433178  
     463A      2.445487   464A      2.460414   465A      2.476261  
     466A      2.482021   467A      2.497227   468A      2.512244  
     469A      2.524004   470A      2.532526   471A      2.535813  
     472A      2.552142   473A      2.569199   474A      2.573492  
     475A      2.584065   476A      2.592470   477A      2.595478  
     478A      2.616591   479A      2.624725   480A      2.627931  
     481A      2.639599   482A      2.654512   483A      2.700203  
     484A      2.707447   485A      2.716639   486A      2.743348  
     487A      2.760698   488A      2.766505   489A      2.777401  
     490A      2.800789   491A      2.808610   492A      2.822675  
     493A      2.837733   494A      2.847839   495A      2.854509  
     496A      2.870756   497A      2.879008   498A      2.898555  
     499A      2.935618   500A      2.939717   501A      2.965355  
     502A      2.995835   503A      3.006905   504A      3.051875  
     505A      3.061502   506A      3.090428   507A      3.099360  
     508A      3.118218   509A      3.141940   510A      3.182612  
     511A      3.204617   512A      3.209716   513A      3.218233  
     514A      3.231089   515A      3.240780   516A      3.249066  
     517A      3.271811   518A      3.282909   519A      3.296737  
     520A      3.305890   521A      3.313925   522A      3.333437  
     523A      3.344084   524A      3.365337   525A      3.375249  
     526A      3.380212   527A      3.396336   528A      3.402287  
     529A      3.405921   530A      3.412533   531A      3.429222  
     532A      3.433455   533A      3.444695   534A      3.455245  
     535A      3.464185   536A      3.474384   537A      3.481989  
     538A      3.487497   539A      3.492494   540A      3.503297  
     541A      3.508884   542A      3.526507   543A      3.538592  
     544A      3.539437   545A      3.550882   546A      3.559844  
     547A      3.563695   548A      3.570582   549A      3.574884  
     550A      3.586176   551A      3.592460   552A      3.598080  
     553A      3.600123   554A      3.623989   555A      3.628162  
     556A      3.640914   557A      3.654090   558A      3.672004  
     559A      3.677808   560A      3.683287   561A      3.698604  
     562A      3.714424   563A      3.714697   564A      3.729030  
     565A      3.734923   566A      3.750184   567A      3.759581  
     568A      3.761586   569A      3.777199   570A      3.784841  
     571A      3.790503   572A      3.798888   573A      3.816996  
     574A      3.819875   575A      3.837297   576A      3.840139  
     577A      3.851879   578A      3.855477   579A      3.858742  
     580A      3.872725   581A      3.884949   582A      3.893906  
     583A      3.900940   584A      3.913489   585A      3.923443  
     586A      3.934583   587A      3.938948   588A      3.944721  
     589A      3.952516   590A      3.960502   591A      3.966717  
     592A      3.977098   593A      3.982098   594A      3.995867  
     595A      4.002592   596A      4.015302   597A      4.024833  
     598A      4.031982   599A      4.035522   600A      4.041373  
     601A      4.047775   602A      4.057682   603A      4.068622  
     604A      4.093485   605A      4.098646   606A      4.107762  
     607A      4.118011   608A      4.126748   609A      4.135707  
     610A      4.142737   611A      4.145143   612A      4.149838  
     613A      4.156319   614A      4.164184   615A      4.171762  
     616A      4.182671   617A      4.202675   618A      4.212302  
     619A      4.215974   620A      4.226106   621A      4.231153  
     622A      4.243522   623A      4.252870   624A      4.272045  
     625A      4.287420   626A      4.305064   627A      4.312930  
     628A      4.316036   629A      4.319317   630A      4.328478  
     631A      4.341818   632A      4.348583   633A      4.352233  
     634A      4.353380   635A      4.370779   636A      4.374279  
     637A      4.380664   638A      4.391492   639A      4.401453  
     640A      4.405982   641A      4.424880   642A      4.429550  
     643A      4.432603   644A      4.443347   645A      4.450722  
     646A      4.461632   647A      4.471958   648A      4.476862  
     649A      4.495089   650A      4.503077   651A      4.511224  
     652A      4.516204   653A      4.524469   654A      4.532861  
     655A      4.536462   656A      4.556092   657A      4.573183  
     658A      4.589451   659A      4.595005   660A      4.617665  
     661A      4.626824   662A      4.628289   663A      4.676422  
     664A      4.677039   665A      4.688923   666A      4.693197  
     667A      4.701423   668A      4.717861   669A      4.741998  
     670A      4.755749   671A      4.765238   672A      4.770505  
     673A      4.796608   674A      4.805196   675A      4.825292  
     676A      4.855241   677A      4.868229   678A      4.878326  
     679A      4.889754   680A      4.908754   681A      4.924168  
     682A      4.943688   683A      4.953096   684A      4.957981  
     685A      4.968527   686A      4.978696   687A      4.980698  
     688A      4.994158   689A      5.007083   690A      5.032920  
     691A      5.036043   692A      5.049958   693A      5.056032  
     694A      5.060302   695A      5.072346   696A      5.091797  
     697A      5.099267   698A      5.105426   699A      5.110225  
     700A      5.136562   701A      5.142998   702A      5.155969  
     703A      5.164395   704A      5.175507   705A      5.177267  
     706A      5.184288   707A      5.195604   708A      5.214017  
     709A      5.231676   710A      5.245173   711A      5.261952  
     712A      5.282320   713A      5.289146   714A      5.306291  
     715A      5.322679   716A      5.324071   717A      5.339077  
     718A      5.346353   719A      5.359672   720A      5.374851  
     721A      5.412532   722A      5.426164   723A      5.438173  
     724A      5.450373   725A      5.458655   726A      5.466138  
     727A      5.479857   728A      5.483048   729A      5.511663  
     730A      5.532304   731A      5.554370   732A      5.567834  
     733A      5.572898   734A      5.645252   735A      5.661630  
     736A      5.677299   737A      5.703294   738A      5.706912  
     739A      5.748348   740A      5.759862   741A      5.800039  
     742A      5.807822   743A      5.825733   744A      5.854142  
     745A      5.868304   746A      5.879319   747A      5.913203  
     748A      5.933123   749A      5.999700   750A      6.054541  
     751A      6.084719   752A      6.117705   753A      6.140933  
     754A      6.200025   755A      6.218593   756A      6.245489  
     757A      6.293367   758A      6.325705   759A      6.346674  
     760A      6.381094   761A      6.409513   762A      6.445894  
     763A      6.481320   764A      6.518010   765A      6.520636  
     766A      6.587487   767A      6.600701   768A      6.706374  
     769A      6.710129   770A      6.727795   771A      6.755548  
     772A      6.872331   773A      6.885328   774A      6.894186  
     775A      6.911473   776A      6.936616   777A      6.994170  
     778A      7.002839   779A      7.049200   780A      7.092355  
     781A      7.103570   782A      7.222200   783A      7.260620  
     784A      7.421906   785A      7.423997   786A      7.439434  
     787A      7.689695   788A      7.709559   789A      7.757411  
     790A      8.011218   791A      8.389649   792A      8.640076  
     793A     15.609291   794A     16.328297   795A     16.589839  
     796A     16.671027   797A     16.765329   798A     18.419456  
     799A     18.734407   800A     19.231804   801A     19.551400  
     802A     19.972489   803A     20.237619   804A     20.309210  
     805A     21.915758  

    Final Occupation by Irrep:
              A 
    DOCC [    45 ]

  Energy converged.

  @DF-RHF Final Energy:  -551.28701311143698

   => Energetics <=

    Nuclear Repulsion Energy =            698.0769145392127939
    One-Electron Energy =               -2132.8782942379639280
    Two-Electron Energy =                 883.5143665873141572
    DFT Exchange-Correlation Energy =       0.0000000000000000
    Empirical Dispersion Energy =           0.0000000000000000
    PCM Polarization Energy =               0.0000000000000000
    EFP Energy =                            0.0000000000000000
    Total Energy =                       -551.2870131114369769



Properties will be evaluated at   0.000000,   0.000000,   0.000000 Bohr

Properties computed using the SCF density matrix

  Nuclear Dipole Moment: (a.u.)
     X:    -0.4741      Y:     0.2218      Z:     1.2113

  Electronic Dipole Moment: (a.u.)
     X:    -0.1495      Y:     0.0890      Z:    -0.2307

  Dipole Moment: (a.u.)
     X:    -0.6237      Y:     0.3109      Z:     0.9806     Total:     1.2030

  Dipole Moment: (Debye)
     X:    -1.5852      Y:     0.7901      Z:     2.4924     Total:     3.0577


*** tstop() called on gpu-1-15.local at Sun Nov 12 11:15:42 2017
Module time:
	user time   =    1098.77 seconds =      18.31 minutes
	system time =      48.97 seconds =       0.82 minutes
	total time  =        496 seconds =       8.27 minutes
Total time:
	user time   =    1098.77 seconds =      18.31 minutes
	system time =      48.97 seconds =       0.82 minutes
	total time  =        496 seconds =       8.27 minutes

  //>>>>>>>>>>>>>>>>>>>>>>>>>>>>>>>>>>>//
  //               DFMP2               //
  //<<<<<<<<<<<<<<<<<<<<<<<<<<<<<<<<<<<//

   => Loading Basis Set <=

    Name: (AUG-CC-PVTZ AUX)
    Role: RIFIT
    Keyword: DF_BASIS_MP2
    atoms 1-11  entry C          line   147 file /cbio/jclab/home/chayas/anaconda/envs/py35/share/psi4/basis/aug-cc-pvtz-ri.gbs 
    atoms 12    entry N          line   205 file /cbio/jclab/home/chayas/anaconda/envs/py35/share/psi4/basis/aug-cc-pvtz-ri.gbs 
    atoms 13    entry O          line   263 file /cbio/jclab/home/chayas/anaconda/envs/py35/share/psi4/basis/aug-cc-pvtz-ri.gbs 
    atoms 14-22 entry H          line    29 file /cbio/jclab/home/chayas/anaconda/envs/py35/share/psi4/basis/aug-cc-pvtz-ri.gbs 

	 --------------------------------------------------------
	                          DF-MP2                         
	      2nd-Order Density-Fitted Moller-Plesset Theory     
	              RMP2 Wavefunction,   8 Threads             
	                                                         
	        Rob Parrish, Justin Turney, Andy Simmonett,      
	           Ed Hohenstein, and C. David Sherrill          
	 --------------------------------------------------------

   => Auxiliary Basis Set <=

  Basis Set: (AUG-CC-PVTZ AUX)
    Blend: AUG-CC-PVTZ-RI
    Number of shells: 490
    Number of basis function: 1792
    Number of Cartesian functions: 2263
    Spherical Harmonics?: true
    Max angular momentum: 4

	 --------------------------------------------------------
	                 NBF =   805, NAUX =  1792
	 --------------------------------------------------------
	   CLASS    FOCC     OCC    AOCC    AVIR     VIR    FVIR
	   PAIRS       0      45      45     760     760       0
	 --------------------------------------------------------


         ------------------------------------------------------------
                                     CPHF                           
                                  Rob Parrish                       
         ------------------------------------------------------------

  ==> Geometry <==

    Molecular point group: c1
    Full point group: C1

    Geometry (in Angstrom), charge = 0, multiplicity = 1:

       Center              X                  Y                   Z               Mass       
    ------------   -----------------  -----------------  -----------------  -----------------
           C         -1.253187677251     0.710804320365    -0.591089114974    12.000000000000
           C         -0.260187677251     0.094804320365     1.522910885026    12.000000000000
           C         -2.331187677251     1.283804320365     0.081910885026    12.000000000000
           C         -1.338187677251     0.667804320365     2.196910885026    12.000000000000
           C          2.200812322749    -0.238195679635    -0.138089114974    12.000000000000
           C          0.680812322749    -1.294195679635    -1.674089114974    12.000000000000
           C          3.237812322749    -0.832195679635    -0.840089114974    12.000000000000
           C          1.785812322749    -1.840195679635    -2.307089114974    12.000000000000
           C         -0.217187677251     0.115804320365     0.128910885026    12.000000000000
           C          0.901812322749    -0.478195679635    -0.569089114974    12.000000000000
           C         -2.374187677251     1.262804320365     1.475910885026    12.000000000000
           N          3.062812322749    -1.629195679635    -1.917089114974    14.003074004780
           O         -3.426187677251     1.822804320365     2.132910885026    15.994914619560
           H         -1.234187677251     0.734804320365    -1.678089114974     1.007825032070
           H          0.539812322749    -0.365195679635     2.098910885026     1.007825032070
           H         -3.135187677251     1.745804320365    -0.485089114974     1.007825032070
           H         -1.366187677251     0.648804320365     3.282910885026     1.007825032070
           H          2.412812322749     0.391804320365     0.719910885026     1.007825032070
           H         -0.319187677251    -1.503195679635    -2.039089114974     1.007825032070
           H          4.269812322749    -0.677195679635    -0.543089114974     1.007825032070
           H          1.666812322749    -2.482195679635    -3.173089114974     1.007825032070
           H         -3.313187677251     1.728804320365     3.091910885026     1.007825032070

  Nuclear repulsion =  698.076914539212794
  Reference energy  = -551.287013111436977

  ==> Basis Set <==

  Basis Set: AUG-CC-PVTZ
    Blend: AUG-CC-PVTZ
    Number of shells: 263
    Number of basis function: 805
    Number of Cartesian functions: 940
    Spherical Harmonics?: true
    Max angular momentum: 3

  ==> CGRSolver (by Rob Parrish) <==

   Number of roots    =         1
   Preconditioning    =    JACOBI
   Convergence cutoff =     1E-06
   Maximum iterations =       100

  ==> CPHFRHamiltonian (by Rob Parrish) <== 

  ==> DFJK: Density-Fitted J/K Matrices <==

    J tasked:                  Yes
    K tasked:                  Yes
    wK tasked:                  No
    OpenMP threads:              8
    Integrals threads:           8
    Memory (MB):              3576
    Algorithm:                Disk
    Integral Cache:           NONE
    Schwarz Cutoff:          1E-12
    Fitting Condition:       1E-12

   => Auxiliary Basis Set <=

  Basis Set: (AUG-CC-PVTZ AUX)
    Blend: AUG-CC-PVTZ-JKFIT
    Number of shells: 516
    Number of basis function: 1766
    Number of Cartesian functions: 2198
    Spherical Harmonics?: true
    Max angular momentum: 4

  ==> CPHF Iterations <==

  => Iterations <=

             Iter  Converged  Remaining    Residual
  CGR           1          0          1   9.005E-02
  CGR           2          0          1   3.609E-02
  CGR           3          0          1   2.481E-02
  CGR           4          0          1   1.007E-02
  CGR           5          0          1   3.986E-03
  CGR           6          0          1   1.659E-03
  CGR           7          0          1   4.600E-04
  CGR           8          0          1   1.353E-04
  CGR           9          0          1   6.200E-05
  CGR          10          0          1   2.893E-05
  CGR          11          0          1   1.266E-05
  CGR          12          0          1   4.759E-06
  CGR          13          0          1   1.442E-06
  CGR          14          1          0   4.747E-07

    CGRSolver converged.

  ==> DFCorrGrad: Density-Fitted Correlated Gradients <==

    OpenMP threads:              8
    Integrals threads:           8
    Memory (MB):              3576
    Schwarz Cutoff:          0E+00
    Fitting Condition:       1E-12

   => Auxiliary Basis Set <=

  Basis Set: (AUG-CC-PVTZ AUX)
    Blend: AUG-CC-PVTZ-JKFIT
    Number of shells: 516
    Number of basis function: 1766
    Number of Cartesian functions: 2198
    Spherical Harmonics?: true
    Max angular momentum: 4

	-----------------------------------------------------------
	 ==================> DF-MP2 Energies <==================== 
	-----------------------------------------------------------
	 Reference Energy          =    -551.2870131114369769 [Eh]
	 Singles Energy            =      -0.0000000000000003 [Eh]
	 Same-Spin Energy          =      -0.6048126345738994 [Eh]
	 Opposite-Spin Energy      =      -1.8304426270868284 [Eh]
	 Correlation Energy        =      -2.4352552616607284 [Eh]
	 Total Energy              =    -553.7222683730976769 [Eh]
	-----------------------------------------------------------
	 ================> DF-SCS-MP2 Energies <================== 
	-----------------------------------------------------------
	 SCS Same-Spin Scale       =       0.3333333333333333 [-]
	 SCS Opposite-Spin Scale   =       1.2000000000000000 [-]
	 SCS Same-Spin Energy      =      -0.2016042115246331 [Eh]
	 SCS Opposite-Spin Energy  =      -2.1965311525041940 [Eh]
	 SCS Correlation Energy    =      -2.3981353640288274 [Eh]
	 SCS Total Energy          =    -553.6851484754657804 [Eh]
	-----------------------------------------------------------


  -Total Gradient:
     Atom            X                  Y                   Z
    ------   -----------------  -----------------  -----------------
       1        0.008777932929    -0.001317913423    -0.008659705289
       2        0.006717692441    -0.006890975976    -0.004735751133
       3        0.002132708989    -0.000847370568     0.002088340600
       4       -0.006336006336     0.003032211041     0.006925278246
       5       -0.005087657199     0.007089030655     0.004880763070
       6       -0.009618165723    -0.000623528684     0.002628882267
       7       -0.003264737862     0.008194850216     0.009304613722
       8       -0.012868053636     0.000254376899     0.000657921564
       9        0.003662269337    -0.002017108641    -0.002717866363
      10        0.003525658883    -0.000900328468    -0.001374263998
      11       -0.007314016764     0.004162353226    -0.007929999718
      12        0.012917564522    -0.006607764578    -0.007811049118
      13        0.005739817244    -0.003132283713     0.000542914361
      14       -0.001660484143    -0.000095581815    -0.005781654303
      15        0.003782310246    -0.001078031081     0.004756728001
      16       -0.002900126308     0.001357314804    -0.005176702063
      17        0.001006419484    -0.000268338382     0.003691064141
      18        0.002778025403     0.001552929818     0.004131580799
      19       -0.003334486407    -0.000954667910    -0.003418581383
      20        0.002741741077    -0.000332224628     0.000458440936
      21        0.000255117542    -0.001176716113    -0.002128154161
      22       -0.001653523717     0.000599767330     0.009667199838


*** tstop() called on gpu-1-15.local at Sun Nov 12 11:48:15 2017
Module time:
	user time   =    5148.05 seconds =      85.80 minutes
	system time =     106.59 seconds =       1.78 minutes
	total time  =       2449 seconds =      40.82 minutes
Total time:
	user time   =    5148.05 seconds =      85.80 minutes
	system time =     106.59 seconds =       1.78 minutes
	total time  =       2449 seconds =      40.82 minutes

			-----------------------------------------
			 OPTKING 2.0: for geometry optimizations 
			  - R.A. King,  Bethel University        
			-----------------------------------------

	Internal coordinates to be generated automatically.
	Detected frag 1 with atoms:  1 2 3 4 5 6 7 8 9 10 11 12 13 14 15 16 17 18 19 20
	 21 22
	---Fragment 1 Bond Connectivity---
	 1 : 3 9 14
	 2 : 4 9 15
	 3 : 1 11 16
	 4 : 2 11 17
	 5 : 7 10 18
	 6 : 8 10 19
	 7 : 5 12 20
	 8 : 6 12 21
	 9 : 1 2 10
	 10 : 5 6 9
	 11 : 3 4 13
	 12 : 7 8
	 13 : 11 22
	 14 : 1
	 15 : 2
	 16 : 3
	 17 : 4
	 18 : 5
	 19 : 6
	 20 : 7
	 21 : 8
	 22 : 13

	Assuming in current code that numbering for constraints corresponds to unified fragment.
	Fixed dihedral atom list: 
	     1     9    10     5
	---Fragment 1 Geometry and Gradient---
	 C          -2.3681815031        1.3432254996       -1.1169965474
	 C          -0.4916834532        0.1791542017        2.8778844975
	 C          -4.4053062744        2.4260385737        0.1547891400
	 C          -2.5288082244        1.2619672758        4.1515599111
	 C           4.1589325599       -0.4501246005       -0.2609506092
	 C           1.2865488379       -2.4456753969       -3.1635699493
	 C           6.1185785597       -1.5726219235       -1.5875383545
	 C           3.3746962147       -3.4774658654       -4.3597665915
	 C          -0.4104252294        0.2188384505        0.2436062682
	 C           1.7041783133       -0.9036588724       -1.0754225725
	 C          -4.4865644981        2.3863543249        2.7890673692
	 N           5.7878764864       -3.0787336514       -3.6227733996
	 O          -6.4745563899        3.4446009593        4.0306174385
	 H          -2.3322767066        1.3885789268       -3.1711288539
	 H           1.0200974532       -0.6901198194        3.9663667500
	 H          -5.9246460852        3.2990920471       -0.9166855773
	 H          -2.5817205561        1.2260624793        6.2038024914
	 H           4.5595545000        0.7404028632        1.3604344128
	 H          -0.6031772950       -2.8406281586       -3.8533199878
	 H           8.0687759288       -1.2797143729       -1.0262896931
	 H           3.1498188049       -4.6906700427       -5.9962694225
	 H          -6.2610173369        3.2669667028        5.8428648000
	             0.0087779329       -0.0013179134       -0.0086597053
	             0.0067176924       -0.0068909760       -0.0047357511
	             0.0021327090       -0.0008473706        0.0020883406
	            -0.0063360063        0.0030322110        0.0069252782
	            -0.0050876572        0.0070890307        0.0048807631
	            -0.0096181657       -0.0006235287        0.0026288823
	            -0.0032647379        0.0081948502        0.0093046137
	            -0.0128680536        0.0002543769        0.0006579216
	             0.0036622693       -0.0020171086       -0.0027178664
	             0.0035256589       -0.0009003285       -0.0013742640
	            -0.0073140168        0.0041623532       -0.0079299997
	             0.0129175645       -0.0066077646       -0.0078110491
	             0.0057398172       -0.0031322837        0.0005429144
	            -0.0016604841       -0.0000955818       -0.0057816543
	             0.0037823102       -0.0010780311        0.0047567280
	            -0.0029001263        0.0013573148       -0.0051767021
	             0.0010064195       -0.0002683384        0.0036910641
	             0.0027780254        0.0015529298        0.0041315808
	            -0.0033344864       -0.0009546679       -0.0034185814
	             0.0027417411       -0.0003322246        0.0004584409
	             0.0002551175       -0.0011767161       -0.0021281542
	            -0.0016535237        0.0005997673        0.0096671998

	Previous optimization step data not found.  Starting new optimization.

	---Fragment 1 Intrafragment Coordinates---
	 - Coordinate -           - BOHR/RAD -       - ANG/DEG -
	 R(1,3)           =         2.634350	       1.394038
	 R(1,9)           =         2.635962	       1.394891
	 R(1,14)          =         2.054947	       1.087431
	 R(2,4)           =         2.635263	       1.394521
	 R(2,9)           =         2.635830	       1.394821
	 R(2,15)          =         2.055702	       1.087831
	 R(3,11)          =         2.635830	       1.394821
	 R(3,16)          =         2.053941	       1.086899
	 R(4,11)          =         2.636938	       1.395407
	 R(4,17)          =         2.053239	       1.086527
	 R(5,7)           =         2.619169	       1.386005
	 R(5,10)          =         2.625810	       1.389519
	 R(5,18)          =         2.051035	       1.085361
	 R(6,8)           =         2.618365	       1.385579
	 R(6,10)          =         2.629180	       1.391302
	 R(6,19)          =         2.050075	       1.084853
	 R(7,12)          =         2.553413	       1.351208
	 R(7,20)          =         2.050382	       1.085015
	 R(8,12)          =         2.554523	       1.351795
	 R(8,21)          =         2.049531	       1.084565
	 R(9,10)          =         2.733384	       1.446444
	 R(11,13)         =         2.571662	       1.360865
	 R(13,22)         =         1.833410	       0.970199
	 B(1,3,11)        =         2.094553	     120.009056
	 B(1,3,16)        =         2.088505	     119.662516
	 B(1,9,2)         =         2.093692	     119.959722
	 B(1,9,10)        =         2.095161	     120.043881
	 B(2,4,11)        =         2.093699	     119.960108
	 B(2,4,17)        =         2.089577	     119.723926
	 B(2,9,10)        =         2.094332	     119.996376
	 B(3,1,9)         =         2.094940	     120.031219
	 B(3,1,14)        =         2.079469	     119.144799
	 B(3,11,4)        =         2.094306	     119.994870
	 B(3,11,13)       =         2.094549	     120.008801
	 B(4,2,9)         =         2.095181	     120.045019
	 B(4,2,15)        =         2.078675	     119.099297
	 B(4,11,13)       =         2.094331	     119.996326
	 B(5,7,12)        =         2.164692	     124.027733
	 B(5,7,20)        =         2.108041	     120.781879
	 B(5,10,6)        =         2.089953	     119.745501
	 B(5,10,9)        =         2.097415	     120.173046
	 B(6,8,12)        =         2.165258	     124.060162
	 B(6,8,21)        =         2.106610	     120.699836
	 B(6,10,9)        =         2.095815	     120.081380
	 B(7,5,10)        =         2.058192	     117.925744
	 B(7,5,18)        =         2.097879	     120.199625
	 B(7,12,8)        =         2.031270	     116.383219
	 B(8,6,10)        =         2.057004	     117.857627
	 B(8,6,19)        =         2.100757	     120.364494
	 B(9,1,14)        =         2.108776	     120.823969
	 B(9,2,15)        =         2.109330	     120.855683
	 B(10,5,18)       =         2.127113	     121.874622
	 B(10,6,19)       =         2.125424	     121.777841
	 B(11,3,16)       =         2.100127	     120.328425
	 B(11,4,17)       =         2.099910	     120.315955
	 B(11,13,22)      =         1.925489	     110.322421
	 B(12,7,20)       =         2.010451	     115.190368
	 B(12,8,21)       =         2.011317	     115.239998
	 D(1,3,11,4)      =        -0.000325	      -0.018609
	 D(1,3,11,13)     =         3.140978	     179.964785
	 D(1,9,2,4)       =         0.000325	       0.018608
	 D(1,9,2,15)      =        -3.141497	    -179.994534
	 D(1,9,10,5)      =         2.356097	     134.994392
	 D(1,9,10,6)      =        -0.787212	     -45.103949
	 D(2,4,11,3)      =         0.000301	       0.017261
	 D(2,4,11,13)     =        -3.141002	    -179.966135
	 D(2,9,1,3)       =        -0.000348	      -0.019945
	 D(2,9,1,14)      =        -3.141221	    -179.978731
	 D(2,9,10,5)      =        -0.784580	     -44.953105
	 D(2,9,10,6)      =         2.355297	     134.948554
	 D(3,1,9,10)      =        -3.141025	    -179.967461
	 D(3,11,4,17)     =         3.141223	     179.978848
	 D(3,11,13,22)    =         3.140828	     179.956172
	 D(4,2,9,10)      =         3.141002	     179.966149
	 D(4,11,3,16)     =         3.141593	     180.000000
	 D(4,11,13,22)    =        -0.001055	      -0.060434
	 D(5,7,12,8)      =        -0.000626	      -0.035875
	 D(5,10,6,8)      =        -0.000610	      -0.034971
	 D(5,10,6,19)     =        -3.140980	    -179.964894
	 D(6,8,12,7)      =         0.000230	       0.013168
	 D(6,10,5,7)      =         0.000256	       0.014648
	 D(6,10,5,18)     =        -3.140733	    -179.950741
	 D(7,5,10,9)      =         3.140138	     179.916638
	 D(7,12,8,21)     =         3.141393	     179.988585
	 D(8,6,10,9)      =        -3.140494	    -179.937052
	 D(8,12,7,20)     =         3.140064	     179.912419
	 D(9,1,3,11)      =         0.000348	       0.019955
	 D(9,1,3,16)      =        -3.141571	    -179.998735
	 D(9,2,4,11)      =        -0.000301	      -0.017270
	 D(9,2,4,17)      =        -3.141228	    -179.979086
	 D(9,10,5,18)     =        -0.000851	      -0.048750
	 D(9,10,6,19)     =         0.002322	       0.133025
	 D(10,5,7,12)     =         0.000391	       0.022416
	 D(10,5,7,20)     =        -3.140251	    -179.923123
	 D(10,6,8,12)     =         0.000375	       0.021466
	 D(10,6,8,21)     =        -3.140767	    -179.952675
	 D(10,9,1,14)     =         0.001287	       0.073752
	 D(10,9,2,15)     =        -0.000820	      -0.046992
	 D(11,3,1,14)     =         3.141234	     179.979432
	 D(11,4,2,15)     =         3.141517	     179.995641
	 D(12,7,5,18)     =         3.141390	     179.988408
	 D(12,8,6,19)     =         3.140762	     179.952423
	 D(13,11,3,16)    =        -0.000286	      -0.016400
	 D(13,11,4,17)    =        -0.000079	      -0.004548
	 D(14,1,3,16)     =        -0.000685	      -0.039257
	 D(15,2,4,17)     =         0.000590	       0.033826
	 D(18,5,7,20)     =         0.000748	       0.042869
	 D(19,6,8,21)     =        -0.000379	      -0.021717

	Current energy   :      -553.7222683731

	Generating empirical Hessian (Schlegel '84) for each fragment.
	Adding user-defined constraint: Fragment 1; Coordinate 63:
		Value =     2.356097; Fixed value    =     2.356194
		Force =     0.000049; Force constant =     0.500000
	Removing off-diagonal coupling between coordinate 63 and others.
	Taking RFO optimization step.
	Going to follow RFO solution 1.
	Using RFO vector 1.

	Determining step-restricting scale parameter for RS-RFO.
	Maximum step size allowed    0.10000

	 Iter      |step|        alpha        rfo_root  
	------------------------------------------------
	    0     0.17698       1.00000           1
	    1     0.14165       5.36585           1
	    2     0.11736      15.38489           1
	    3     0.10390      26.40283           1
	    4     0.10026      30.44198           1
	    5     0.10000      30.74525           1
	------------------------------------------------
	Norm of target step-size    0.10000
	Projected energy change by RFO approximation:        -0.0043104095

	Back-transformation to cartesian coordinates...
	Could not converge backtransformation.
	Using first guess instead.

	--- Internal Coordinate Step in ANG or DEG, aJ/ANG or AJ/DEG ---
	 ---------------------------------------------------------------------------
	   Coordinate                Previous        Force       Change         New 
	   ----------                --------       ------       ------       ------
	    1 R(1,3)          =      1.394038    -0.056384    -0.006094     1.387944
	    2 R(1,9)          =      1.394891    -0.013417    -0.001244     1.393647
	    3 R(1,14)         =      1.087431    -0.047358    -0.006295     1.081136
	    4 R(2,4)          =      1.394521    -0.058638    -0.006261     1.388260
	    5 R(2,9)          =      1.394821    -0.025116    -0.002545     1.392277
	    6 R(2,15)         =      1.087831    -0.047423    -0.006302     1.081529
	    7 R(3,11)         =      1.394821    -0.081197    -0.008859     1.385962
	    8 R(3,16)         =      1.086899    -0.044676    -0.005889     1.081010
	    9 R(4,11)         =      1.395407    -0.034909    -0.003829     1.391578
	   10 R(4,17)         =      1.086527    -0.030220    -0.004008     1.082519
	   11 R(5,7)          =      1.386005     0.000671     0.000073     1.386078
	   12 R(5,10)         =      1.389519    -0.001086     0.000474     1.389993
	   13 R(5,18)         =      1.085361    -0.038805    -0.005130     1.080231
	   14 R(6,8)          =      1.385579     0.002235     0.000219     1.385799
	   15 R(6,10)         =      1.391302    -0.010194    -0.000579     1.390723
	   16 R(6,19)         =      1.084853    -0.036314    -0.004793     1.080060
	   17 R(7,12)         =      1.351208    -0.116526    -0.011315     1.339893
	   18 R(7,20)         =      1.085015    -0.022128    -0.002919     1.082096
	   19 R(8,12)         =      1.351795    -0.118934    -0.011582     1.340213
	   20 R(8,21)         =      1.084565    -0.019508    -0.002565     1.081999
	   21 R(9,10)         =      1.446444     0.127317     0.015759     1.462203
	   22 R(11,13)        =      1.360865    -0.006000    -0.000051     1.360813
	   23 R(13,22)        =      0.970199    -0.076661    -0.007368     0.962831
	   24 B(1,3,11)       =    120.009056    -0.000041    -0.137906   119.871151
	   25 B(1,3,16)       =    119.662516     0.000235     0.624475   120.286991
	   26 B(1,9,2)        =    119.959722    -0.000594    -1.155778   118.803944
	   27 B(1,9,10)       =    120.043881     0.000307     0.599464   120.643346
	   28 B(2,4,11)       =    119.960108     0.000105     0.197900   120.158009
	   29 B(2,4,17)       =    119.723926     0.000031     0.115883   119.839809
	   30 B(2,9,10)       =    119.996376     0.000287     0.556208   120.552584
	   31 B(3,1,9)        =    120.031219     0.000410     0.865748   120.896967
	   32 B(3,1,14)       =    119.144799    -0.000093    -0.143883   119.000917
	   33 B(3,11,4)       =    119.994870    -0.000084    -0.218154   119.776716
	   34 B(3,11,13)      =    120.008801    -0.000840    -1.629720   118.379081
	   35 B(4,2,9)        =    120.045019     0.000204     0.448081   120.493100
	   36 B(4,2,15)       =    119.099297     0.000053     0.177101   119.276398
	   37 B(4,11,13)      =    119.996326     0.000924     1.847875   121.844201
	   38 B(5,7,12)       =    124.027733     0.000000    -0.077650   123.950082
	   39 B(5,7,20)       =    120.781879    -0.000053    -0.098858   120.683021
	   40 B(5,10,6)       =    119.745501    -0.000995    -1.848892   117.896609
	   41 B(5,10,9)       =    120.173046     0.000497     0.923244   121.096291
	   42 B(6,8,12)       =    124.060162    -0.000003    -0.089306   123.970855
	   43 B(6,8,21)       =    120.699836    -0.000038    -0.056279   120.643557
	   44 B(6,10,9)       =    120.081380     0.000499     0.925720   121.007100
	   45 B(7,5,10)       =    117.925744     0.000432     0.982524   118.908268
	   46 B(7,5,18)       =    120.199625    -0.000064    -0.099014   120.100611
	   47 B(7,12,8)       =    116.383219     0.000114     0.015363   116.398582
	   48 B(8,6,10)       =    117.857627     0.000452     1.017964   118.875591
	   49 B(8,6,19)       =    120.364494    -0.000090    -0.156900   120.207594
	   50 B(9,1,14)       =    120.823969    -0.000317    -0.722152   120.101817
	   51 B(9,2,15)       =    120.855683    -0.000257    -0.625762   120.229920
	   52 B(10,5,18)      =    121.874622    -0.000369    -0.883759   120.990864
	   53 B(10,6,19)      =    121.777841    -0.000362    -0.861201   120.916640
	   54 B(11,3,16)      =    120.328425    -0.000194    -0.486621   119.841804
	   55 B(11,4,17)      =    120.315955    -0.000135    -0.313774   120.002181
	   56 B(11,13,22)     =    110.322421    -0.000440    -1.132620   109.189801
	   57 B(12,7,20)      =    115.190368     0.000053     0.176421   115.366789
	   58 B(12,8,21)      =    115.239998     0.000040     0.145470   115.385469
	   59 D(1,3,11,4)     =     -0.018609     0.000002     0.045782     0.027173
	   60 D(1,3,11,13)    =    179.964785     0.000002     0.047380   180.012165
	   61 D(1,9,2,4)      =      0.018608     0.000003     0.089677     0.108284
	   62 D(1,9,2,15)     =   -179.994534    -0.000009    -0.176598  -180.171132
	   63 D(1,9,10,5)     =    134.994392     0.000008     0.082373   135.076765
	   64 D(1,9,10,6)     =    -45.103949     0.000011     0.182847   -44.921102
	   65 D(2,4,11,3)     =      0.017261     0.000002     0.038438     0.055700
	   66 D(2,4,11,13)    =   -179.966135     0.000002     0.037379  -179.928756
	   67 D(2,9,1,3)      =     -0.019945     0.000001    -0.005044    -0.024989
	   68 D(2,9,1,14)     =   -179.978731    -0.000011    -0.247307  -180.226038
	   69 D(2,9,10,5)     =    -44.953105     0.000010     0.160555   -44.792551
	   70 D(2,9,10,6)     =    134.948554     0.000013     0.261028   135.209582
	   71 D(3,1,9,10)     =   -179.967461     0.000002     0.070903  -179.896558
	   72 D(3,11,4,17)    =    179.978848     0.000004     0.092088   180.070936
	   73 D(3,11,13,22)   =    179.956172    -0.000000    -0.001959   179.954213
	   74 D(4,2,9,10)     =    179.966149     0.000002     0.013824   179.979974
	   75 D(4,11,3,16)    =    180.000000     0.000005     0.111363   180.111363
	   76 D(4,11,13,22)   =     -0.060434     0.000000    -0.000687    -0.061121
	   77 D(5,7,12,8)     =     -0.035875     0.000000     0.009738    -0.026136
	   78 D(5,10,6,8)     =     -0.034971     0.000001     0.034971     0.000000
	   79 D(5,10,6,19)    =   -179.964894    -0.000009    -0.186086  -180.150980
	   80 D(6,8,12,7)     =      0.013168    -0.000001    -0.017380    -0.004212
	   81 D(6,10,5,7)     =      0.014648    -0.000001    -0.042880    -0.028232
	   82 D(6,10,5,18)    =   -179.950741    -0.000012    -0.262097  -180.212838
	   83 D(7,5,10,9)     =    179.916638     0.000002     0.057198   179.973837
	   84 D(7,12,8,21)    =    179.988585     0.000006     0.132359   180.120944
	   85 D(8,6,10,9)     =   -179.937052    -0.000002    -0.064279  -180.001331
	   86 D(8,12,7,20)    =    179.912419     0.000008     0.180223   180.092642
	   87 D(9,1,3,11)     =      0.019955    -0.000003    -0.062424    -0.042469
	   88 D(9,1,3,16)     =   -179.998735    -0.000006    -0.128304  -180.127039
	   89 D(9,2,4,11)     =     -0.017270    -0.000005    -0.107275    -0.124545
	   90 D(9,2,4,17)     =   -179.979086    -0.000007    -0.160671  -180.139756
	   91 D(9,10,5,18)    =     -0.048750    -0.000009    -0.162019    -0.210770
	   92 D(9,10,6,19)    =      0.133025    -0.000012    -0.286072    -0.153047
	   93 D(10,5,7,12)    =      0.022416     0.000001     0.020599     0.043015
	   94 D(10,5,7,20)    =   -179.923123    -0.000007    -0.158659  -180.081782
	   95 D(10,6,8,12)    =      0.021466     0.000000    -0.004966     0.016500
	   96 D(10,6,8,21)    =   -179.952675    -0.000007    -0.162251  -180.114925
	   97 D(10,9,1,14)    =      0.073752    -0.000009    -0.171360    -0.097607
	   98 D(10,9,2,15)    =     -0.046992    -0.000010    -0.252450    -0.299442
	   99 D(11,3,1,14)    =    179.979432     0.000008     0.176969   180.156401
	  100 D(11,4,2,15)    =    179.995641     0.000007     0.156584   180.152225
	  101 D(12,7,5,18)    =    179.988408     0.000011     0.237528   180.225936
	  102 D(12,8,6,19)    =    179.952423     0.000010     0.214688   180.167111
	  103 D(13,11,3,16)   =     -0.016400     0.000005     0.112754     0.096355
	  104 D(13,11,4,17)   =     -0.004548     0.000004     0.091028     0.086480
	  105 D(14,1,3,16)    =     -0.039257     0.000005     0.111089     0.071832
	  106 D(15,2,4,17)    =      0.033826     0.000005     0.103188     0.137014
	  107 D(18,5,7,20)    =      0.042869     0.000003     0.058270     0.101139
	  108 D(19,6,8,21)    =     -0.021717     0.000003     0.057403     0.035686
	 ---------------------------------------------------------------------------
	Successfully symmetrized geometry.
	 Forces used to impose fixed constraints are not included.
	  Forces zeroed: 63 

  ==> Convergence Check <==

  Measures of convergence in internal coordinates in au.
  Criteria marked as inactive (o), active & met (*), and active & unmet ( ).
  --------------------------------------------------------------------------------------------- ~
   Step     Total Energy     Delta E     MAX Force     RMS Force      MAX Disp      RMS Disp    ~
  --------------------------------------------------------------------------------------------- ~
    Convergence Criteria    1.00e-06 *    3.00e-04 *             o    1.20e-03 *             o  ~
  --------------------------------------------------------------------------------------------- ~
      1    -553.72226837   -5.54e+02      1.55e-02      4.29e-03 o    3.23e-02      9.62e-03 o  ~
  ---------------------------------------------------------------------------------------------

	Writing optimization data to binary file.
	Structure for next step:
	Cartesian Geometry (in Angstrom)
	    C    -1.2672384031   0.7146595803  -0.5631596239
	    C    -0.2733957228   0.1030873817   1.5317652634
	    C    -2.3410710999   1.2868631920   0.1045640806
	    C    -1.3463776728   0.6727047603   2.2037105703
	    C     2.2145657416  -0.2556676029  -0.1563408154
	    C     0.7056314451  -1.2969573445  -1.6775011037
	    C     3.2511647895  -0.8468342015  -0.8614627623
	    C     1.8082002091  -1.8418775404  -2.3161263115
	    C    -0.2231562411   0.1171185749   0.1404661607
	    C     0.9065604501  -0.4820681797  -0.5685852421
	    C    -2.3827110164   1.2666471012   1.4897526652
	    N     3.0750564273  -1.6338962611  -1.9314306182
	    O    -3.4498370349   1.8362392907   2.1131466200
	    H    -1.2478786579   0.7406294940  -1.6438104020
	    H     0.5230580952  -0.3568911083   2.1007874803
	    H    -3.1446708113   1.7495660263  -0.4510582341
	    H    -1.3757325928   0.6538396978   3.2856666124
	    H     2.4282057398   0.3717754098   0.6966371083
	    H    -0.2903836283  -1.5074066404  -2.0383268767
	    H     4.2802269934  -0.6889477605  -0.5664468367
	    H     1.6848476267  -2.4812664267  -3.1802379148
	    H    -3.3441935361   1.7473776053   3.0660296506
			--------------------------
			 OPTKING Finished Execution 
			--------------------------

    Structure for next step:
    Molecular point group: c1
    Full point group: C1

    Geometry (in Angstrom), charge = 0, multiplicity = 1:

    C           -1.267332726941     0.714814519677    -0.562912944213
    C           -0.273490046648     0.103242321024     1.532011943110
    C           -2.341165423792     1.287018131324     0.104810760283
    C           -1.346471996634     0.672859699710     2.203957249961
    C            2.214471417709    -0.255512663554    -0.156094135667
    C            0.705537121181    -1.296802405162    -1.677254423986
    C            3.251070465618    -0.846679262088    -0.861216082598
    C            1.808105885253    -1.841722601034    -2.315879631801
    C           -0.223250564984     0.117273514224     0.140712840354
    C            0.906466126243    -0.481913240301    -0.568338562368
    C           -2.382805340299     1.266802040556     1.489999344913
    N            3.074962103413    -1.633741321771    -1.931183938462
    O           -3.449931358764     1.836394230110     2.113393299670
    H           -1.247972981767     0.740784433332    -1.643563722308
    H            0.522963771308    -0.356736168975     2.101034160046
    H           -3.144765135139     1.749720965621    -0.450811554400
    H           -1.375826916714     0.653994637177     3.285913292110
    H            2.428111415889     0.371930349132     0.696883788034
    H           -0.290477952192    -1.507251701078    -2.038080196953
    H            4.280132669500    -0.688792821139    -0.566200156991
    H            1.684753302787    -2.481111487359    -3.179991235121
    H           -3.344287859934     1.747532544706     3.066276330305

gradient() will perform analytic gradient computation.

*** tstart() called on gpu-1-15.local
*** at Sun Nov 12 11:48:16 2017

    SCF Algorithm Type (re)set to DF.

*** tstart() called on gpu-1-15.local
*** at Sun Nov 12 11:48:16 2017

   => Loading Basis Set <=

    Name: AUG-CC-PVTZ
    Role: ORBITAL
    Keyword: BASIS
    atoms 1-11  entry C          line   221 file /cbio/jclab/home/chayas/anaconda/envs/py35/share/psi4/basis/aug-cc-pvtz.gbs 
    atoms 12    entry N          line   267 file /cbio/jclab/home/chayas/anaconda/envs/py35/share/psi4/basis/aug-cc-pvtz.gbs 
    atoms 13    entry O          line   313 file /cbio/jclab/home/chayas/anaconda/envs/py35/share/psi4/basis/aug-cc-pvtz.gbs 
    atoms 14-22 entry H          line    34 file /cbio/jclab/home/chayas/anaconda/envs/py35/share/psi4/basis/aug-cc-pvtz.gbs 


         ---------------------------------------------------------
                                   SCF
            by Justin Turney, Rob Parrish, and Andy Simmonett
                              RHF Reference
                        8 Threads,   4768 MiB Core
         ---------------------------------------------------------

  ==> Geometry <==

    Molecular point group: c1
    Full point group: C1

    Geometry (in Angstrom), charge = 0, multiplicity = 1:

       Center              X                  Y                   Z               Mass       
    ------------   -----------------  -----------------  -----------------  -----------------
           C         -1.267332726941     0.714814519677    -0.562912944213    12.000000000000
           C         -0.273490046648     0.103242321024     1.532011943110    12.000000000000
           C         -2.341165423792     1.287018131324     0.104810760283    12.000000000000
           C         -1.346471996634     0.672859699710     2.203957249961    12.000000000000
           C          2.214471417709    -0.255512663554    -0.156094135667    12.000000000000
           C          0.705537121181    -1.296802405162    -1.677254423986    12.000000000000
           C          3.251070465618    -0.846679262088    -0.861216082598    12.000000000000
           C          1.808105885253    -1.841722601034    -2.315879631801    12.000000000000
           C         -0.223250564984     0.117273514224     0.140712840354    12.000000000000
           C          0.906466126243    -0.481913240301    -0.568338562368    12.000000000000
           C         -2.382805340299     1.266802040556     1.489999344913    12.000000000000
           N          3.074962103413    -1.633741321771    -1.931183938462    14.003074004780
           O         -3.449931358764     1.836394230110     2.113393299670    15.994914619560
           H         -1.247972981767     0.740784433332    -1.643563722308     1.007825032070
           H          0.522963771308    -0.356736168975     2.101034160046     1.007825032070
           H         -3.144765135139     1.749720965621    -0.450811554400     1.007825032070
           H         -1.375826916714     0.653994637177     3.285913292110     1.007825032070
           H          2.428111415889     0.371930349132     0.696883788034     1.007825032070
           H         -0.290477952192    -1.507251701078    -2.038080196953     1.007825032070
           H          4.280132669500    -0.688792821139    -0.566200156991     1.007825032070
           H          1.684753302787    -2.481111487359    -3.179991235121     1.007825032070
           H         -3.344287859934     1.747532544706     3.066276330305     1.007825032070

  Running in c1 symmetry.

  Rotational constants: A =      0.09842  B =      0.01325  C =      0.01209 [cm^-1]
  Rotational constants: A =   2950.44276  B =    397.07825  C =    362.50234 [MHz]
  Nuclear repulsion =  697.823574759276084

  Charge       = 0
  Multiplicity = 1
  Electrons    = 90
  Nalpha       = 45
  Nbeta        = 45

  ==> Algorithm <==

  SCF Algorithm Type is DF.
  DIIS enabled.
  MOM disabled.
  Fractional occupation disabled.
  Guess Type is READ.
  Energy threshold   = 1.00e-10
  Density threshold  = 1.00e-10
  Integral threshold = 0.00e+00

  ==> Primary Basis <==

  Basis Set: AUG-CC-PVTZ
    Blend: AUG-CC-PVTZ
    Number of shells: 263
    Number of basis function: 805
    Number of Cartesian functions: 940
    Spherical Harmonics?: true
    Max angular momentum: 3

   => Loading Basis Set <=

    Name: (AUG-CC-PVTZ AUX)
    Role: JKFIT
    Keyword: DF_BASIS_SCF
    atoms 1-11  entry C          line   161 file /cbio/jclab/home/chayas/anaconda/envs/py35/share/psi4/basis/aug-cc-pvtz-jkfit.gbs 
    atoms 12    entry N          line   223 file /cbio/jclab/home/chayas/anaconda/envs/py35/share/psi4/basis/aug-cc-pvtz-jkfit.gbs 
    atoms 13    entry O          line   285 file /cbio/jclab/home/chayas/anaconda/envs/py35/share/psi4/basis/aug-cc-pvtz-jkfit.gbs 
    atoms 14-22 entry H          line    69 file /cbio/jclab/home/chayas/anaconda/envs/py35/share/psi4/basis/aug-cc-pvtz-jkfit.gbs 

  Reading orbitals from file 180, no projection.

  ==> Pre-Iterations <==

   -------------------------------------------------------
    Irrep   Nso     Nmo     Nalpha   Nbeta   Ndocc  Nsocc
   -------------------------------------------------------
     A        805     805       0       0       0       0
   -------------------------------------------------------
    Total     805     805      45      45      45       0
   -------------------------------------------------------

  ==> Integral Setup <==

  ==> DFJK: Density-Fitted J/K Matrices <==

    J tasked:                  Yes
    K tasked:                  Yes
    wK tasked:                  No
    OpenMP threads:              8
    Integrals threads:           8
    Memory (MB):              3576
    Algorithm:                Disk
    Integral Cache:           NONE
    Schwarz Cutoff:          1E-12
    Fitting Condition:       1E-12

   => Auxiliary Basis Set <=

  Basis Set: (AUG-CC-PVTZ AUX)
    Blend: AUG-CC-PVTZ-JKFIT
    Number of shells: 516
    Number of basis function: 1766
    Number of Cartesian functions: 2198
    Spherical Harmonics?: true
    Max angular momentum: 4

  Minimum eigenvalue in the overlap matrix is 5.6016163336E-07.
  Using Symmetric Orthogonalization.

  SCF Guess: Orbitals guess was supplied from a previous computation.

  ==> Iterations <==

                           Total Energy        Delta E     RMS |[F,P]|

   @DF-RHF iter   0:  -551.41468716229895   -5.51415e+02   4.52677e-04 
   @DF-RHF iter   1:  -551.29113601797599    1.23551e-01   1.35132e-04 
   @DF-RHF iter   2:  -551.29181404100461   -6.78023e-04   9.68375e-05 DIIS
   @DF-RHF iter   3:  -551.29237878117453   -5.64740e-04   1.34670e-05 DIIS
   @DF-RHF iter   4:  -551.29238977213981   -1.09910e-05   3.45719e-06 DIIS
   @DF-RHF iter   5:  -551.29239175622627   -1.98409e-06   1.30703e-06 DIIS
   @DF-RHF iter   6:  -551.29239205373699   -2.97511e-07   7.65923e-07 DIIS
   @DF-RHF iter   7:  -551.29239216958865   -1.15852e-07   3.24999e-07 DIIS
   @DF-RHF iter   8:  -551.29239220720558   -3.76169e-08   1.28146e-07 DIIS
   @DF-RHF iter   9:  -551.29239221181240   -4.60682e-09   3.47593e-08 DIIS
   @DF-RHF iter  10:  -551.29239221214789   -3.35490e-10   1.43438e-08 DIIS
   @DF-RHF iter  11:  -551.29239221223213   -8.42419e-11   4.80730e-09 DIIS
   @DF-RHF iter  12:  -551.29239221221178    2.03499e-11   2.24444e-09 DIIS
   @DF-RHF iter  13:  -551.29239221222201   -1.02318e-11   1.22156e-09 DIIS
   @DF-RHF iter  14:  -551.29239221224066   -1.86446e-11   5.20776e-10 DIIS
   @DF-RHF iter  15:  -551.29239221220439    3.62661e-11   2.45332e-10 DIIS
   @DF-RHF iter  16:  -551.29239221223952   -3.51292e-11   8.07061e-11 DIIS

  ==> Post-Iterations <==

    Orbital Energies (a.u.)
    -----------------------

    Doubly Occupied:                                                      

       1A    -20.600916     2A    -15.560931     3A    -11.312985  
       4A    -11.272050     5A    -11.271908     6A    -11.263867  
       7A    -11.252913     8A    -11.250996     9A    -11.245154  
      10A    -11.243997    11A    -11.238092    12A    -11.235672  
      13A    -11.235514    14A     -1.418472    15A     -1.255142  
      16A     -1.174496    17A     -1.104928    18A     -1.037997  
      19A     -1.030282    20A     -1.012233    21A     -0.880949  
      22A     -0.870205    23A     -0.845509    24A     -0.811886  
      25A     -0.748381    26A     -0.725463    27A     -0.683763  
      28A     -0.660681    29A     -0.657222    30A     -0.635897  
      31A     -0.615643    32A     -0.604609    33A     -0.602989  
      34A     -0.594602    35A     -0.580094    36A     -0.542396  
      37A     -0.530441    38A     -0.522533    39A     -0.504681  
      40A     -0.494001    41A     -0.417570    42A     -0.391878  
      43A     -0.355534    44A     -0.348082    45A     -0.312604  

    Virtual:                                                              

      46A      0.021783    47A      0.030376    48A      0.032168  
      49A      0.038629    50A      0.042429    51A      0.046387  
      52A      0.052779    53A      0.055800    54A      0.062596  
      55A      0.080641    56A      0.082536    57A      0.085434  
      58A      0.090509    59A      0.094909    60A      0.098546  
      61A      0.101679    62A      0.104873    63A      0.107154  
      64A      0.109429    65A      0.111726    66A      0.114101  
      67A      0.117573    68A      0.120110    69A      0.125199  
      70A      0.128523    71A      0.130492    72A      0.133475  
      73A      0.134433    74A      0.143165    75A      0.146323  
      76A      0.148894    77A      0.151082    78A      0.152157  
      79A      0.156439    80A      0.159594    81A      0.168274  
      82A      0.170641    83A      0.175296    84A      0.178641  
      85A      0.179667    86A      0.188290    87A      0.203273  
      88A      0.205516    89A      0.214649    90A      0.217921  
      91A      0.218962    92A      0.223543    93A      0.231671  
      94A      0.236316    95A      0.239650    96A      0.240649  
      97A      0.245681    98A      0.248401    99A      0.253402  
     100A      0.256463   101A      0.257416   102A      0.263799  
     103A      0.267166   104A      0.270893   105A      0.274778  
     106A      0.279601   107A      0.279880   108A      0.286996  
     109A      0.292365   110A      0.296394   111A      0.300382  
     112A      0.305860   113A      0.307821   114A      0.309940  
     115A      0.314610   116A      0.319470   117A      0.323745  
     118A      0.324561   119A      0.327737   120A      0.332951  
     121A      0.338904   122A      0.342404   123A      0.354065  
     124A      0.358206   125A      0.362339   126A      0.364739  
     127A      0.369791   128A      0.374318   129A      0.381959  
     130A      0.389931   131A      0.394778   132A      0.401458  
     133A      0.403597   134A      0.407719   135A      0.410084  
     136A      0.419289   137A      0.420568   138A      0.421284  
     139A      0.426912   140A      0.435462   141A      0.438898  
     142A      0.443182   143A      0.444613   144A      0.447532  
     145A      0.452133   146A      0.452679   147A      0.457612  
     148A      0.461044   149A      0.464393   150A      0.471978  
     151A      0.475812   152A      0.477158   153A      0.478898  
     154A      0.483725   155A      0.485725   156A      0.490673  
     157A      0.497108   158A      0.502224   159A      0.503013  
     160A      0.505094   161A      0.509910   162A      0.512189  
     163A      0.514271   164A      0.515842   165A      0.519842  
     166A      0.525537   167A      0.528694   168A      0.529431  
     169A      0.535452   170A      0.539597   171A      0.544101  
     172A      0.545848   173A      0.549649   174A      0.553737  
     175A      0.557318   176A      0.560631   177A      0.572708  
     178A      0.576509   179A      0.579310   180A      0.583861  
     181A      0.589587   182A      0.594020   183A      0.605559  
     184A      0.607917   185A      0.610827   186A      0.613581  
     187A      0.628909   188A      0.633277   189A      0.636061  
     190A      0.642874   191A      0.655909   192A      0.663823  
     193A      0.665932   194A      0.678183   195A      0.685816  
     196A      0.690764   197A      0.697543   198A      0.704127  
     199A      0.706701   200A      0.709549   201A      0.715318  
     202A      0.717664   203A      0.724881   204A      0.732073  
     205A      0.733550   206A      0.740622   207A      0.745717  
     208A      0.749303   209A      0.755261   210A      0.757197  
     211A      0.761462   212A      0.773152   213A      0.773688  
     214A      0.788447   215A      0.797778   216A      0.804001  
     217A      0.806803   218A      0.809926   219A      0.815011  
     220A      0.822274   221A      0.827796   222A      0.830337  
     223A      0.833061   224A      0.838126   225A      0.840665  
     226A      0.849503   227A      0.856461   228A      0.864863  
     229A      0.871627   230A      0.876687   231A      0.878830  
     232A      0.879983   233A      0.884196   234A      0.886584  
     235A      0.891919   236A      0.901254   237A      0.904554  
     238A      0.910390   239A      0.915178   240A      0.920333  
     241A      0.927753   242A      0.928911   243A      0.932763  
     244A      0.941120   245A      0.945990   246A      0.947576  
     247A      0.953207   248A      0.962308   249A      0.963125  
     250A      0.968900   251A      0.969275   252A      0.974105  
     253A      0.979949   254A      0.981754   255A      0.986597  
     256A      0.991565   257A      0.998145   258A      1.001317  
     259A      1.008338   260A      1.012537   261A      1.018388  
     262A      1.024342   263A      1.026891   264A      1.030138  
     265A      1.039433   266A      1.043768   267A      1.046311  
     268A      1.050977   269A      1.052251   270A      1.053966  
     271A      1.059649   272A      1.065899   273A      1.069804  
     274A      1.071767   275A      1.076573   276A      1.080143  
     277A      1.084369   278A      1.086457   279A      1.087815  
     280A      1.099195   281A      1.105732   282A      1.110641  
     283A      1.113198   284A      1.113605   285A      1.121274  
     286A      1.131549   287A      1.138130   288A      1.146844  
     289A      1.147861   290A      1.151122   291A      1.153022  
     292A      1.163782   293A      1.164478   294A      1.167820  
     295A      1.175500   296A      1.178529   297A      1.180406  
     298A      1.186489   299A      1.195685   300A      1.201996  
     301A      1.204726   302A      1.212037   303A      1.214578  
     304A      1.222130   305A      1.225794   306A      1.226221  
     307A      1.238498   308A      1.243589   309A      1.250998  
     310A      1.259386   311A      1.261533   312A      1.263592  
     313A      1.270697   314A      1.279989   315A      1.281294  
     316A      1.290364   317A      1.291965   318A      1.297166  
     319A      1.304062   320A      1.315242   321A      1.323322  
     322A      1.330380   323A      1.333744   324A      1.341557  
     325A      1.352778   326A      1.354228   327A      1.362163  
     328A      1.371840   329A      1.378361   330A      1.382735  
     331A      1.393736   332A      1.396627   333A      1.407923  
     334A      1.412025   335A      1.421058   336A      1.429738  
     337A      1.440626   338A      1.444549   339A      1.454088  
     340A      1.461687   341A      1.464514   342A      1.483593  
     343A      1.489322   344A      1.497173   345A      1.501561  
     346A      1.505446   347A      1.510460   348A      1.514838  
[...]
	 R(8,12)          =         2.523046	       1.335139
	 R(8,21)          =         2.043082	       1.081152
	 R(9,10)          =         2.761607	       1.461379
	 R(11,13)         =         2.573866	       1.362031
	 R(13,22)         =         1.817795	       0.961936
	 B(1,3,11)        =         2.091760	     119.849024
	 B(1,3,16)        =         2.114882	     121.173810
	 B(1,9,2)         =         2.064984	     118.314848
	 B(1,9,10)        =         2.108787	     120.824586
	 B(2,4,11)        =         2.094097	     119.982920
	 B(2,4,17)        =         2.095056	     120.037860
	 B(2,9,10)        =         2.109019	     120.837861
	 B(3,1,9)         =         2.114178	     121.133458
	 B(3,1,14)        =         2.083832	     119.394798
	 B(3,11,4)        =         2.090671	     119.786645
	 B(3,11,13)       =         2.046623	     117.262859
	 B(4,2,9)         =         2.110599	     120.928434
	 B(4,2,15)        =         2.085096	     119.467220
	 B(4,11,13)       =         2.145890	     122.950462
	 B(5,7,12)        =         2.158580	     123.677550
	 B(5,7,20)        =         2.096056	     120.095164
	 B(5,10,6)        =         2.039203	     116.837727
	 B(5,10,9)        =         2.121646	     121.561362
	 B(6,8,12)        =         2.158567	     123.676802
	 B(6,8,21)        =         2.096145	     120.100267
	 B(6,10,9)        =         2.121988	     121.580968
	 B(7,5,10)        =         2.086625	     119.554793
	 B(7,5,18)        =         2.096086	     120.096878
	 B(7,12,8)        =         2.036693	     116.693934
	 B(8,6,10)        =         2.086653	     119.556412
	 B(8,6,19)        =         2.096226	     120.104883
	 B(9,1,14)        =         2.084963	     119.459576
	 B(9,2,15)        =         2.087147	     119.584704
	 B(10,5,18)       =         2.100309	     120.338829
	 B(10,6,19)       =         2.100091	     120.326324
	 B(11,3,16)       =         2.076492	     118.974221
	 B(11,4,17)       =         2.094019	     119.978463
	 B(11,13,22)      =         1.902203	     108.988208
	 B(12,7,20)       =         2.028511	     116.225128
	 B(12,8,21)       =         2.028460	     116.222217
	 D(1,3,11,4)      =         0.003704	       0.212222
	 D(1,3,11,13)     =        -3.139017	    -179.852441
	 D(1,9,2,4)       =         0.014645	       0.839112
	 D(1,9,2,15)      =         3.127951	     179.218366
	 D(1,9,10,5)      =         2.359123	     135.167772
	 D(1,9,10,6)      =        -0.753217	     -43.156162
	 D(2,4,11,3)      =         0.000831	       0.047608
	 D(2,4,11,13)     =        -3.139566	    -179.883892
	 D(2,9,1,3)       =        -0.010065	      -0.576673
	 D(2,9,1,14)      =         3.109245	     178.146600
	 D(2,9,10,5)      =        -0.751709	     -43.069731
	 D(2,9,10,6)      =         2.419137	     138.606335
	 D(3,1,9,10)      =        -3.121656	    -178.857699
	 D(3,11,4,17)     =        -3.135237	    -179.635853
	 D(3,11,13,22)    =        -3.136471	    -179.706523
	 D(4,2,9,10)      =         3.126232	     179.119901
	 D(4,11,3,16)     =        -3.127122	    -179.170916
	 D(4,11,13,22)    =         0.003955	       0.226599
	 D(5,7,12,8)      =         0.000236	       0.013547
	 D(5,10,6,8)      =         0.009068	       0.519567
	 D(5,10,6,19)     =         3.128347	     179.241052
	 D(6,8,12,7)      =        -0.002242	      -0.128465
	 D(6,10,5,7)      =        -0.010908	      -0.624957
	 D(6,10,5,18)     =         3.111137	     178.254995
	 D(7,5,10,9)      =        -3.124572	    -179.024776
	 D(7,12,8,21)     =        -3.138459	    -179.820436
	 D(8,6,10,9)      =         3.122727	     178.919049
	 D(8,12,7,20)     =        -3.132012	    -179.451095
	 D(9,1,3,11)      =         0.001021	       0.058477
	 D(9,1,3,16)      =         3.131605	     179.427746
	 D(9,2,4,11)      =        -0.010204	      -0.584646
	 D(9,2,4,17)      =         3.125861	     179.098627
	 D(9,10,5,18)     =        -0.002528	      -0.144823
	 D(9,10,6,19)     =        -0.041180	      -2.359466
	 D(10,5,7,12)     =         0.006568	       0.376313
	 D(10,5,7,20)     =         3.138473	     179.821233
	 D(10,6,8,12)     =        -0.002598	      -0.148877
	 D(10,6,8,21)     =         3.133420	     179.531723
	 D(10,9,1,14)     =        -0.002346	      -0.134426
	 D(10,9,2,15)     =        -0.043648	      -2.500845
	 D(11,3,1,14)     =        -3.118303	    -178.665609
	 D(11,4,2,15)     =        -3.123542	    -178.965781
	 D(12,7,5,18)     =        -3.115524	    -178.506391
	 D(12,8,6,19)     =        -3.121927	    -178.873236
	 D(13,11,3,16)    =         0.013342	       0.764420
	 D(13,11,4,17)    =         0.007551	       0.432646
	 D(14,1,3,16)     =         0.012281	       0.703660
	 D(15,2,4,17)     =         0.012523	       0.717491
	 D(18,5,7,20)     =         0.016380	       0.938529
	 D(19,6,8,21)     =         0.014091	       0.807364

	Current energy   :      -553.7254726999

	Energy change for the previous step:
		Projected    :        -0.0000011589
		Actual       :         0.0000021349

	Performing BFGS update.
	Previous computed or guess Hessian on step 1.
	Steps to be used in Hessian update: 5 4
	Adding user-defined constraint: Fragment 1; Coordinate 63:
		Value =     2.359123; Fixed value    =     2.356190
		Force =    -0.001833; Force constant =     0.625000
	Removing off-diagonal coupling between coordinate 63 and others.
	Taking RFO optimization step.
	Going to follow RFO solution 1.
	Using RFO vector 1.
	Norm of target step-size    0.00213
	Projected energy change by RFO approximation:        -0.0000000999

	Back-transformation to cartesian coordinates...
	Successfully converged to displaced geometry.

	--- Internal Coordinate Step in ANG or DEG, aJ/ANG or AJ/DEG ---
	 ---------------------------------------------------------------------------
	   Coordinate                Previous        Force       Change         New 
	   ----------                --------       ------       ------       ------
	    1 R(1,3)          =      1.383543    -0.000210    -0.000055     1.383488
	    2 R(1,9)          =      1.394416     0.000469     0.000091     1.394507
	    3 R(1,14)         =      1.080036     0.000045     0.000005     1.080040
	    4 R(2,4)          =      1.385751     0.000279     0.000045     1.385797
	    5 R(2,9)          =      1.392436    -0.000212    -0.000039     1.392396
	    6 R(2,15)         =      1.080043     0.000119     0.000022     1.080065
	    7 R(3,11)         =      1.387999     0.000305     0.000053     1.388052
	    8 R(3,16)         =      1.078827     0.000135     0.000026     1.078852
	    9 R(4,11)         =      1.388507    -0.000051    -0.000021     1.388486
	   10 R(4,17)         =      1.081303     0.000013    -0.000003     1.081300
	   11 R(5,7)          =      1.385784     0.000009    -0.000008     1.385776
	   12 R(5,10)         =      1.391520     0.000095     0.000025     1.391545
	   13 R(5,18)         =      1.079707     0.000048     0.000003     1.079710
	   14 R(6,8)          =      1.385729     0.000059    -0.000000     1.385728
	   15 R(6,10)         =      1.391550    -0.000152    -0.000015     1.391534
	   16 R(6,19)         =      1.079748     0.000065     0.000009     1.079757
	   17 R(7,12)         =      1.335081     0.000169     0.000028     1.335109
	   18 R(7,20)         =      1.081138     0.000003     0.000004     1.081142
	   19 R(8,12)         =      1.335139     0.000194     0.000031     1.335170
	   20 R(8,21)         =      1.081152    -0.000028    -0.000005     1.081147
	   21 R(9,10)         =      1.461379    -0.000324    -0.000078     1.461301
	   22 R(11,13)        =      1.362031    -0.000096    -0.000017     1.362015
	   23 R(13,22)        =      0.961936     0.000057     0.000002     0.961938
	   24 B(1,3,11)       =    119.849024     0.000000     0.002725   119.851750
	   25 B(1,3,16)       =    121.173810     0.000002     0.015201   121.189011
	   26 B(1,9,2)        =    118.314848     0.000001     0.001892   118.316741
	   27 B(1,9,10)       =    120.824586    -0.000002    -0.009472   120.815115
	   28 B(2,4,11)       =    119.982920    -0.000001    -0.004979   119.977941
	   29 B(2,4,17)       =    120.037860    -0.000001    -0.003533   120.034326
	   30 B(2,9,10)       =    120.837861     0.000001     0.007603   120.845464
	   31 B(3,1,9)        =    121.133458    -0.000001    -0.005034   121.128425
	   32 B(3,1,14)       =    119.394798     0.000002     0.010326   119.405124
	   33 B(3,11,4)       =    119.786645     0.000001     0.002631   119.789276
	   34 B(3,11,13)      =    117.262859    -0.000000    -0.003041   117.259818
	   35 B(4,2,9)        =    120.928434     0.000000     0.002907   120.931341
	   36 B(4,2,15)       =    119.467220    -0.000000    -0.001778   119.465442
	   37 B(4,11,13)      =    122.950462    -0.000000     0.000417   122.950879
	   38 B(5,7,12)       =    123.677550     0.000001     0.003580   123.681130
	   39 B(5,7,20)       =    120.095164     0.000000    -0.000520   120.094644
	   40 B(5,10,6)       =    116.837727     0.000001    -0.001424   116.836303
	   41 B(5,10,9)       =    121.561362    -0.000001    -0.004464   121.556898
	   42 B(6,8,12)       =    123.676802     0.000001     0.004540   123.681341
	   43 B(6,8,21)       =    120.100267    -0.000000    -0.002023   120.098244
	   44 B(6,10,9)       =    121.580968     0.000001     0.006095   121.587063
	   45 B(7,5,10)       =    119.554793    -0.000000     0.000305   119.555098
	   46 B(7,5,18)       =    120.096878    -0.000000    -0.003951   120.092926
	   47 B(7,12,8)       =    116.693934    -0.000002    -0.007083   116.686851
	   48 B(8,6,10)       =    119.556412    -0.000000     0.000078   119.556490
	   49 B(8,6,19)       =    120.104883    -0.000001    -0.006906   120.097977
	   50 B(9,1,14)       =    119.459576    -0.000000    -0.005197   119.454378
	   51 B(9,2,15)       =    119.584704     0.000000    -0.000893   119.583812
	   52 B(10,5,18)      =    120.338829     0.000001     0.003796   120.342625
	   53 B(10,6,19)      =    120.326324     0.000001     0.006965   120.333290
	   54 B(11,3,16)      =    118.974221    -0.000002    -0.017961   118.956260
	   55 B(11,4,17)      =    119.978463     0.000002     0.008504   119.986966
	   56 B(11,13,22)     =    108.988208     0.000001     0.003845   108.992053
	   57 B(12,7,20)      =    116.225128    -0.000001    -0.003487   116.221641
	   58 B(12,8,21)      =    116.222217    -0.000001    -0.002784   116.219433
	   59 D(1,3,11,4)     =      0.212222    -0.000000    -0.006377     0.205846
	   60 D(1,3,11,13)    =   -179.852441     0.000000     0.000626  -179.851815
	   61 D(1,9,2,4)      =      0.839112    -0.000001    -0.012547     0.826566
	   62 D(1,9,2,15)     =    179.218366    -0.000000    -0.002809   179.215557
	   63 D(1,9,10,5)     =    135.167772     0.000002     0.008437   135.176209
	   64 D(1,9,10,6)     =    -43.156162     0.000001    -0.000258   -43.156420
	   65 D(2,4,11,3)     =      0.047608     0.000000     0.000340     0.047948
	   66 D(2,4,11,13)    =   -179.883892    -0.000000    -0.007076  -179.890969
	   67 D(2,9,1,3)      =     -0.576673     0.000000     0.006483    -0.570189
	   68 D(2,9,1,14)     =    178.146600     0.000000     0.011587   178.158187
	   69 D(2,9,10,5)     =    -43.069731     0.000002     0.007457   -43.062273
	   70 D(2,9,10,6)     =    138.606335     0.000000    -0.001237   138.605098
	   71 D(3,1,9,10)     =   -178.857699    -0.000000     0.005423  -178.852276
	   72 D(3,11,4,17)    =   -179.635853     0.000000     0.002224  -179.633629
	   73 D(3,11,13,22)   =   -179.706523    -0.000000     0.016870  -179.689653
	   74 D(4,2,9,10)     =    179.119901     0.000000    -0.011791   179.108109
	   75 D(4,11,3,16)    =   -179.170916    -0.000000    -0.002834  -179.173749
	   76 D(4,11,13,22)   =      0.226599     0.000000     0.024114     0.250712
	   77 D(5,7,12,8)     =      0.013547    -0.000000    -0.024461    -0.010914
	   78 D(5,10,6,8)     =      0.519567    -0.000001    -0.027128     0.492440
	   79 D(5,10,6,19)    =    179.241052    -0.000001    -0.020083   179.220969
	   80 D(6,8,12,7)     =     -0.128465    -0.000000    -0.012234    -0.140699
	   81 D(6,10,5,7)     =     -0.624957     0.000000    -0.006521    -0.631479
	   82 D(6,10,5,18)    =    178.254995     0.000000     0.002315   178.257310
	   83 D(7,5,10,9)     =   -179.024776    -0.000001    -0.014946  -179.039722
	   84 D(7,12,8,21)    =   -179.820436     0.000001     0.040806  -179.779630
	   85 D(8,6,10,9)     =    178.919049     0.000000    -0.018881   178.900168
	   86 D(8,12,7,20)    =   -179.451095     0.000000     0.026119  -179.424976
	   87 D(9,1,3,11)     =      0.058477    -0.000000     0.002897     0.061374
	   88 D(9,1,3,16)     =    179.427746    -0.000000    -0.000938   179.426808
	   89 D(9,2,4,11)     =     -0.584646     0.000000     0.009296    -0.575350
	   90 D(9,2,4,17)     =    179.098627     0.000000     0.007449   179.106076
	   91 D(9,10,5,18)    =     -0.144823    -0.000001    -0.006110    -0.150934
	   92 D(9,10,6,19)    =     -2.359466     0.000000    -0.011837    -2.371303
	   93 D(10,5,7,12)    =      0.376313     0.000000     0.034120     0.410433
	   94 D(10,5,7,20)    =    179.821233    -0.000000    -0.018338   179.802895
	   95 D(10,6,8,12)    =     -0.148877     0.000001     0.038494    -0.110383
	   96 D(10,6,8,21)    =    179.531723    -0.000000    -0.016506   179.515217
	   97 D(10,9,1,14)    =     -0.134426    -0.000001     0.010526    -0.123900
	   98 D(10,9,2,15)    =     -2.500845     0.000001    -0.002054    -2.502899
	   99 D(11,3,1,14)    =   -178.665609    -0.000000    -0.002010  -178.667619
	  100 D(11,4,2,15)    =   -178.965781     0.000000    -0.000444  -178.966225
	  101 D(12,7,5,18)    =   -178.506391     0.000000     0.025219  -178.481173
	  102 D(12,8,6,19)    =   -178.873236     0.000000     0.031286  -178.841950
	  103 D(13,11,3,16)   =      0.764420    -0.000000     0.004169     0.768590
	  104 D(13,11,4,17)   =      0.432646     0.000000    -0.005192     0.427454
	  105 D(14,1,3,16)    =      0.703660    -0.000000    -0.005845     0.697815
	  106 D(15,2,4,17)    =      0.717491     0.000000    -0.002291     0.715200
	  107 D(18,5,7,20)    =      0.938529    -0.000000    -0.027240     0.911289
	  108 D(19,6,8,21)    =      0.807364    -0.000000    -0.023714     0.783649
	 ---------------------------------------------------------------------------
	Successfully symmetrized geometry.
	 Forces used to impose fixed constraints are not included.
	  Forces zeroed: 63 

  ==> Convergence Check <==

  Measures of convergence in internal coordinates in au.
  Criteria marked as inactive (o), active & met (*), and active & unmet ( ).
  ---------------------------------------------------------------------------------------------
   Step     Total Energy     Delta E     MAX Force     RMS Force      MAX Disp      RMS Disp   
  ---------------------------------------------------------------------------------------------
    Convergence Criteria    1.00e-06 *    3.00e-04 *             o    1.20e-03 *             o
  ---------------------------------------------------------------------------------------------
      6    -553.72547270    2.13e-06      8.69e-05 *    2.20e-05 o    7.12e-04 *    2.05e-04 o  ~
  ---------------------------------------------------------------------------------------------


  **** Optimization is complete! (in 6 steps) ****

  ==> Optimization Summary <==

  Measures of convergence in internal coordinates in au.
  --------------------------------------------------------------------------------------------------------------- ~
   Step         Total Energy             Delta E       MAX Force       RMS Force        MAX Disp        RMS Disp  ~
  --------------------------------------------------------------------------------------------------------------- ~
      1    -553.722268373098   -553.722268373098      0.01545355      0.00429327      0.03226925      0.00962209  ~
      2    -553.724997586852     -0.002729213754      0.00416366      0.00122856      0.03670373      0.00961987  ~
      3    -553.725445531993     -0.000447945141      0.00109781      0.00023355      0.02153883      0.00427491  ~
      4    -553.725472530369     -0.000026998376      0.00027567      0.00007271      0.00490181      0.00163157  ~
      5    -553.725474834784     -0.000002304415      0.00008192      0.00003347      0.00263465      0.00079846  ~
      6    -553.725472699924      0.000002134859      0.00014192      0.00002592      0.00071221      0.00020451  ~
  --------------------------------------------------------------------------------------------------------------- ~

	Writing optimization data to binary file.
	Final energy is   -553.7254726999245
	Final (previous) structure:
	Cartesian Geometry (in Angstrom)
	    C    -1.2811381275   0.6856528710  -0.5531271644
	    C    -0.2768295613   0.1122822883   1.5415759612
	    C    -2.3446205675   1.2730441775   0.1088152889
	    C    -1.3408122768   0.6936290574   2.2126078477
	    C     2.2097921730  -0.2825613256  -0.1481561017
	    C     0.7174438508  -1.2955806071  -1.6869331780
	    C     3.2530919890  -0.8527625581  -0.8600511095
	    C     1.8224255980  -1.8221300891  -2.3365524303
	    C    -0.2340395978   0.0909705966   0.1499609540
	    C     0.8981127701  -0.5056644866  -0.5556500296
	    C    -2.3778644913   1.2763280838   1.4964124737
	    N     3.0811614767  -1.6154503648  -1.9422652145
	    O    -3.4506749762   1.8660793392   2.0934056754
	    H    -1.2519412821   0.7063407794  -1.6325700808
	    H     0.5170893888  -0.3534041794   2.1066616912
	    H    -3.1505513577   1.7413494531  -0.4343537817
	    H    -1.3664228004   0.6892212425   3.2935984845
	    H     2.4163199243   0.3450240283   0.7058053016
	    H    -0.2771055861  -1.5149298481  -2.0455601594
	    H     4.2756522148  -0.6828183839  -0.5528875043
	    H     1.6918682511  -2.4432185314  -3.2118205940
	    H    -3.3502543170   1.8051402262   3.0481423047
	Saving final (previous) structure.
			--------------------------
			 OPTKING Finished Execution 
			--------------------------

    Final optimized geometry and variables:
    Molecular point group: c1
    Full point group: C1

    Geometry (in Angstrom), charge = 0, multiplicity = 1:

    C           -1.281138127483     0.685652870961    -0.553127164399
    C           -0.276829561290     0.112282288319     1.541575961160
    C           -2.344620567499     1.273044177491     0.108815288947
    C           -1.340812276804     0.693629057371     2.212607847738
    C            2.209792172959    -0.282561325609    -0.148156101661
    C            0.717443850792    -1.295580607127    -1.686933178024
    C            3.253091989041    -0.852762558067    -0.860051109514
    C            1.822425598032    -1.822130089111    -2.336552430336
    C           -0.234039597796     0.090970596580     0.149960954048
    C            0.898112770103    -0.505664486642    -0.555650029621
    C           -2.377864491335     1.276328083771     1.496412473686
    N            3.081161476677    -1.615450364816    -1.942265214526
    O           -3.450674976183     1.866079339163     2.093405675353
    H           -1.251941282143     0.706340779438    -1.632570080840
    H            0.517089388806    -0.353404179402     2.106661691152
    H           -3.150551357659     1.741349453097    -0.434353781701
    H           -1.366422800430     0.689221242493     3.293598484522
    H            2.416319924256     0.345024028260     0.705805301596
    H           -0.277105586087    -1.514929848066    -2.045560159406
    H            4.275652214798    -0.682818383884    -0.552887504319
    H            1.691868251051    -2.443218531360    -3.211820593951
    H           -3.350254316978     1.805140226165     3.048142304695

	Cleaning optimization helper files.

*** Psi4 exiting successfully. Buy a developer a beer!
