
    -----------------------------------------------------------------------
          Psi4: An Open-Source Ab Initio Electronic Structure Package
                               Psi4 1.1 release

                         Git: Rev {HEAD} add49b9 


    R. M. Parrish, L. A. Burns, D. G. A. Smith, A. C. Simmonett,
    A. E. DePrince III, E. G. Hohenstein, U. Bozkaya, A. Yu. Sokolov,
    R. Di Remigio, R. M. Richard, J. F. Gonthier, A. M. James,
    H. R. McAlexander, A. Kumar, M. Saitow, X. Wang, B. P. Pritchard,
    P. Verma, H. F. Schaefer III, K. Patkowski, R. A. King, E. F. Valeev,
    F. A. Evangelista, J. M. Turney, T. D. Crawford, and C. D. Sherrill,
    J. Chem. Theory Comput. in press (2017).
    (doi: 10.1021/acs.jctc.7b00174)

    -----------------------------------------------------------------------


    Psi4 started on: Saturday, 11 November 2017 06:12PM

    Process ID:   3072
    PSIDATADIR: /cbio/jclab/home/chayas/anaconda/envs/py35/share/psi4
    Memory:     500.0 MiB
    Threads:    8
    
  ==> Input File <==

--------------------------------------------------------------------------

memory 5 Gb

molecule phepyrF {
  symmetry C1
  0 1 
  C      1.885   -1.036   -0.112
  C      0.807   -0.463   0.561
  C      2.921   -1.631   0.608
  C      0.764   -0.484   1.955
  C      4.089   -2.032   4.108
  C      4.859   -3.105   2.099
  C      5.136   -2.648   4.774
  C      5.872   -3.673   2.854
  C      2.878   -1.652   2.002
  C      3.955   -2.270   2.745
  C      1.800   -1.079   2.676
  N      6.034   -3.466   4.180
  F      1.744   -1.089   4.016
  H      1.918   -1.020   -1.198
  H      0.000   -0.000   -0.000
  H      3.755   -2.073   0.068
  H      -0.076   -0.038   2.480
  H      3.403   -1.387   4.648
  H      4.787   -3.314   1.036
  H      5.284   -2.497   5.839
  H      6.604   -4.331   2.397
  units Angstrom
}

dih_string = "3 9 10 5 165"
set optking fixed_dihedral = $dih_string

optimize('MP2/aug-cc-PVTZ')
--------------------------------------------------------------------------

  Memory set to   4.657 GiB by Python driver.
gradient() will perform analytic gradient computation.

*** tstart() called on gpu-1-11.local
*** at Sat Nov 11 18:12:59 2017

    SCF Algorithm Type (re)set to DF.

*** tstart() called on gpu-1-11.local
*** at Sat Nov 11 18:12:59 2017

   => Loading Basis Set <=

    Name: AUG-CC-PVTZ
    Role: ORBITAL
    Keyword: BASIS
    atoms 1-11  entry C          line   221 file /cbio/jclab/home/chayas/anaconda/envs/py35/share/psi4/basis/aug-cc-pvtz.gbs 
    atoms 12    entry N          line   267 file /cbio/jclab/home/chayas/anaconda/envs/py35/share/psi4/basis/aug-cc-pvtz.gbs 
    atoms 13    entry F          line   359 file /cbio/jclab/home/chayas/anaconda/envs/py35/share/psi4/basis/aug-cc-pvtz.gbs 
    atoms 14-21 entry H          line    34 file /cbio/jclab/home/chayas/anaconda/envs/py35/share/psi4/basis/aug-cc-pvtz.gbs 


         ---------------------------------------------------------
                                   SCF
            by Justin Turney, Rob Parrish, and Andy Simmonett
                              RHF Reference
                        8 Threads,   4768 MiB Core
         ---------------------------------------------------------

  ==> Geometry <==

    Molecular point group: c1
    Full point group: C1

    Geometry (in Angstrom), charge = 0, multiplicity = 1:

       Center              X                  Y                   Z               Mass       
    ------------   -----------------  -----------------  -----------------  -----------------
           C         -1.368683142382     0.841192744457    -2.662846665246    12.000000000000
           C         -2.446683142382     1.414192744457    -1.989846665246    12.000000000000
           C         -0.332683142382     0.246192744457    -1.942846665246    12.000000000000
           C         -2.489683142382     1.393192744457    -0.595846665246    12.000000000000
           C          0.835316857618    -0.154807255543     1.557153334754    12.000000000000
           C          1.605316857618    -1.227807255543    -0.451846665246    12.000000000000
           C          1.882316857618    -0.770807255543     2.223153334754    12.000000000000
           C          2.618316857618    -1.795807255543     0.303153334754    12.000000000000
           C         -0.375683142382     0.225192744457    -0.548846665246    12.000000000000
           C          0.701316857618    -0.392807255543     0.194153334754    12.000000000000
           C         -1.453683142382     0.798192744457     0.125153334754    12.000000000000
           N          2.780316857618    -1.588807255543     1.629153334754    14.003074004780
           F         -1.509683142382     0.788192744457     1.465153334754    18.998403224000
           H         -1.335683142382     0.857192744457    -3.748846665246     1.007825032070
           H         -3.253683142382     1.877192744457    -2.550846665246     1.007825032070
           H          0.501316857618    -0.195807255543    -2.482846665246     1.007825032070
           H         -3.329683142382     1.839192744457    -0.070846665246     1.007825032070
           H          0.149316857618     0.490192744457     2.097153334754     1.007825032070
           H          1.533316857618    -1.436807255543    -1.514846665246     1.007825032070
           H          2.030316857618    -0.619807255543     3.288153334754     1.007825032070
           H          3.350316857618    -2.453807255543    -0.153846665246     1.007825032070

  Running in c1 symmetry.

  Rotational constants: A =      0.06387  B =      0.01882  C =      0.01463 [cm^-1]
  Rotational constants: A =   1914.66137  B =    564.20906  C =    438.74532 [MHz]
  Nuclear repulsion =  719.019712932787456

  Charge       = 0
  Multiplicity = 1
  Electrons    = 90
  Nalpha       = 45
  Nbeta        = 45

  ==> Algorithm <==

  SCF Algorithm Type is DF.
  DIIS enabled.
  MOM disabled.
  Fractional occupation disabled.
  Guess Type is SAD.
  Energy threshold   = 1.00e-10
  Density threshold  = 1.00e-10
  Integral threshold = 0.00e+00

  ==> Primary Basis <==

  Basis Set: AUG-CC-PVTZ
    Blend: AUG-CC-PVTZ
    Number of shells: 254
    Number of basis function: 782
    Number of Cartesian functions: 915
    Spherical Harmonics?: true
    Max angular momentum: 3

   => Loading Basis Set <=

    Name: (AUG-CC-PVTZ AUX)
    Role: JKFIT
    Keyword: DF_BASIS_SCF
    atoms 1-11  entry C          line   161 file /cbio/jclab/home/chayas/anaconda/envs/py35/share/psi4/basis/aug-cc-pvtz-jkfit.gbs 
    atoms 12    entry N          line   223 file /cbio/jclab/home/chayas/anaconda/envs/py35/share/psi4/basis/aug-cc-pvtz-jkfit.gbs 
    atoms 13    entry F          line   347 file /cbio/jclab/home/chayas/anaconda/envs/py35/share/psi4/basis/aug-cc-pvtz-jkfit.gbs 
    atoms 14-21 entry H          line    69 file /cbio/jclab/home/chayas/anaconda/envs/py35/share/psi4/basis/aug-cc-pvtz-jkfit.gbs 

  ==> Pre-Iterations <==

   -------------------------------------------------------
    Irrep   Nso     Nmo     Nalpha   Nbeta   Ndocc  Nsocc
   -------------------------------------------------------
     A        782     782       0       0       0       0
   -------------------------------------------------------
    Total     782     782      45      45      45       0
   -------------------------------------------------------

  ==> Integral Setup <==

  ==> DFJK: Density-Fitted J/K Matrices <==

    J tasked:                  Yes
    K tasked:                  Yes
    wK tasked:                  No
    OpenMP threads:              8
    Integrals threads:           8
    Memory (MB):              3576
    Algorithm:                Disk
    Integral Cache:           NONE
    Schwarz Cutoff:          1E-12
    Fitting Condition:       1E-12

   => Auxiliary Basis Set <=

  Basis Set: (AUG-CC-PVTZ AUX)
    Blend: AUG-CC-PVTZ-JKFIT
    Number of shells: 502
    Number of basis function: 1720
    Number of Cartesian functions: 2143
    Spherical Harmonics?: true
    Max angular momentum: 4

  Minimum eigenvalue in the overlap matrix is 5.9269939096E-07.
  Using Symmetric Orthogonalization.

  SCF Guess: Superposition of Atomic Densities via on-the-fly atomic UHF.

  ==> Iterations <==

                           Total Energy        Delta E     RMS |[F,P]|

   @DF-RHF iter   0:  -580.30375682294323   -5.80304e+02   1.80672e-02 
   @DF-RHF iter   1:  -574.91087005002134    5.39289e+00   1.97008e-03 
   @DF-RHF iter   2:  -575.20353198084490   -2.92662e-01   1.04519e-03 DIIS
   @DF-RHF iter   3:  -575.25794289947646   -5.44109e-02   4.10605e-04 DIIS
   @DF-RHF iter   4:  -575.26958441590250   -1.16415e-02   7.06342e-05 DIIS
   @DF-RHF iter   5:  -575.27049715359271   -9.12738e-04   4.57671e-05 DIIS
   @DF-RHF iter   6:  -575.27070053707962   -2.03383e-04   1.40003e-05 DIIS
   @DF-RHF iter   7:  -575.27073401649113   -3.34794e-05   6.10902e-06 DIIS
   @DF-RHF iter   8:  -575.27073896716183   -4.95067e-06   2.04749e-06 DIIS
   @DF-RHF iter   9:  -575.27074003026314   -1.06310e-06   1.22149e-06 DIIS
   @DF-RHF iter  10:  -575.27074030798474   -2.77722e-07   5.64025e-07 DIIS
   @DF-RHF iter  11:  -575.27074037181205   -6.38273e-08   1.38088e-07 DIIS
   @DF-RHF iter  12:  -575.27074037762225   -5.81019e-09   4.83011e-08 DIIS
   @DF-RHF iter  13:  -575.27074037829357   -6.71321e-10   3.01261e-08 DIIS
   @DF-RHF iter  14:  -575.27074037844523   -1.51658e-10   1.40357e-08 DIIS
   @DF-RHF iter  15:  -575.27074037849388   -4.86580e-11   5.76210e-09 DIIS
   @DF-RHF iter  16:  -575.27074037849570   -1.81899e-12   1.97664e-09 DIIS
   @DF-RHF iter  17:  -575.27074037848558    1.01181e-11   1.01451e-09 DIIS
   @DF-RHF iter  18:  -575.27074037849798   -1.23919e-11   3.32058e-10 DIIS
   @DF-RHF iter  19:  -575.27074037850707   -9.09495e-12   1.34001e-10 DIIS
   @DF-RHF iter  20:  -575.27074037850412    2.95586e-12   6.14707e-11 DIIS

  ==> Post-Iterations <==

    Orbital Energies (a.u.)
    -----------------------

    Doubly Occupied:                                                      

       1A    -26.330045     2A    -15.562488     3A    -11.344997  
       4A    -11.273061     5A    -11.270503     6A    -11.265130  
       7A    -11.263192     8A    -11.260503     9A    -11.259854  
      10A    -11.258158    11A    -11.252679    12A    -11.238765  
      13A    -11.229179    14A     -1.654075    15A     -1.248149  
      16A     -1.185712    17A     -1.114241    18A     -1.039824  
      19A     -1.031418    20A     -1.026433    21A     -0.894039  
      22A     -0.878165    23A     -0.844695    24A     -0.824734  
      25A     -0.761228    26A     -0.734432    27A     -0.720966  
      28A     -0.716829    29A     -0.672182    30A     -0.661502  
      31A     -0.650049    32A     -0.625905    33A     -0.609000  
      34A     -0.591938    35A     -0.583942    36A     -0.551754  
      37A     -0.541974    38A     -0.523338    39A     -0.517279  
      40A     -0.500500    41A     -0.416146    42A     -0.415571  
      43A     -0.355356    44A     -0.346635    45A     -0.323182  

    Virtual:                                                              

      46A      0.022937    47A      0.028777    48A      0.033853  
      49A      0.040401    50A      0.043595    51A      0.047936  
      52A      0.057636    53A      0.059343    54A      0.063105  
      55A      0.078480    56A      0.084420    57A      0.085410  
      58A      0.090086    59A      0.092154    60A      0.100548  
      61A      0.104735    62A      0.106096    63A      0.109583  
      64A      0.114810    65A      0.115466    66A      0.116848  
      67A      0.117987    68A      0.126228    69A      0.131031  
      70A      0.134619    71A      0.135341    72A      0.139216  
      73A      0.140843    74A      0.142441    75A      0.147385  
      76A      0.149998    77A      0.153225    78A      0.157300  
      79A      0.164503    80A      0.167725    81A      0.174395  
      82A      0.181496    83A      0.185830    84A      0.186757  
      85A      0.189287    86A      0.196780    87A      0.206233  
      88A      0.211565    89A      0.217020    90A      0.222498  
      91A      0.229049    92A      0.231443    93A      0.234645  
      94A      0.238991    95A      0.245038    96A      0.249742  
      97A      0.252120    98A      0.256090    99A      0.260421  
     100A      0.261950   101A      0.266891   102A      0.269032  
     103A      0.278487   104A      0.284212   105A      0.286589  
     106A      0.290238   107A      0.294202   108A      0.297821  
     109A      0.301071   110A      0.303589   111A      0.306968  
     112A      0.314165   113A      0.317226   114A      0.321344  
     115A      0.324010   116A      0.332699   117A      0.336579  
     118A      0.340850   119A      0.344643   120A      0.350603  
     121A      0.351983   122A      0.359185   123A      0.367619  
     124A      0.370521   125A      0.378368   126A      0.385999  
     127A      0.390170   128A      0.394346   129A      0.402761  
     130A      0.407263   131A      0.412936   132A      0.413845  
     133A      0.418008   134A      0.424202   135A      0.429626  
     136A      0.434181   137A      0.436892   138A      0.439314  
     139A      0.442802   140A      0.443637   141A      0.451370  
     142A      0.454089   143A      0.458020   144A      0.462485  
     145A      0.466137   146A      0.471249   147A      0.472789  
     148A      0.473841   149A      0.477953   150A      0.484051  
     151A      0.491685   152A      0.493244   153A      0.494662  
     154A      0.498252   155A      0.500862   156A      0.502719  
     157A      0.505724   158A      0.509111   159A      0.513678  
     160A      0.518858   161A      0.523194   162A      0.524919  
     163A      0.531073   164A      0.533787   165A      0.537641  
     166A      0.544079   167A      0.547238   168A      0.548705  
     169A      0.555882   170A      0.559032   171A      0.561237  
     172A      0.566072   173A      0.577473   174A      0.579053  
     175A      0.584308   176A      0.590167   177A      0.596580  
     178A      0.598702   179A      0.612132   180A      0.617239  
     181A      0.622774   182A      0.629547   183A      0.635974  
     184A      0.644297   185A      0.649997   186A      0.656441  
     187A      0.658311   188A      0.665442   189A      0.678766  
     190A      0.684205   191A      0.690078   192A      0.696405  
     193A      0.699642   194A      0.703966   195A      0.709534  
     196A      0.713268   197A      0.717319   198A      0.720741  
     199A      0.732418   200A      0.738440   201A      0.738771  
     202A      0.745481   203A      0.747817   204A      0.754691  
     205A      0.757367   206A      0.765842   207A      0.773020  
     208A      0.788237   209A      0.790372   210A      0.801054  
     211A      0.807061   212A      0.808437   213A      0.812579  
     214A      0.818728   215A      0.829007   216A      0.833901  
     217A      0.841176   218A      0.850806   219A      0.858210  
     220A      0.863381   221A      0.868506   222A      0.870140  
     223A      0.875267   224A      0.882064   225A      0.886294  
     226A      0.889538   227A      0.894806   228A      0.896225  
     229A      0.900058   230A      0.904913   231A      0.908349  
     232A      0.914857   233A      0.917352   234A      0.917943  
     235A      0.923415   236A      0.931400   237A      0.938694  
     238A      0.948687   239A      0.953045   240A      0.959700  
     241A      0.962571   242A      0.969450   243A      0.970947  
     244A      0.974526   245A      0.980309   246A      0.981141  
     247A      0.984896   248A      0.988020   249A      0.992664  
     250A      1.000390   251A      1.004386   252A      1.009440  
     253A      1.015704   254A      1.017199   255A      1.024409  
     256A      1.026658   257A      1.028577   258A      1.035922  
     259A      1.043982   260A      1.045383   261A      1.048013  
     262A      1.059967   263A      1.061447   264A      1.068196  
     265A      1.073661   266A      1.080781   267A      1.084860  
     268A      1.089974   269A      1.090295   270A      1.092514  
     271A      1.097637   272A      1.102354   273A      1.110681  
     274A      1.116136   275A      1.119999   276A      1.126087  
     277A      1.129624   278A      1.135147   279A      1.136919  
     280A      1.144294   281A      1.158664   282A      1.168146  
     283A      1.168807   284A      1.175026   285A      1.177883  
     286A      1.180647   287A      1.188790   288A      1.188925  
     289A      1.197179   290A      1.197968   291A      1.205916  
     292A      1.210355   293A      1.212124   294A      1.213926  
     295A      1.226685   296A      1.228208   297A      1.233132  
     298A      1.243569   299A      1.248537   300A      1.257853  
     301A      1.261365   302A      1.270974   303A      1.275690  
     304A      1.279924   305A      1.283003   306A      1.293111  
     307A      1.296382   308A      1.307463   309A      1.307715  
     310A      1.310696   311A      1.317732   312A      1.325155  
     313A      1.332128   314A      1.336540   315A      1.353106  
     316A      1.355148   317A      1.363944   318A      1.369291  
     319A      1.379936   320A      1.386821   321A      1.390351  
     322A      1.393822   323A      1.399006   324A      1.414716  
     325A      1.425894   326A      1.432052   327A      1.440244  
     328A      1.441352   329A      1.453480   330A      1.468410  
     331A      1.477505   332A      1.485433   333A      1.498922  
     334A      1.509391   335A      1.520148   336A      1.522703  
     337A      1.528266   338A      1.532827   339A      1.545145  
     340A      1.548673   341A      1.566679   342A      1.576134  
     343A      1.580054   344A      1.584561   345A      1.598152  
     346A      1.606743   347A      1.610848   348A      1.625550  
     349A      1.636569   350A      1.643266   351A      1.655964  
     352A      1.659698   353A      1.664136   354A      1.670681  
     355A      1.678278   356A      1.687546   357A      1.696430  
     358A      1.704627   359A      1.706978   360A      1.715157  
     361A      1.719622   362A      1.733459   363A      1.737065  
     364A      1.743757   365A      1.751590   366A      1.763759  
     367A      1.769208   368A      1.785675   369A      1.790485  
     370A      1.799031   371A      1.805680   372A      1.808913  
     373A      1.821335   374A      1.823372   375A      1.824901  
     376A      1.845492   377A      1.849623   378A      1.859278  
     379A      1.872382   380A      1.879694   381A      1.889076  
     382A      1.892652   383A      1.906889   384A      1.913286  
     385A      1.917298   386A      1.930252   387A      1.937987  
     388A      1.943678   389A      1.955573   390A      1.966749  
     391A      1.973421   392A      1.976678   393A      1.983514  
     394A      1.991994   395A      1.999702   396A      2.002676  
     397A      2.014737   398A      2.015778   399A      2.024741  
     400A      2.028693   401A      2.033255   402A      2.039152  
     403A      2.044520   404A      2.057522   405A      2.062931  
     406A      2.077336   407A      2.082807   408A      2.091904  
     409A      2.097099   410A      2.104679   411A      2.106919  
     412A      2.112949   413A      2.119793   414A      2.127869  
     415A      2.135931   416A      2.158384   417A      2.167761  
     418A      2.169753   419A      2.177276   420A      2.179385  
     421A      2.183761   422A      2.192704   423A      2.202312  
     424A      2.208778   425A      2.218699   426A      2.227745  
     427A      2.232122   428A      2.252046   429A      2.257353  
     430A      2.267970   431A      2.279228   432A      2.285796  
     433A      2.295478   434A      2.303974   435A      2.313951  
     436A      2.326036   437A      2.334670   438A      2.338020  
     439A      2.356007   440A      2.360524   441A      2.370179  
     442A      2.387274   443A      2.396896   444A      2.400051  
     445A      2.414090   446A      2.427110   447A      2.446664  
     448A      2.457857   449A      2.464366   450A      2.480646  
     451A      2.489877   452A      2.500383   453A      2.509624  
     454A      2.526301   455A      2.539065   456A      2.555104  
     457A      2.559561   458A      2.579015   459A      2.592525  
     460A      2.609356   461A      2.616098   462A      2.649520  
     463A      2.654446   464A      2.660368   465A      2.680589  
     466A      2.709921   467A      2.724854   468A      2.747683  
     469A      2.752653   470A      2.777454   471A      2.789870  
     472A      2.807125   473A      2.807813   474A      2.844784  
     475A      2.846433   476A      2.890885   477A      2.907865  
     478A      2.912437   479A      2.979630   480A      3.001793  
     481A      3.011583   482A      3.040549   483A      3.058341  
     484A      3.069187   485A      3.073159   486A      3.096261  
     487A      3.120360   488A      3.132390   489A      3.150964  
     490A      3.169931   491A      3.188552   492A      3.189064  
     493A      3.203449   494A      3.220620   495A      3.231062  
     496A      3.232920   497A      3.247432   498A      3.286653  
     499A      3.294288   500A      3.297458   501A      3.312131  
     502A      3.325676   503A      3.339511   504A      3.347656  
     505A      3.357650   506A      3.359493   507A      3.370793  
     508A      3.383758   509A      3.403554   510A      3.405521  
     511A      3.416479   512A      3.423307   513A      3.442459  
     514A      3.446983   515A      3.460845   516A      3.463634  
     517A      3.469050   518A      3.482594   519A      3.493126  
     520A      3.506500   521A      3.511513   522A      3.519362  
     523A      3.521436   524A      3.527999   525A      3.539003  
     526A      3.545601   527A      3.548605   528A      3.555087  
     529A      3.568855   530A      3.574777   531A      3.579845  
     532A      3.589361   533A      3.603586   534A      3.611840  
     535A      3.622765   536A      3.632861   537A      3.656230  
     538A      3.661247   539A      3.665190   540A      3.677685  
     541A      3.682430   542A      3.694542   543A      3.702564  
     544A      3.706896   545A      3.713806   546A      3.723605  
     547A      3.729500   548A      3.739708   549A      3.757929  
     550A      3.767007   551A      3.777239   552A      3.783082  
     553A      3.791155   554A      3.799789   555A      3.807679  
     556A      3.817522   557A      3.827479   558A      3.833899  
     559A      3.850371   560A      3.856579   561A      3.864414  
     562A      3.868811   563A      3.875356   564A      3.885273  
     565A      3.889733   566A      3.893792   567A      3.904941  
     568A      3.921796   569A      3.929270   570A      3.936487  
     571A      3.939251   572A      3.950394   573A      3.962691  
     574A      3.967748   575A      3.972124   576A      3.978644  
     577A      3.992731   578A      3.995352   579A      4.004510  
     580A      4.015470   581A      4.021132   582A      4.022158  
     583A      4.027811   584A      4.052725   585A      4.058364  
     586A      4.062009   587A      4.071406   588A      4.098189  
     589A      4.106264   590A      4.111072   591A      4.115087  
     592A      4.128521   593A      4.144483   594A      4.153686  
     595A      4.171322   596A      4.173070   597A      4.187144  
     598A      4.190894   599A      4.194569   600A      4.204710  
     601A      4.216125   602A      4.227830   603A      4.233050  
     604A      4.242130   605A      4.250832   606A      4.258906  
     607A      4.277372   608A      4.285669   609A      4.291514  
     610A      4.301705   611A      4.309897   612A      4.318585  
     613A      4.332177   614A      4.338623   615A      4.347964  
     616A      4.351731   617A      4.356470   618A      4.370806  
     619A      4.380227   620A      4.387427   621A      4.401116  
     622A      4.412732   623A      4.422403   624A      4.425813  
     625A      4.439799   626A      4.449189   627A      4.460662  
     628A      4.476989   629A      4.479555   630A      4.492788  
     631A      4.505488   632A      4.509306   633A      4.522820  
     634A      4.529944   635A      4.537261   636A      4.559383  
     637A      4.564511   638A      4.591765   639A      4.606307  
     640A      4.620026   641A      4.626723   642A      4.634048  
     643A      4.638331   644A      4.667212   645A      4.676143  
     646A      4.698582   647A      4.711215   648A      4.716293  
     649A      4.727083   650A      4.741223   651A      4.759604  
     652A      4.771717   653A      4.789114   654A      4.800301  
     655A      4.810143   656A      4.828037   657A      4.830660  
     658A      4.858770   659A      4.878768   660A      4.883175  
     661A      4.918951   662A      4.925505   663A      4.940961  
     664A      4.950092   665A      4.962298   666A      4.987133  
     667A      4.994168   668A      5.009241   669A      5.011857  
     670A      5.031065   671A      5.038460   672A      5.047669  
     673A      5.060385   674A      5.071089   675A      5.093652  
     676A      5.109276   677A      5.120843   678A      5.125443  
     679A      5.128104   680A      5.140312   681A      5.143641  
     682A      5.152377   683A      5.167863   684A      5.172561  
     685A      5.188118   686A      5.198113   687A      5.207276  
     688A      5.219906   689A      5.239010   690A      5.243589  
     691A      5.258572   692A      5.312287   693A      5.320408  
     694A      5.326768   695A      5.342351   696A      5.355106  
     697A      5.377513   698A      5.379840   699A      5.419637  
     700A      5.426279   701A      5.462900   702A      5.464441  
     703A      5.471054   704A      5.491688   705A      5.545921  
     706A      5.561999   707A      5.573866   708A      5.583144  
     709A      5.600032   710A      5.652334   711A      5.668836  
     712A      5.677311   713A      5.701002   714A      5.722610  
     715A      5.753105   716A      5.767596   717A      5.800152  
     718A      5.819745   719A      5.846683   720A      5.855058  
     721A      5.867978   722A      5.887733   723A      5.895099  
     724A      5.916298   725A      5.987314   726A      6.000027  
     727A      6.084066   728A      6.085508   729A      6.173316  
     730A      6.195351   731A      6.207089   732A      6.227355  
     733A      6.234116   734A      6.297848   735A      6.306844  
     736A      6.381966   737A      6.397750   738A      6.450611  
     739A      6.476477   740A      6.492996   741A      6.577521  
     742A      6.587147   743A      6.639306   744A      6.685857  
     745A      6.725806   746A      6.738871   747A      6.753826  
     748A      6.822354   749A      6.891957   750A      6.964169  
     751A      6.995489   752A      7.017961   753A      7.084872  
     754A      7.100140   755A      7.299148   756A      7.463449  
     757A      7.506184   758A      9.141988   759A      9.205340  
     760A      9.297340   761A      9.349302   762A      9.432992  
     763A      9.543995   764A      9.556726   765A      9.626910  
     766A      9.711535   767A      9.740911   768A     10.085104  
     769A     10.105461   770A     15.575480   771A     16.252847  
     772A     16.670309   773A     16.827508   774A     17.266275  
     775A     18.528400   776A     18.891533   777A     19.240099  
     778A     19.749966   779A     20.248740   780A     20.472106  
     781A     20.872583   782A     21.465018  

    Final Occupation by Irrep:
              A 
    DOCC [    45 ]

  Energy converged.

  @DF-RHF Final Energy:  -575.27074037850412

   => Energetics <=

    Nuclear Repulsion Energy =            719.0197129327874563
    One-Electron Energy =               -2209.8414137049226156
    Two-Electron Energy =                 915.5509603936309304
    DFT Exchange-Correlation Energy =       0.0000000000000000
    Empirical Dispersion Energy =           0.0000000000000000
    PCM Polarization Energy =               0.0000000000000000
    EFP Energy =                            0.0000000000000000
    Total Energy =                       -575.2707403785041151



Properties will be evaluated at   0.000000,   0.000000,   0.000000 Bohr

Properties computed using the SCF density matrix

  Nuclear Dipole Moment: (a.u.)
     X:     1.0838      Y:    -0.4037      Z:    -6.2025

  Electronic Dipole Moment: (a.u.)
     X:    -1.9880      Y:     0.9476      Z:     5.0541

  Dipole Moment: (a.u.)
     X:    -0.9042      Y:     0.5439      Z:    -1.1483     Total:     1.5595

  Dipole Moment: (Debye)
     X:    -2.2983      Y:     1.3824      Z:    -2.9187     Total:     3.9639


*** tstop() called on gpu-1-11.local at Sat Nov 11 18:20:03 2017
Module time:
	user time   =     990.94 seconds =      16.52 minutes
	system time =      47.22 seconds =       0.79 minutes
	total time  =        424 seconds =       7.07 minutes
Total time:
	user time   =     990.95 seconds =      16.52 minutes
	system time =      47.22 seconds =       0.79 minutes
	total time  =        424 seconds =       7.07 minutes

  //>>>>>>>>>>>>>>>>>>>>>>>>>>>>>>>>>>>//
  //               DFMP2               //
  //<<<<<<<<<<<<<<<<<<<<<<<<<<<<<<<<<<<//

   => Loading Basis Set <=

    Name: (AUG-CC-PVTZ AUX)
    Role: RIFIT
    Keyword: DF_BASIS_MP2
    atoms 1-11  entry C          line   147 file /cbio/jclab/home/chayas/anaconda/envs/py35/share/psi4/basis/aug-cc-pvtz-ri.gbs 
    atoms 12    entry N          line   205 file /cbio/jclab/home/chayas/anaconda/envs/py35/share/psi4/basis/aug-cc-pvtz-ri.gbs 
    atoms 13    entry F          line   321 file /cbio/jclab/home/chayas/anaconda/envs/py35/share/psi4/basis/aug-cc-pvtz-ri.gbs 
    atoms 14-21 entry H          line    29 file /cbio/jclab/home/chayas/anaconda/envs/py35/share/psi4/basis/aug-cc-pvtz-ri.gbs 

	 --------------------------------------------------------
	                          DF-MP2                         
	      2nd-Order Density-Fitted Moller-Plesset Theory     
	              RMP2 Wavefunction,   8 Threads             
	                                                         
	        Rob Parrish, Justin Turney, Andy Simmonett,      
	           Ed Hohenstein, and C. David Sherrill          
	 --------------------------------------------------------

   => Auxiliary Basis Set <=

  Basis Set: (AUG-CC-PVTZ AUX)
    Blend: AUG-CC-PVTZ-RI
    Number of shells: 476
    Number of basis function: 1746
    Number of Cartesian functions: 2208
    Spherical Harmonics?: true
    Max angular momentum: 4

	 --------------------------------------------------------
	                 NBF =   782, NAUX =  1746
	 --------------------------------------------------------
	   CLASS    FOCC     OCC    AOCC    AVIR     VIR    FVIR
	   PAIRS       0      45      45     737     737       0
	 --------------------------------------------------------


         ------------------------------------------------------------
                                     CPHF                           
                                  Rob Parrish                       
         ------------------------------------------------------------

  ==> Geometry <==

    Molecular point group: c1
    Full point group: C1

    Geometry (in Angstrom), charge = 0, multiplicity = 1:

       Center              X                  Y                   Z               Mass       
    ------------   -----------------  -----------------  -----------------  -----------------
           C         -1.368683142382     0.841192744457    -2.662846665246    12.000000000000
           C         -2.446683142382     1.414192744457    -1.989846665246    12.000000000000
           C         -0.332683142382     0.246192744457    -1.942846665246    12.000000000000
           C         -2.489683142382     1.393192744457    -0.595846665246    12.000000000000
           C          0.835316857618    -0.154807255543     1.557153334754    12.000000000000
           C          1.605316857618    -1.227807255543    -0.451846665246    12.000000000000
           C          1.882316857618    -0.770807255543     2.223153334754    12.000000000000
           C          2.618316857618    -1.795807255543     0.303153334754    12.000000000000
           C         -0.375683142382     0.225192744457    -0.548846665246    12.000000000000
           C          0.701316857618    -0.392807255543     0.194153334754    12.000000000000
           C         -1.453683142382     0.798192744457     0.125153334754    12.000000000000
           N          2.780316857618    -1.588807255543     1.629153334754    14.003074004780
           F         -1.509683142382     0.788192744457     1.465153334754    18.998403224000
           H         -1.335683142382     0.857192744457    -3.748846665246     1.007825032070
           H         -3.253683142382     1.877192744457    -2.550846665246     1.007825032070
           H          0.501316857618    -0.195807255543    -2.482846665246     1.007825032070
           H         -3.329683142382     1.839192744457    -0.070846665246     1.007825032070
           H          0.149316857618     0.490192744457     2.097153334754     1.007825032070
           H          1.533316857618    -1.436807255543    -1.514846665246     1.007825032070
           H          2.030316857618    -0.619807255543     3.288153334754     1.007825032070
           H          3.350316857618    -2.453807255543    -0.153846665246     1.007825032070

  Nuclear repulsion =  719.019712932787456
  Reference energy  = -575.270740378504115

  ==> Basis Set <==

  Basis Set: AUG-CC-PVTZ
    Blend: AUG-CC-PVTZ
    Number of shells: 254
    Number of basis function: 782
    Number of Cartesian functions: 915
    Spherical Harmonics?: true
    Max angular momentum: 3

  ==> CGRSolver (by Rob Parrish) <==

   Number of roots    =         1
   Preconditioning    =    JACOBI
   Convergence cutoff =     1E-06
   Maximum iterations =       100

  ==> CPHFRHamiltonian (by Rob Parrish) <== 

  ==> DFJK: Density-Fitted J/K Matrices <==

    J tasked:                  Yes
    K tasked:                  Yes
    wK tasked:                  No
    OpenMP threads:              8
    Integrals threads:           8
    Memory (MB):              3576
    Algorithm:                Disk
    Integral Cache:           NONE
    Schwarz Cutoff:          1E-12
    Fitting Condition:       1E-12

   => Auxiliary Basis Set <=

  Basis Set: (AUG-CC-PVTZ AUX)
    Blend: AUG-CC-PVTZ-JKFIT
    Number of shells: 502
    Number of basis function: 1720
    Number of Cartesian functions: 2143
    Spherical Harmonics?: true
    Max angular momentum: 4

  ==> CPHF Iterations <==

  => Iterations <=

             Iter  Converged  Remaining    Residual
  CGR           1          0          1   9.804E-02
  CGR           2          0          1   2.976E-02
  CGR           3          0          1   1.990E-02
  CGR           4          0          1   9.773E-03
  CGR           5          0          1   3.931E-03
  CGR           6          0          1   1.532E-03
  CGR           7          0          1   4.873E-04
  CGR           8          0          1   2.039E-04
  CGR           9          0          1   1.031E-04
  CGR          10          0          1   4.166E-05
  CGR          11          0          1   1.556E-05
  CGR          12          0          1   5.112E-06
  CGR          13          0          1   1.637E-06
  CGR          14          1          0   5.732E-07

    CGRSolver converged.

  ==> DFCorrGrad: Density-Fitted Correlated Gradients <==

    OpenMP threads:              8
    Integrals threads:           8
    Memory (MB):              3576
    Schwarz Cutoff:          0E+00
    Fitting Condition:       1E-12

   => Auxiliary Basis Set <=

  Basis Set: (AUG-CC-PVTZ AUX)
    Blend: AUG-CC-PVTZ-JKFIT
    Number of shells: 502
    Number of basis function: 1720
    Number of Cartesian functions: 2143
    Spherical Harmonics?: true
    Max angular momentum: 4

	-----------------------------------------------------------
	 ==================> DF-MP2 Energies <==================== 
	-----------------------------------------------------------
	 Reference Energy          =    -575.2707403785041151 [Eh]
	 Singles Energy            =      -0.0000000000000001 [Eh]
	 Same-Spin Energy          =      -0.6099136687893246 [Eh]
	 Opposite-Spin Energy      =      -1.8346681012495758 [Eh]
	 Correlation Energy        =      -2.4445817700389005 [Eh]
	 Total Energy              =    -577.7153221485430095 [Eh]
	-----------------------------------------------------------
	 ================> DF-SCS-MP2 Energies <================== 
	-----------------------------------------------------------
	 SCS Same-Spin Scale       =       0.3333333333333333 [-]
	 SCS Opposite-Spin Scale   =       1.2000000000000000 [-]
	 SCS Same-Spin Energy      =      -0.2033045562631082 [Eh]
	 SCS Opposite-Spin Energy  =      -2.2016017214994910 [Eh]
	 SCS Correlation Energy    =      -2.4049062777625991 [Eh]
	 SCS Total Energy          =    -577.6756466562667356 [Eh]
	-----------------------------------------------------------


  -Total Gradient:
     Atom            X                  Y                   Z
    ------   -----------------  -----------------  -----------------
       1       -0.003022759947     0.002091517567     0.000429421816
       2       -0.003021189368     0.001928083037    -0.002621392104
       3        0.016253666280    -0.008427143225     0.008189051641
       4        0.000869983121    -0.000016346766    -0.005129156806
       5       -0.013376093382     0.004299257814    -0.010764098265
       6       -0.007793887024     0.003278645808    -0.006982069207
       7       -0.012244737526     0.009434520214     0.003682840792
       8       -0.004782392489     0.000403288869    -0.010786104607
       9       -0.004323402364     0.002218314603    -0.005131069140
      10        0.004792502407    -0.001893385467     0.001786831204
      11        0.011103956927    -0.009034494578     0.029342518981
      12        0.011805986097    -0.006498706618     0.006868743127
      13        0.019426457625    -0.004416178223     0.005092125484
      14        0.000119403415    -0.000171715231    -0.005304216204
      15       -0.003495419406     0.001966733127    -0.003842379150
      16        0.005614220204    -0.004684678027    -0.005127758696
      17       -0.004801492826     0.002634215834     0.000914812864
      18       -0.015706836837     0.008089967296     0.004013243554
      19       -0.000859677539     0.000828439754    -0.007582984306
      20        0.001054144743    -0.000278182534     0.003349369833
      21        0.002387567881    -0.001752153251    -0.000397730812


*** tstop() called on gpu-1-11.local at Sat Nov 11 18:47:36 2017
Module time:
	user time   =    4535.26 seconds =      75.59 minutes
	system time =     101.53 seconds =       1.69 minutes
	total time  =       2077 seconds =      34.62 minutes
Total time:
	user time   =    4535.27 seconds =      75.59 minutes
	system time =     101.53 seconds =       1.69 minutes
	total time  =       2077 seconds =      34.62 minutes

			-----------------------------------------
			 OPTKING 2.0: for geometry optimizations 
			  - R.A. King,  Bethel University        
			-----------------------------------------

	Internal coordinates to be generated automatically.
	Detected frag 1 with atoms:  1 2 3 4 5 6 7 8 9 10 11 12 13 14 15 16 17 18 19 20
	 21
	---Fragment 1 Bond Connectivity---
	 1 : 2 3 14
	 2 : 1 4 15
	 3 : 1 9 16
	 4 : 2 11 17
	 5 : 7 10 18
	 6 : 8 10 19
	 7 : 5 12 20
	 8 : 6 12 21
	 9 : 3 10 11
	 10 : 5 6 9
	 11 : 4 9 13
	 12 : 7 8
	 13 : 11
	 14 : 1
	 15 : 2
	 16 : 3
	 17 : 4
	 18 : 5
	 19 : 6
	 20 : 7
	 21 : 8

	Assuming in current code that numbering for constraints corresponds to unified fragment.
	Fixed dihedral atom list: 
	     3     9    10     5
	---Fragment 1 Geometry and Gradient---
	 C          -2.5864363018        1.5896239120       -5.0320509312
	 C          -4.6235610730        2.6724369861       -3.7602652437
	 C          -0.6286800281        0.4652368629       -3.6714481155
	 C          -4.7048192968        2.6327527373       -1.1259870145
	 C           1.5785200951       -0.2925433164        2.9425933496
	 C           3.0336092174       -2.3202194569       -0.8538664514
	 C           3.5570633562       -1.4566146142        4.2011509541
	 C           4.9479017900       -3.3935839004        0.5728767790
	 C          -0.7099382518        0.4255526141       -1.0371698863
	 C           1.3252967933       -0.7422981360        0.3668966305
	 C          -2.7470630231        1.5083656883        0.2365055273
	 N           5.2540374235       -3.0024105909        3.0786536312
	 F          -2.8528876865        1.4894684270        2.7687385454
	 H          -2.5240753394        1.6198595301       -7.0842935115
	 H          -6.1485700623        3.5473801857       -4.8204016043
	 H           0.9473515667       -0.3700220878       -4.6919002273
	 H          -6.2921892484        3.4755705926       -0.1338807947
	 H           0.2821679679        0.9263300394        3.9630454614
	 H           2.8975489358       -2.7151722187       -2.8626453306
	 H           3.8367428239       -1.1712659682        6.2137092856
	 H           6.3311813193       -4.6370236959       -0.2907280638
	            -0.0030227599        0.0020915176        0.0004294218
	            -0.0030211894        0.0019280830       -0.0026213921
	             0.0162536663       -0.0084271432        0.0081890516
	             0.0008699831       -0.0000163468       -0.0051291568
	            -0.0133760934        0.0042992578       -0.0107640983
	            -0.0077938870        0.0032786458       -0.0069820692
	            -0.0122447375        0.0094345202        0.0036828408
	            -0.0047823925        0.0004032889       -0.0107861046
	            -0.0043234024        0.0022183146       -0.0051310691
	             0.0047925024       -0.0018933855        0.0017868312
	             0.0111039569       -0.0090344946        0.0293425190
	             0.0118059861       -0.0064987066        0.0068687431
	             0.0194264576       -0.0044161782        0.0050921255
	             0.0001194034       -0.0001717152       -0.0053042162
	            -0.0034954194        0.0019667331       -0.0038423791
	             0.0056142202       -0.0046846780       -0.0051277587
	            -0.0048014928        0.0026342158        0.0009148129
	            -0.0157068368        0.0080899673        0.0040132436
	            -0.0008596775        0.0008284398       -0.0075829843
	             0.0010541447       -0.0002781825        0.0033493698
	             0.0023875679       -0.0017521533       -0.0003977308

	Previous optimization step data not found.  Starting new optimization.

	---Fragment 1 Intrafragment Coordinates---
	 - Coordinate -           - BOHR/RAD -       - ANG/DEG -
	 R(1,2)           =         2.634350	       1.394038
	 R(1,3)           =         2.635962	       1.394891
	 R(1,14)          =         2.053412	       1.086619
	 R(2,4)           =         2.635830	       1.394821
	 R(2,15)          =         2.053063	       1.086434
	 R(3,9)           =         2.635830	       1.394821
	 R(3,16)          =         2.054959	       1.087437
	 R(4,11)          =         2.636938	       1.395407
	 R(4,17)          =         2.052891	       1.086343
	 R(5,7)           =         2.617950	       1.385360
	 R(5,10)          =         2.626902	       1.390097
	 R(5,18)          =         2.051220	       1.085459
	 R(6,8)           =         2.617675	       1.385214
	 R(6,10)          =         2.626486	       1.389877
	 R(6,19)          =         2.051754	       1.085741
	 R(7,12)          =         2.555231	       1.352170
	 R(7,20)          =         2.051837	       1.085785
	 R(8,12)          =         2.554536	       1.351802
	 R(8,21)          =         2.050712	       1.085190
	 R(9,10)          =         2.734494	       1.447032
	 R(9,11)          =         2.635263	       1.394521
	 R(11,13)         =         2.534514	       1.341207
	 B(1,2,4)         =         2.094553	     120.009056
	 B(1,2,15)        =         2.094721	     120.018646
	 B(1,3,9)         =         2.093692	     119.959722
	 B(1,3,16)        =         2.079074	     119.122177
	 B(2,1,3)         =         2.094940	     120.031219
	 B(2,1,14)        =         2.094311	     119.995189
	 B(2,4,11)        =         2.094306	     119.994870
	 B(2,4,17)        =         2.095140	     120.042665
	 B(3,1,14)        =         2.093934	     119.973570
	 B(3,9,10)        =         2.090528	     119.778448
	 B(3,9,11)        =         2.095181	     120.045019
	 B(4,2,15)        =         2.093912	     119.972298
	 B(4,11,9)        =         2.093699	     119.960108
	 B(4,11,13)       =         2.081063	     119.236128
	 B(5,7,12)        =         2.164844	     124.036404
	 B(5,7,20)        =         2.109142	     120.844954
	 B(5,10,6)        =         2.089657	     119.728499
	 B(5,10,9)        =         2.096800	     120.137764
	 B(6,8,12)        =         2.164564	     124.020358
	 B(6,8,21)        =         2.108754	     120.822713
	 B(6,10,9)        =         2.096729	     120.133710
	 B(7,5,10)        =         2.057929	     117.910651
	 B(7,5,18)        =         2.097505	     120.178196
	 B(7,12,8)        =         2.030806	     116.356624
	 B(8,6,10)        =         2.058571	     117.947412
	 B(8,6,19)        =         2.098082	     120.211243
	 B(9,3,16)        =         2.110419	     120.918077
	 B(9,11,13)       =         2.108422	     120.803676
	 B(10,5,18)       =         2.127751	     121.911145
	 B(10,6,19)       =         2.126532	     121.841301
	 B(10,9,11)       =         2.097476	     120.176533
	 B(11,4,17)       =         2.093740	     119.962450
	 B(12,7,20)       =         2.009196	     115.118471
	 B(12,8,21)       =         2.009868	     115.156928
	 D(1,2,4,11)      =        -0.000325	      -0.018609
	 D(1,2,4,17)      =        -3.141151	    -179.974682
	 D(1,3,9,10)      =        -3.141334	    -179.985190
	 D(1,3,9,11)      =         0.000325	       0.018608
	 D(2,1,3,9)       =        -0.000348	      -0.019945
	 D(2,1,3,16)      =        -3.140969	    -179.964243
	 D(2,4,11,9)      =         0.000301	       0.017261
	 D(2,4,11,13)     =         3.140029	     179.910408
	 D(3,1,2,4)       =         0.000348	       0.019955
	 D(3,1,2,15)      =        -3.141142	    -179.974167
	 D(3,9,10,5)      =         2.879676	     164.993263
	 D(3,9,10,6)      =        -0.262966	     -15.066848
	 D(3,9,11,4)      =        -0.000301	      -0.017270
	 D(3,9,11,13)     =        -3.139999	    -179.908714
	 D(4,2,1,14)      =         3.141002	     179.966134
	 D(4,11,9,10)     =         3.141358	     179.986543
	 D(5,7,12,8)      =         0.001105	       0.063303
	 D(5,10,6,8)      =        -0.000588	      -0.033664
	 D(5,10,6,19)     =        -3.140843	    -179.957040
	 D(5,10,9,11)     =        -0.261983	     -15.010540
	 D(6,8,12,7)      =        -0.001498	      -0.085812
	 D(6,10,5,7)      =         0.000235	       0.013467
	 D(6,10,5,18)     =        -3.140752	    -179.951828
	 D(6,10,9,11)     =         2.878560	     164.929350
	 D(7,5,10,9)      =         3.140783	     179.953600
	 D(7,12,8,21)     =         3.139945	     179.905579
	 D(8,6,10,9)      =        -3.141135	    -179.973800
	 D(8,12,7,20)     =         3.140082	     179.913473
	 D(9,3,1,14)      =        -3.141002	    -179.966136
	 D(9,10,5,18)     =        -0.000204	      -0.011694
	 D(9,10,6,19)     =         0.001795	       0.102823
	 D(9,11,4,17)     =         3.141128	     179.973370
	 D(10,5,7,12)     =        -0.000513	      -0.029402
	 D(10,5,7,20)     =        -3.139348	    -179.871392
	 D(10,6,8,12)     =         0.001273	       0.072964
	 D(10,6,8,21)     =        -3.140161	    -179.917962
	 D(10,9,3,16)     =        -0.000731	      -0.041910
	 D(10,9,11,13)    =         0.001660	       0.095099
	 D(11,4,2,15)     =         3.141165	     179.975516
	 D(11,9,3,16)     =         3.140927	     179.961888
	 D(12,7,5,18)     =         3.140485	     179.936519
	 D(12,8,6,19)     =         3.141551	     179.997640
	 D(13,11,4,17)    =        -0.002330	      -0.133484
	 D(14,1,2,15)     =        -0.000488	      -0.027988
	 D(14,1,3,16)     =         0.001563	       0.089566
	 D(15,2,4,17)     =         0.000339	       0.019443
	 D(18,5,7,20)     =         0.001650	       0.094529
	 D(19,6,8,21)     =         0.000117	       0.006715
	 R(5,13)          =         4.779453	       2.529177

	Current energy   :      -577.7153221485

	Generating empirical Hessian (Schlegel '84) for each fragment.
	Adding user-defined constraint: Fragment 1; Coordinate 67:
		Value =     2.879676; Fixed value    =     2.879793
		Force =     0.000059; Force constant =     0.500000
	Removing off-diagonal coupling between coordinate 67 and others.
	Taking RFO optimization step.
	Going to follow RFO solution 1.
	Using RFO vector 1.

	Determining step-restricting scale parameter for RS-RFO.
	Maximum step size allowed    0.10000

	 Iter      |step|        alpha        rfo_root  
	------------------------------------------------
	    0     0.44514       1.00000           1
	    1     0.29043       3.83072           1
	    2     0.19777      10.96960           1
	    3     0.14349      25.42397           1
	    4     0.11429      45.24368           1
	    5     0.10241      59.34890           1
	    6     0.10009      62.78183           1
	    7     0.10000      62.91994           1
	------------------------------------------------
	Norm of target step-size    0.10000
	Projected energy change by RFO approximation:        -0.0060794715

	Back-transformation to cartesian coordinates...
	Could not converge backtransformation.
	Using first guess instead.

	--- Internal Coordinate Step in ANG or DEG, aJ/ANG or AJ/DEG ---
	 ---------------------------------------------------------------------------
	   Coordinate                Previous        Force       Change         New 
	   ----------                --------       ------       ------       ------
	    1 R(1,2)          =      1.394038    -0.052174    -0.003971     1.390067
	    2 R(1,3)          =      1.394891    -0.064046    -0.004693     1.390198
	    3 R(1,14)         =      1.086619    -0.043684    -0.003689     1.082930
	    4 R(2,4)          =      1.394821    -0.085451    -0.006441     1.388380
	    5 R(2,15)         =      1.086434    -0.044643    -0.003756     1.082678
	    6 R(3,9)          =      1.394821     0.015042     0.001425     1.396246
	    7 R(3,16)         =      1.087437    -0.072140    -0.006073     1.081364
	    8 R(4,11)         =      1.395407    -0.113470    -0.008308     1.387099
	    9 R(4,17)         =      1.086343    -0.043140    -0.003573     1.082770
	   10 R(5,7)          =      1.385360     0.015439     0.001171     1.386530
	   11 R(5,10)         =      1.390097     0.065583     0.005266     1.395363
	   12 R(5,18)         =      1.085459    -0.137836    -0.011447     1.074012
	   13 R(6,8)          =      1.385214    -0.013289    -0.001028     1.384186
	   14 R(6,10)         =      1.389877     0.038241     0.003299     1.393176
	   15 R(6,19)         =      1.085741    -0.060322    -0.005018     1.080723
	   16 R(7,12)         =      1.352170    -0.132664    -0.009218     1.342953
	   17 R(7,20)         =      1.085785    -0.027931    -0.002355     1.083430
	   18 R(8,12)         =      1.351802    -0.133351    -0.009331     1.342471
	   19 R(8,21)         =      1.085190    -0.023402    -0.001962     1.083228
	   20 R(9,10)         =      1.447032     0.178614     0.014926     1.461958
	   21 R(9,11)         =      1.394521    -0.049539    -0.002985     1.391536
	   22 R(11,13)        =      1.341207    -0.035428    -0.002301     1.338906
	   23 B(1,2,4)        =    120.009056    -0.000068    -0.107295   119.901761
	   24 B(1,2,15)       =    120.018646     0.000129     0.180475   120.199121
	   25 B(1,3,9)        =    119.959722     0.000523     0.677433   120.637155
	   26 B(1,3,16)       =    119.122177    -0.000195    -0.253246   118.868931
	   27 B(2,1,3)        =    120.031219     0.000001     0.004567   120.035786
	   28 B(2,1,14)       =    119.995189    -0.000007    -0.010840   119.984350
	   29 B(2,4,11)       =    119.994870    -0.000275    -0.338915   119.655955
	   30 B(2,4,17)       =    120.042665     0.000282     0.360675   120.403340
	   31 B(3,1,14)       =    119.973570     0.000006     0.006284   119.979854
	   32 B(3,9,10)       =    119.778448     0.001179     1.229639   121.008087
	   33 B(3,9,11)       =    120.045019    -0.001379    -1.598323   118.446696
	   34 B(4,2,15)       =    119.972298    -0.000061    -0.073191   119.899107
	   35 B(4,11,9)       =    119.960108     0.001197     1.362458   121.322567
	   36 B(4,11,13)      =    119.236128    -0.000299    -0.421452   118.814675
	   37 B(5,7,12)       =    124.036404     0.000332     0.364097   124.400501
	   38 B(5,7,20)       =    120.844954    -0.000238    -0.277806   120.567147
	   39 B(5,10,6)       =    119.728499    -0.001336    -1.472644   118.255855
	   40 B(5,10,9)       =    120.137764     0.000779     0.941890   121.079654
	   41 B(6,8,12)       =    124.020358     0.000083     0.037650   124.058008
	   42 B(6,8,21)       =    120.822713    -0.000114    -0.114506   120.708208
	   43 B(6,10,9)       =    120.133710     0.000557     0.530621   120.664331
	   44 B(7,5,10)       =    117.910651     0.000246     0.366518   118.277169
	   45 B(7,5,18)       =    120.178196    -0.000586    -0.809976   119.368219
	   46 B(7,12,8)       =    116.356624     0.000018    -0.129823   116.226801
	   47 B(8,6,10)       =    117.947412     0.000658     0.834136   118.781547
	   48 B(8,6,19)       =    120.211243    -0.000457    -0.591959   119.619283
	   49 B(9,3,16)       =    120.918077    -0.000328    -0.424430   120.493647
	   50 B(9,11,13)      =    120.803676    -0.000898    -0.941058   119.862619
	   51 B(10,5,18)      =    121.911145     0.000340     0.443006   122.354151
	   52 B(10,6,19)      =    121.841301    -0.000201    -0.242155   121.599146
	   53 B(10,9,11)      =    120.176533     0.000200     0.368493   120.545026
	   54 B(11,4,17)      =    119.962450    -0.000007    -0.021800   119.940650
	   55 B(12,7,20)      =    115.118471    -0.000094    -0.086225   115.032246
	   56 B(12,8,21)      =    115.156928     0.000030     0.076851   115.233779
	   57 D(1,2,4,11)     =     -0.018609     0.000006     0.046946     0.028337
	   58 D(1,2,4,17)     =   -179.974682     0.000010     0.087800  -179.886881
	   59 D(1,3,9,10)     =   -179.985190    -0.000006    -0.063140  -180.048329
	   60 D(1,3,9,11)     =      0.018608     0.000009     0.091323     0.109930
	   61 D(2,1,3,9)      =     -0.019945    -0.000007    -0.058243    -0.078188
	   62 D(2,1,3,16)     =   -179.964243     0.000010     0.073073  -179.891170
	   63 D(2,4,11,9)     =      0.017261    -0.000003    -0.011782     0.005479
	   64 D(2,4,11,13)    =    179.910408     0.000029     0.230886   180.141293
	   65 D(3,1,2,4)      =      0.019955    -0.000001    -0.012197     0.007757
	   66 D(3,1,2,15)     =   -179.974167     0.000002     0.019229  -179.954938
	   67 D(3,9,10,5)     =    164.993263    -0.000036    -0.207219   164.786044
	   68 D(3,9,10,6)     =    -15.066848    -0.000044    -0.294912   -15.361760
	   69 D(3,9,11,4)     =     -0.017270    -0.000005    -0.056610    -0.073881
	   70 D(3,9,11,13)    =   -179.908714    -0.000037    -0.302384  -180.211098
	   71 D(4,2,1,14)     =    179.966134     0.000001     0.003524   179.969658
	   72 D(4,11,9,10)    =    179.986543     0.000010     0.097077   180.083619
	   73 D(5,7,12,8)     =      0.063303     0.000007     0.057337     0.120640
	   74 D(5,10,6,8)     =     -0.033664     0.000000    -0.007615    -0.041278
	   75 D(5,10,6,19)    =   -179.957040    -0.000017    -0.139830  -180.096870
	   76 D(5,10,9,11)    =    -15.010540    -0.000051    -0.364990   -15.375529
	   77 D(6,8,12,7)     =     -0.085812    -0.000000     0.000306    -0.085506
	   78 D(6,10,5,7)     =      0.013467     0.000006     0.058669     0.072135
	   79 D(6,10,5,18)    =   -179.951828    -0.000030    -0.224846  -180.176674
	   80 D(6,10,9,11)    =    164.929350    -0.000059    -0.452683   164.476667
	   81 D(7,5,10,9)     =    179.953600    -0.000001    -0.025800   179.927801
	   82 D(7,12,8,21)    =    179.905579     0.000004     0.036415   179.941994
	   83 D(8,6,10,9)     =   -179.973800     0.000008     0.076232  -179.897568
	   84 D(8,12,7,20)    =    179.913473     0.000012     0.088910   180.002383
	   85 D(9,3,1,14)     =   -179.966136    -0.000009    -0.073954  -180.040090
	   86 D(9,10,5,18)    =     -0.011694    -0.000037    -0.309314    -0.321008
	   87 D(9,10,6,19)    =      0.102823    -0.000010    -0.055983     0.046841
	   88 D(9,11,4,17)    =    179.973370    -0.000007    -0.052275   179.921094
	   89 D(10,5,7,12)    =     -0.029402    -0.000011    -0.088028    -0.117430
	   90 D(10,5,7,20)    =   -179.871392    -0.000016    -0.121596  -179.992987
	   91 D(10,6,8,12)    =      0.072964    -0.000003    -0.023193     0.049771
	   92 D(10,6,8,21)    =   -179.917962    -0.000008    -0.061200  -179.979162
	   93 D(10,9,3,16)    =     -0.041910    -0.000023    -0.196485    -0.238395
	   94 D(10,9,11,13)   =      0.095099    -0.000022    -0.148697    -0.053598
	   95 D(11,4,2,15)    =    179.975516     0.000002     0.015629   179.991145
	   96 D(11,9,3,16)    =    179.961888    -0.000007    -0.042023   179.919865
	   97 D(12,7,5,18)    =    179.936519     0.000025     0.187229   180.123748
	   98 D(12,8,6,19)    =    179.997640     0.000014     0.106597   180.104237
	   99 D(13,11,4,17)   =     -0.133484     0.000024     0.190393     0.056909
	  100 D(14,1,2,15)    =     -0.027988     0.000005     0.034950     0.006962
	  101 D(14,1,3,16)    =      0.089566     0.000008     0.057363     0.146928
	  102 D(15,2,4,17)    =      0.019443     0.000007     0.056484     0.075927
	  103 D(18,5,7,20)    =      0.094529     0.000020     0.153661     0.248190
	  104 D(19,6,8,21)    =      0.006715     0.000009     0.068590     0.075304
	  105 R(5,13)         =      2.529177     0.185962     0.026501     2.555679
	 ---------------------------------------------------------------------------
	Successfully symmetrized geometry.
	 Forces used to impose fixed constraints are not included.
	  Forces zeroed: 67 

  ==> Convergence Check <==

  Measures of convergence in internal coordinates in au.
  Criteria marked as inactive (o), active & met (*), and active & unmet ( ).
  --------------------------------------------------------------------------------------------- ~
   Step     Total Energy     Delta E     MAX Force     RMS Force      MAX Disp      RMS Disp    ~
  --------------------------------------------------------------------------------------------- ~
    Convergence Criteria    1.00e-06 *    3.00e-04 *             o    1.20e-03 *             o  ~
  --------------------------------------------------------------------------------------------- ~
      1    -577.71532215   -5.78e+02      2.26e-02      6.48e-03 o    5.01e-02      9.78e-03 o  ~
  ---------------------------------------------------------------------------------------------

	Writing optimization data to binary file.
	Structure for next step:
	Cartesian Geometry (in Angstrom)
	    C    -1.3870971865   0.8553651893  -2.6715766774
	    C    -2.4625074708   1.4219728135  -1.9972357374
	    C    -0.3520381684   0.2627367928  -1.9573665940
	    C    -2.5011445048   1.3952310443  -0.6096511835
	    C     0.8521111758  -0.1597382273   1.5655589764
	    C     1.6190073167  -1.2361415792  -0.4298871284
	    C     1.8996274338  -0.7806829475   2.2285849363
	    C     2.6284346248  -1.8058535274   0.3267204297
	    C    -0.3779084496   0.2303966151  -0.5617351370
	    C     0.7056690293  -0.3915999902   0.1974099640
	    C    -1.4634968275   0.8023952002   0.0945338955
	    N     2.7897869296  -1.5982746882   1.6431949325
	    F    -1.5193749905   0.7835251754   1.4321400005
	    H    -1.3558311323   0.8750370140  -3.7538769467
	    H    -3.2703849140   1.8835537245  -2.5508316286
	    H     0.4761490513  -0.1707180157  -2.5010309480
	    H    -3.3357573198   1.8325146113  -0.0761768053
	    H     0.1876543697   0.4813231639   2.1142300030
	    H     1.5553250372  -1.4543807409  -1.4864278705
	    H     2.0478681472  -0.6267709730   3.2907322614
	    H     3.3555618589  -2.4668430212  -0.1290887125
			--------------------------
			 OPTKING Finished Execution 
			--------------------------

    Structure for next step:
    Molecular point group: c1
    Full point group: C1

    Geometry (in Angstrom), charge = 0, multiplicity = 1:

    C           -1.385858957020     0.855420494336    -2.667590309870
    C           -2.461269241333     1.422028118558    -1.993249369908
    C           -0.350799938916     0.262792097869    -1.953380226461
    C           -2.499906275348     1.395286349355    -0.605664816016
    C            0.853349405313    -0.159682922209     1.569545343880
    C            1.620245546246    -1.236086274142    -0.425900760845
    C            1.900865663303    -0.780627642456     2.232571303836
    C            2.629672854290    -1.805798222394     0.330706797218
    C           -0.376670220064     0.230451920104    -0.557748769482
    C            0.706907258805    -0.391544685117     0.201396331509
    C           -1.462258597974     0.802450505233     0.098520263011
    N            2.791025159090    -1.598219383205     1.647181299997
    F           -1.518136761001     0.783580480492     1.436126368004
    H           -1.354592902753     0.875092319020    -3.749890579185
    H           -3.269146684547     1.883609029497    -2.546845261093
    H            0.477387280792    -0.170662710658    -2.497044580453
    H           -3.334519090324     1.832569916342    -0.072190437802
    H            0.188892599190     0.481378468935     2.118216370518
    H            1.556563266684    -1.454325435873    -1.482441503013
    H            2.049106376694    -0.626715667958     3.294718628949
    H            3.356800088372    -2.466787716198    -0.125102345016

gradient() will perform analytic gradient computation.

*** tstart() called on gpu-1-11.local
*** at Sat Nov 11 18:47:38 2017

    SCF Algorithm Type (re)set to DF.

*** tstart() called on gpu-1-11.local
*** at Sat Nov 11 18:47:38 2017

   => Loading Basis Set <=

    Name: AUG-CC-PVTZ
    Role: ORBITAL
    Keyword: BASIS
    atoms 1-11  entry C          line   221 file /cbio/jclab/home/chayas/anaconda/envs/py35/share/psi4/basis/aug-cc-pvtz.gbs 
    atoms 12    entry N          line   267 file /cbio/jclab/home/chayas/anaconda/envs/py35/share/psi4/basis/aug-cc-pvtz.gbs 
    atoms 13    entry F          line   359 file /cbio/jclab/home/chayas/anaconda/envs/py35/share/psi4/basis/aug-cc-pvtz.gbs 
    atoms 14-21 entry H          line    34 file /cbio/jclab/home/chayas/anaconda/envs/py35/share/psi4/basis/aug-cc-pvtz.gbs 


         ---------------------------------------------------------
                                   SCF
            by Justin Turney, Rob Parrish, and Andy Simmonett
                              RHF Reference
                        8 Threads,   4768 MiB Core
         ---------------------------------------------------------

  ==> Geometry <==

    Molecular point group: c1
    Full point group: C1

    Geometry (in Angstrom), charge = 0, multiplicity = 1:

       Center              X                  Y                   Z               Mass       
    ------------   -----------------  -----------------  -----------------  -----------------
           C         -1.385858957020     0.855420494336    -2.667590309870    12.000000000000
           C         -2.461269241333     1.422028118558    -1.993249369908    12.000000000000
           C         -0.350799938916     0.262792097869    -1.953380226461    12.000000000000
           C         -2.499906275348     1.395286349355    -0.605664816016    12.000000000000
           C          0.853349405313    -0.159682922209     1.569545343880    12.000000000000
           C          1.620245546246    -1.236086274142    -0.425900760845    12.000000000000
           C          1.900865663303    -0.780627642456     2.232571303836    12.000000000000
           C          2.629672854290    -1.805798222394     0.330706797218    12.000000000000
           C         -0.376670220064     0.230451920104    -0.557748769482    12.000000000000
           C          0.706907258805    -0.391544685117     0.201396331509    12.000000000000
           C         -1.462258597974     0.802450505233     0.098520263011    12.000000000000
           N          2.791025159090    -1.598219383205     1.647181299997    14.003074004780
           F         -1.518136761001     0.783580480492     1.436126368004    18.998403224000
           H         -1.354592902753     0.875092319020    -3.749890579185     1.007825032070
           H         -3.269146684547     1.883609029497    -2.546845261093     1.007825032070
           H          0.477387280792    -0.170662710658    -2.497044580453     1.007825032070
           H         -3.334519090324     1.832569916342    -0.072190437802     1.007825032070
           H          0.188892599190     0.481378468935     2.118216370518     1.007825032070
           H          1.556563266684    -1.454325435873    -1.482441503013     1.007825032070
           H          2.049106376694    -0.626715667958     3.294718628949     1.007825032070
           H          3.356800088372    -2.466787716198    -0.125102345016     1.007825032070

  Running in c1 symmetry.

  Rotational constants: A =      0.06479  B =      0.01853  C =      0.01451 [cm^-1]
  Rotational constants: A =   1942.41104  B =    555.38060  C =    434.91612 [MHz]
  Nuclear repulsion =  718.215612197763789

  Charge       = 0
  Multiplicity = 1
  Electrons    = 90
  Nalpha       = 45
  Nbeta        = 45

  ==> Algorithm <==

  SCF Algorithm Type is DF.
  DIIS enabled.
  MOM disabled.
  Fractional occupation disabled.
  Guess Type is READ.
  Energy threshold   = 1.00e-10
  Density threshold  = 1.00e-10
  Integral threshold = 0.00e+00

  ==> Primary Basis <==

  Basis Set: AUG-CC-PVTZ
    Blend: AUG-CC-PVTZ
    Number of shells: 254
    Number of basis function: 782
    Number of Cartesian functions: 915
    Spherical Harmonics?: true
    Max angular momentum: 3

   => Loading Basis Set <=

    Name: (AUG-CC-PVTZ AUX)
    Role: JKFIT
    Keyword: DF_BASIS_SCF
    atoms 1-11  entry C          line   161 file /cbio/jclab/home/chayas/anaconda/envs/py35/share/psi4/basis/aug-cc-pvtz-jkfit.gbs 
    atoms 12    entry N          line   223 file /cbio/jclab/home/chayas/anaconda/envs/py35/share/psi4/basis/aug-cc-pvtz-jkfit.gbs 
    atoms 13    entry F          line   347 file /cbio/jclab/home/chayas/anaconda/envs/py35/share/psi4/basis/aug-cc-pvtz-jkfit.gbs 
    atoms 14-21 entry H          line    69 file /cbio/jclab/home/chayas/anaconda/envs/py35/share/psi4/basis/aug-cc-pvtz-jkfit.gbs 

  Reading orbitals from file 180, no projection.

  ==> Pre-Iterations <==

   -------------------------------------------------------
    Irrep   Nso     Nmo     Nalpha   Nbeta   Ndocc  Nsocc
   -------------------------------------------------------
     A        782     782       0       0       0       0
   -------------------------------------------------------
    Total     782     782      45      45      45       0
   -------------------------------------------------------

  ==> Integral Setup <==

  ==> DFJK: Density-Fitted J/K Matrices <==

    J tasked:                  Yes
    K tasked:                  Yes
    wK tasked:                  No
    OpenMP threads:              8
    Integrals threads:           8
    Memory (MB):              3576
    Algorithm:                Disk
    Integral Cache:           NONE
    Schwarz Cutoff:          1E-12
    Fitting Condition:       1E-12

   => Auxiliary Basis Set <=

  Basis Set: (AUG-CC-PVTZ AUX)
    Blend: AUG-CC-PVTZ-JKFIT
    Number of shells: 502
    Number of basis function: 1720
    Number of Cartesian functions: 2143
    Spherical Harmonics?: true
    Max angular momentum: 4

  Minimum eigenvalue in the overlap matrix is 5.8143632613E-07.
  Using Symmetric Orthogonalization.

  SCF Guess: Orbitals guess was supplied from a previous computation.

  ==> Iterations <==

                           Total Energy        Delta E     RMS |[F,P]|

   @DF-RHF iter   0:  -575.40705801363629   -5.75407e+02   4.82766e-04 
   @DF-RHF iter   1:  -575.27731657827223    1.29741e-01   1.13851e-04 
   @DF-RHF iter   2:  -575.27811921709031   -8.02639e-04   1.32385e-04 DIIS
   @DF-RHF iter   3:  -575.27885445375796   -7.35237e-04   1.10940e-05 DIIS
   @DF-RHF iter   4:  -575.27886597598808   -1.15222e-05   4.62742e-06 DIIS
   @DF-RHF iter   5:  -575.27886764493110   -1.66894e-06   1.47041e-06 DIIS
   @DF-RHF iter   6:  -575.27886789970989   -2.54779e-07   5.15110e-07 DIIS
   @DF-RHF iter   7:  -575.27886799613088   -9.64210e-08   3.66166e-07 DIIS
   @DF-RHF iter   8:  -575.27886802736862   -3.12377e-08   9.63083e-08 DIIS
   @DF-RHF iter   9:  -575.27886803114257   -3.77395e-09   5.12814e-08 DIIS
   @DF-RHF iter  10:  -575.27886803155070   -4.08136e-10   1.98000e-08 DIIS
   @DF-RHF iter  11:  -575.27886803160447   -5.37739e-11   5.73399e-09 DIIS
   @DF-RHF iter  12:  -575.27886803160936   -4.88853e-12   2.16180e-09 DIIS
   @DF-RHF iter  13:  -575.27886803161198   -2.61480e-12   1.44416e-09 DIIS
   @DF-RHF iter  14:  -575.27886803161812   -6.13909e-12   8.22004e-10 DIIS
   @DF-RHF iter  15:  -575.27886803161584    2.27374e-12   2.41851e-10 DIIS
   @DF-RHF iter  16:  -575.27886803162096   -5.11591e-12   8.90466e-11 DIIS

  ==> Post-Iterations <==

    Orbital Energies (a.u.)
    -----------------------

    Doubly Occupied:                                                      

       1A    -26.327116     2A    -15.561417     3A    -11.342647  
       4A    -11.271677     5A    -11.269280     6A    -11.268981  
       7A    -11.264377     8A    -11.259146     9A    -11.258864  
      10A    -11.255000    11A    -11.250480    12A    -11.238833  
      13A    -11.230398    14A     -1.652092    15A     -1.253080  
      16A     -1.186421    17A     -1.113934    18A     -1.040089  
      19A     -1.032284    20A     -1.028777    21A     -0.894195  
      22A     -0.877091    23A     -0.846128    24A     -0.826827  
      25A     -0.761019    26A     -0.731583    27A     -0.721172  
      28A     -0.715493    29A     -0.673436    30A     -0.662288  
      31A     -0.649623    32A     -0.626139    33A     -0.610689  
      34A     -0.593856    35A     -0.586314    36A     -0.551901  
      37A     -0.542288    38A     -0.524935    39A     -0.519447  
      40A     -0.502316    41A     -0.416795    42A     -0.416167  
      43A     -0.355653    44A     -0.346501    45A     -0.325138  

    Virtual:                                                              

      46A      0.022987    47A      0.028866    48A      0.033850  
      49A      0.040381    50A      0.043551    51A      0.048490  
      52A      0.057556    53A      0.059294    54A      0.063321  
      55A      0.078641    56A      0.084472    57A      0.085658  
      58A      0.090192    59A      0.093192    60A      0.100451  
      61A      0.104730    62A      0.106024    63A      0.109644  
      64A      0.114573    65A      0.115319    66A      0.116838  
      67A      0.117998    68A      0.126009    69A      0.130961  
      70A      0.134651    71A      0.135334    72A      0.139168  
      73A      0.140866    74A      0.142411    75A      0.147330  
      76A      0.149663    77A      0.153116    78A      0.157199  
      79A      0.164338    80A      0.167662    81A      0.174515  
      82A      0.181061    83A      0.185413    84A      0.186307  
      85A      0.189169    86A      0.196675    87A      0.206535  
      88A      0.211727    89A      0.217087    90A      0.222450  
      91A      0.228265    92A      0.231283    93A      0.234761  
      94A      0.238574    95A      0.244955    96A      0.250046  
      97A      0.252334    98A      0.256319    99A      0.261007  
     100A      0.261849   101A      0.267336   102A      0.269050  
     103A      0.278236   104A      0.284084   105A      0.287745  
     106A      0.291369   107A      0.293970   108A      0.297459  
     109A      0.301571   110A      0.303864   111A      0.307085  
     112A      0.314401   113A      0.317520   114A      0.320461  
     115A      0.323873   116A      0.333330   117A      0.337092  
     118A      0.340704   119A      0.343958   120A      0.350578  
     121A      0.352205   122A      0.359077   123A      0.367626  
     124A      0.370089   125A      0.378426   126A      0.386634  
     127A      0.390383   128A      0.395100   129A      0.403473  
     130A      0.407426   131A      0.412614   132A      0.414246  
     133A      0.417961   134A      0.424546   135A      0.429040  
     136A      0.432908   137A      0.436402   138A      0.439540  
     139A      0.442250   140A      0.444255   141A      0.451322  
     142A      0.453474   143A      0.458124   144A      0.462336  
     145A      0.466246   146A      0.471024   147A      0.472627  
     148A      0.473988   149A      0.477788   150A      0.483523  
     151A      0.490458   152A      0.493838   153A      0.494753  
     154A      0.498654   155A      0.501623   156A      0.502304  
     157A      0.506505   158A      0.508594   159A      0.515012  
     160A      0.519290   161A      0.523066   162A      0.524830  
     163A      0.529932   164A      0.533598   165A      0.537215  
     166A      0.544484   167A      0.546518   168A      0.549062  
     169A      0.555047   170A      0.557859   171A      0.561348  
     172A      0.564522   173A      0.577478   174A      0.578131  
     175A      0.584456   176A      0.588714   177A      0.596521  
     178A      0.598360   179A      0.610128   180A      0.615854  
     181A      0.622230   182A      0.628722   183A      0.635023  
     184A      0.642920   185A      0.650786   186A      0.655665  
     187A      0.659164   188A      0.666143   189A      0.678549  
     190A      0.684837   191A      0.690800   192A      0.695876  
     193A      0.699417   194A      0.703857   195A      0.709426  
     196A      0.713118   197A      0.716991   198A      0.720303  
     199A      0.730680   200A      0.737614   201A      0.740200  
     202A      0.744940   203A      0.746643   204A      0.754085  
     205A      0.757526   206A      0.764320   207A      0.771879  
     208A      0.788236   209A      0.788943   210A      0.799453  
     211A      0.808013   212A      0.808665   213A      0.811641  
     214A      0.818858   215A      0.828818   216A      0.834363  
     217A      0.840957   218A      0.851241   219A      0.858493  
     220A      0.863208   221A      0.868684   222A      0.870617  
     223A      0.875049   224A      0.881370   225A      0.885304  
     226A      0.890905   227A      0.893662   228A      0.895017  
     229A      0.900727   230A      0.903679   231A      0.908534  
     232A      0.913778   233A      0.915194   234A      0.919065  
     235A      0.922481   236A      0.932300   237A      0.939670  
     238A      0.947407   239A      0.953501   240A      0.958344  
     241A      0.961808   242A      0.967278   243A      0.971491  
     244A      0.972579   245A      0.979957   246A      0.981168  
     247A      0.983962   248A      0.986524   249A      0.992110  
     250A      0.998559   251A      1.004316   252A      1.008281  
     253A      1.014705   254A      1.016867   255A      1.024638  
     256A      1.026492   257A      1.028075   258A      1.036227  
     259A      1.042861   260A      1.043903   261A      1.047107  
     262A      1.058696   263A      1.060011   264A      1.068672  
     265A      1.072847   266A      1.079697   267A      1.083138  
     268A      1.089285   269A      1.089694   270A      1.091440  
     271A      1.096901   272A      1.103626   273A      1.109453  
     274A      1.115280   275A      1.119946   276A      1.126167  
     277A      1.129598   278A      1.133927   279A      1.135429  
     280A      1.144223   281A      1.159393   282A      1.166662  
     283A      1.168784   284A      1.175005   285A      1.176996  
     286A      1.179770   287A      1.188427   288A      1.189359  
     289A      1.195239   290A      1.197442   291A      1.206332  
     292A      1.208501   293A      1.209491   294A      1.212030  
     295A      1.224469   296A      1.228647   297A      1.231778  
     298A      1.240704   299A      1.247627   300A      1.259320  
     301A      1.263416   302A      1.268586   303A      1.275531  
     304A      1.279890   305A      1.281017   306A      1.290780  
     307A      1.293780   308A      1.304640   309A      1.307756  
     310A      1.312064   311A      1.317339   312A      1.323360  
     313A      1.332696   314A      1.335856   315A      1.352037  
     316A      1.354839   317A      1.361841   318A      1.369728  
     319A      1.377000   320A      1.386318   321A      1.388227  
     322A      1.393930   323A      1.399409   324A      1.414111  
     325A      1.425994   326A      1.431835   327A      1.439032  
     328A      1.442081   329A      1.451620   330A      1.467795  
     331A      1.475839   332A      1.483390   333A      1.497003  
     334A      1.508410   335A      1.519143   336A      1.520534  
     337A      1.524589   338A      1.533816   339A      1.541297  
     340A      1.546848   341A      1.560934   342A      1.573071  
     343A      1.577708   344A      1.582870   345A      1.594334  
     346A      1.605407   347A      1.610838   348A      1.622179  
     349A      1.636686   350A      1.642232   351A      1.651256  
     352A      1.657969   353A      1.663045   354A      1.670704  
     355A      1.678878   356A      1.685424   357A      1.697362  
     358A      1.702006   359A      1.706461   360A      1.713819  
     361A      1.722189   362A      1.735023   363A      1.738413  
     364A      1.748170   365A      1.755075   366A      1.763153  
     367A      1.768479   368A      1.784102   369A      1.788970  
     370A      1.796966   371A      1.803613   372A      1.809717  
     373A      1.821062   374A      1.821599   375A      1.824242  
     376A      1.845116   377A      1.851397   378A      1.860548  
     379A      1.870629   380A      1.882128   381A      1.889360  
     382A      1.894105   383A      1.905047   384A      1.912318  
     385A      1.913887   386A      1.931987   387A      1.937994  
     388A      1.944633   389A      1.953810   390A      1.963473  
     391A      1.974625   392A      1.977144   393A      1.983007  
     394A      1.991432   395A      1.999052   396A      2.004487  
     397A      2.011188   398A      2.016327   399A      2.026516  
     400A      2.030501   401A      2.032837   402A      2.040504  
     403A      2.044436   404A      2.054368   405A      2.062652  
     406A      2.075699   407A      2.087306   408A      2.088361  
     409A      2.094072   410A      2.101119   411A      2.107229  
     412A      2.112049   413A      2.123185   414A      2.127422  
[...]
	 R(11,13)         =         2.547370	       1.348010
	 B(1,2,4)         =         2.080754	     119.218418
	 B(1,2,15)        =         2.108610	     120.814445
	 B(1,3,9)         =         2.139572	     122.588451
	 B(1,3,16)        =         2.069590	     118.578760
	 B(2,1,3)         =         2.093770	     119.964164
	 B(2,1,14)        =         2.100895	     120.372444
	 B(2,4,11)        =         2.086700	     119.559115
	 B(2,4,17)        =         2.128016	     121.926329
	 B(3,1,14)        =         2.088491	     119.661696
	 B(3,9,10)        =         2.103648	     120.530151
	 B(3,9,11)        =         2.012003	     115.279286
	 B(4,2,15)        =         2.093819	     119.966982
	 B(4,11,9)        =         2.153442	     123.383142
	 B(4,11,13)       =         2.030992	     116.367293
	 B(5,7,12)        =         2.168478	     124.244628
	 B(5,7,20)        =         2.086051	     119.521921
	 B(5,10,6)        =         2.020386	     115.759617
	 B(5,10,9)        =         2.158682	     123.683355
	 B(6,8,12)        =         2.161517	     123.845809
	 B(6,8,21)        =         2.090808	     119.794454
	 B(6,10,9)        =         2.103409	     120.516480
	 B(7,5,10)        =         2.090951	     119.802648
	 B(7,5,18)        =         2.075617	     118.924096
	 B(7,12,8)        =         2.025753	     116.067080
	 B(8,6,10)        =         2.098916	     120.259023
	 B(8,6,19)        =         2.068055	     118.490798
	 B(9,3,16)        =         2.073310	     118.791893
	 B(9,11,13)       =         2.098448	     120.232234
	 B(10,5,18)       =         2.116207	     121.249751
	 B(10,6,19)       =         2.115843	     121.228847
	 B(10,9,11)       =         2.165971	     124.101015
	 B(11,4,17)       =         2.068443	     118.513033
	 B(12,7,20)       =         2.028648	     116.232956
	 B(12,8,21)       =         2.030836	     116.358330
	 D(1,2,4,11)      =         0.004779	       0.273805
	 D(1,2,4,17)      =        -3.128860	    -179.270475
	 D(1,3,9,10)      =         3.100042	     177.619312
	 D(1,3,9,11)      =         0.016089	       0.921819
	 D(2,1,3,9)       =        -0.005938	      -0.340215
	 D(2,1,3,16)      =        -3.106412	    -177.984286
	 D(2,4,11,9)      =         0.006531	       0.374187
	 D(2,4,11,13)     =        -3.108630	    -178.111396
	 D(3,1,2,4)       =        -0.005027	      -0.288025
	 D(3,1,2,15)      =         3.139066	     179.855205
	 D(3,9,10,5)      =         2.871952	     164.550736
	 D(3,9,10,6)      =        -0.311809	     -17.865338
	 D(3,9,11,4)      =        -0.016472	      -0.943791
	 D(3,9,11,13)     =         3.097710	     177.485734
	 D(4,2,1,14)      =        -3.138322	    -179.812597
	 D(4,11,9,10)     =        -3.098104	    -177.508270
	 D(5,7,12,8)      =        -0.001445	      -0.082814
	 D(5,10,6,8)      =        -0.025749	      -1.475308
	 D(5,10,6,19)     =         3.086078	     176.819227
	 D(5,10,9,11)     =        -0.332590	     -19.056011
	 D(6,8,12,7)      =         0.005783	       0.331349
	 D(6,10,5,7)      =         0.029604	       1.696166
	 D(6,10,5,18)     =         3.140083	     179.913512
	 D(6,10,9,11)     =         2.766834	     158.527915
	 D(7,5,10,9)      =         3.130862	     179.385156
	 D(7,12,8,21)     =        -3.128242	    -179.235063
	 D(8,6,10,9)      =        -3.128383	    -179.243121
	 D(8,12,7,20)     =         3.135646	     179.659287
	 D(9,3,1,14)      =         3.127416	     179.187752
	 D(9,10,5,18)     =        -0.041844	      -2.397498
	 D(9,10,6,19)     =        -0.016556	      -0.948586
	 D(9,11,4,17)     =         3.140441	     179.934016
	 D(10,5,7,12)     =        -0.017101	      -0.979810
	 D(10,5,7,20)     =         3.129132	     179.286043
	 D(10,6,8,12)     =         0.008517	       0.487978
	 D(10,6,8,21)     =        -3.140889	    -179.959711
	 D(10,9,3,16)     =        -0.082753	      -4.741420
	 D(10,9,11,13)    =         0.016079	       0.921254
	 D(11,4,2,15)     =        -3.139292	    -179.868188
	 D(11,9,3,16)     =         3.116479	     178.561087
	 D(12,7,5,18)     =        -3.128304	    -179.238610
	 D(12,8,6,19)     =        -3.104116	    -177.852735
	 D(13,11,4,17)    =         0.025280	       1.448433
	 D(14,1,2,15)     =         0.005771	       0.330633
	 D(14,1,3,16)     =         0.026942	       1.543682
	 D(15,2,4,17)     =         0.010254	       0.587532
	 D(18,5,7,20)     =         0.017929	       1.027243
	 D(19,6,8,21)     =         0.029663	       1.699576
	 R(5,13)          =         5.244317	       2.775173

	Current energy   :      -577.7255548212

	Energy change for the previous step:
		Projected    :        -0.0000014732
		Actual       :         0.0000007873

	Performing BFGS update.
	Previous computed or guess Hessian on step 1.
	Steps to be used in Hessian update: 10 9
	Adding user-defined constraint: Fragment 1; Coordinate 67:
		Value =     2.871952; Fixed value    =     2.879790
		Force =     0.005878; Force constant =     0.750000
	Removing off-diagonal coupling between coordinate 67 and others.
	Taking RFO optimization step.
	Going to follow RFO solution 1.
	Rejecting RFO root 1 because normalization gives large value.
	Using RFO vector 2.
	Norm of target step-size    0.03150
	Projected energy change by RFO approximation:        -0.0000006997

	Back-transformation to cartesian coordinates...
	Could not converge backtransformation.
	Using first guess instead.

	--- Internal Coordinate Step in ANG or DEG, aJ/ANG or AJ/DEG ---
	 ---------------------------------------------------------------------------
	   Coordinate                Previous        Force       Change         New 
	   ----------                --------       ------       ------       ------
	    1 R(1,2)          =      1.387497     0.000169     0.000120     1.387617
	    2 R(1,3)          =      1.383455     0.000235     0.000300     1.383755
	    3 R(1,14)         =      1.078432     0.000181     0.000236     1.078668
	    4 R(2,4)          =      1.384036     0.000337     0.000356     1.384393
	    5 R(2,15)         =      1.078656     0.000197     0.000213     1.078869
	    6 R(3,9)          =      1.400050    -0.000341    -0.000330     1.399720
	    7 R(3,16)         =      1.077636     0.000455     0.000430     1.078066
	    8 R(4,11)         =      1.380356     0.000485     0.000367     1.380723
	    9 R(4,17)         =      1.077939     0.000188     0.000218     1.078157
	   10 R(5,7)          =      1.386274     0.000013     0.000138     1.386411
	   11 R(5,10)         =      1.395630     0.000127    -0.000171     1.395459
	   12 R(5,18)         =      1.074512    -0.000123     0.000009     1.074522
	   13 R(6,8)          =      1.383950     0.000000    -0.000091     1.383859
	   14 R(6,10)         =      1.395994    -0.000294    -0.000115     1.395879
	   15 R(6,19)         =      1.077613     0.000424     0.000404     1.078017
	   16 R(7,12)         =      1.333626     0.000592     0.000397     1.334023
	   17 R(7,20)         =      1.081023     0.000081     0.000135     1.081158
	   18 R(8,12)         =      1.334839     0.000517     0.000627     1.335466
	   19 R(8,21)         =      1.081049     0.000062     0.000073     1.081122
	   20 R(9,10)         =      1.468128    -0.000966    -0.001295     1.466833
	   21 R(9,11)         =      1.394310    -0.000103    -0.000156     1.394154
	   22 R(11,13)        =      1.348010    -0.000140     0.000341     1.348351
	   23 B(1,2,4)        =    119.218418    -0.000000     0.003612   119.222030
	   24 B(1,2,15)       =    120.814445    -0.000000    -0.017764   120.796682
	   25 B(1,3,9)        =    122.588451    -0.000002    -0.067993   122.520457
	   26 B(1,3,16)       =    118.578760     0.000001     0.017877   118.596637
	   27 B(2,1,3)        =    119.964164    -0.000000     0.022375   119.986539
	   28 B(2,1,14)       =    120.372444     0.000000    -0.007200   120.365243
	   29 B(2,4,11)       =    119.559115     0.000001    -0.007840   119.551275
	   30 B(2,4,17)       =    121.926329    -0.000001     0.000150   121.926479
	   31 B(3,1,14)       =    119.661696    -0.000000    -0.013834   119.647861
	   32 B(3,9,10)       =    120.530151    -0.000009    -0.030261   120.499890
	   33 B(3,9,11)       =    115.279286     0.000006     0.099983   115.379269
	   34 B(4,2,15)       =    119.966982     0.000000     0.013945   119.980927
	   35 B(4,11,9)       =    123.383142    -0.000005    -0.050309   123.332833
	   36 B(4,11,13)      =    116.367293     0.000002     0.057325   116.424618
	   37 B(5,7,12)       =    124.244628    -0.000000     0.011857   124.256486
	   38 B(5,7,20)       =    119.521921     0.000000    -0.005383   119.516537
	   39 B(5,10,6)       =    115.759617     0.000006     0.099785   115.859402
	   40 B(5,10,9)       =    123.683355     0.000002    -0.042329   123.641026
	   41 B(6,8,12)       =    123.845809     0.000000     0.013255   123.859064
	   42 B(6,8,21)       =    119.794454    -0.000000     0.011272   119.805726
	   43 B(6,10,9)       =    120.516480    -0.000008    -0.057913   120.458568
	   44 B(7,5,10)       =    119.802648    -0.000003    -0.057442   119.745206
	   45 B(7,5,18)       =    118.924096     0.000000    -0.011674   118.912422
	   46 B(7,12,8)       =    116.067080    -0.000000    -0.011495   116.055585
	   47 B(8,6,10)       =    120.259023    -0.000002    -0.056103   120.202920
	   48 B(8,6,19)       =    118.490798     0.000002     0.022398   118.513196
	   49 B(9,3,16)       =    118.791893     0.000001     0.057350   118.849243
	   50 B(9,11,13)      =    120.232234     0.000002    -0.030900   120.201335
	   51 B(10,5,18)      =    121.249751     0.000003     0.065076   121.314827
	   52 B(10,6,19)      =    121.228847     0.000001     0.038985   121.267832
	   53 B(10,9,11)      =    124.101015     0.000002    -0.084497   124.016518
	   54 B(11,4,17)      =    118.513033     0.000000     0.007402   118.520435
	   55 B(12,7,20)      =    116.232956    -0.000000    -0.006349   116.226607
	   56 B(12,8,21)      =    116.358330    -0.000000    -0.024676   116.333653
	   57 D(1,2,4,11)     =      0.273805     0.000000     0.121507     0.395312
	   58 D(1,2,4,17)     =   -179.270475     0.000001     0.162622  -179.107852
	   59 D(1,3,9,10)     =    177.619312    -0.000002    -0.180087   177.439225
	   60 D(1,3,9,11)     =      0.921819     0.000001     0.084590     1.006409
	   61 D(2,1,3,9)      =     -0.340215    -0.000001    -0.192610    -0.532825
	   62 D(2,1,3,16)     =   -177.984286    -0.000001    -0.412306  -178.396591
	   63 D(2,4,11,9)     =      0.374187    -0.000000    -0.238375     0.135812
	   64 D(2,4,11,13)    =   -178.111396     0.000001     0.582819  -177.528577
	   65 D(3,1,2,4)      =     -0.288025     0.000000     0.085293    -0.202732
	   66 D(3,1,2,15)     =    179.855205     0.000000     0.160870   180.016076
	   67 D(3,9,10,5)     =    164.550736     0.000006     0.031932   164.582668
	   68 D(3,9,10,6)     =    -17.865338     0.000004     0.020690   -17.844647
	   69 D(3,9,11,4)     =     -0.943791    -0.000001     0.132229    -0.811561
	   70 D(3,9,11,13)    =    177.485734    -0.000002    -0.717428   176.768306
	   71 D(4,2,1,14)     =   -179.812597    -0.000001    -0.172222  -179.984819
	   72 D(4,11,9,10)    =   -177.508270     0.000002     0.405047  -177.103223
	   73 D(5,7,12,8)     =     -0.082814    -0.000000    -0.004728    -0.087541
	   74 D(5,10,6,8)     =     -1.475308    -0.000001    -0.078217    -1.553526
	   75 D(5,10,6,19)    =    176.819227    -0.000001     0.148116   176.967344
	   76 D(5,10,9,11)    =    -19.056011     0.000004    -0.250091   -19.306102
	   77 D(6,8,12,7)     =      0.331349     0.000000    -0.102834     0.228515
	   78 D(6,10,5,7)     =      1.696166     0.000001    -0.020823     1.675343
	   79 D(6,10,5,18)    =    179.913512     0.000001    -0.168135   179.745377
	   80 D(6,10,9,11)    =    158.527915     0.000001    -0.261333   158.266583
	   81 D(7,5,10,9)     =    179.385156    -0.000001    -0.034917   179.350239
	   82 D(7,12,8,21)    =   -179.235063     0.000000    -0.080478  -179.315541
	   83 D(8,6,10,9)     =   -179.243121     0.000001    -0.064836  -179.307957
	   84 D(8,12,7,20)    =    179.659287     0.000000     0.476097   180.135383
	   85 D(9,3,1,14)     =    179.187752    -0.000000     0.063080   179.250832
	   86 D(9,10,5,18)    =     -2.397498    -0.000002    -0.182229    -2.579727
	   87 D(9,10,6,19)    =     -0.948586     0.000001     0.161498    -0.787088
	   88 D(9,11,4,17)    =    179.934016    -0.000000    -0.278121   179.655895
	   89 D(10,5,7,12)    =     -0.979810    -0.000000     0.067179    -0.912631
	   90 D(10,5,7,20)    =    179.286043    -0.000001    -0.428475   178.857569
	   91 D(10,6,8,12)    =      0.487978     0.000001     0.147289     0.635266
	   92 D(10,6,8,21)    =   -179.959711     0.000000     0.124052  -179.835659
	   93 D(10,9,3,16)    =     -4.741420    -0.000001     0.039242    -4.702179
	   94 D(10,9,11,13)   =      0.921254     0.000001    -0.444610     0.476645
	   95 D(11,4,2,15)    =   -179.868188    -0.000000     0.046511  -179.821676
	   96 D(11,9,3,16)    =    178.561087     0.000001     0.303918   178.865006
	   97 D(12,7,5,18)    =   -179.238610     0.000000     0.209550  -179.029060
	   98 D(12,8,6,19)    =   -177.852735     0.000000    -0.073203  -177.925938
	   99 D(13,11,4,17)   =      1.448433     0.000001     0.543073     1.991506
	  100 D(14,1,2,15)    =      0.330633    -0.000000    -0.096644     0.233989
	  101 D(14,1,3,16)    =      1.543682    -0.000000    -0.156616     1.387065
	  102 D(15,2,4,17)    =      0.587532     0.000000     0.087627     0.675159
	  103 D(18,5,7,20)    =      1.027243    -0.000001    -0.286104     0.741140
	  104 D(19,6,8,21)    =      1.699576     0.000000    -0.096440     1.603137
	  105 R(5,13)         =      2.775173    -0.000070    -0.003383     2.771790
	 ---------------------------------------------------------------------------
	Successfully symmetrized geometry.
	 Forces used to impose fixed constraints are not included.
	  Forces zeroed: 67 

  ==> Convergence Check <==

  Measures of convergence in internal coordinates in au.
  Criteria marked as inactive (o), active & met (*), and active & unmet ( ).
  ---------------------------------------------------------------------------------------------
   Step     Total Energy     Delta E     MAX Force     RMS Force      MAX Disp      RMS Disp   
  ---------------------------------------------------------------------------------------------
    Convergence Criteria    1.00e-06 *    3.00e-04 *             o    1.20e-03 *             o
  ---------------------------------------------------------------------------------------------
     11    -577.72555482    7.87e-07 *    2.29e-04 *    5.44e-05 o    1.25e-02      3.07e-03 o  ~
  ---------------------------------------------------------------------------------------------


  **** Optimization is complete! (in 11 steps) ****

  ==> Optimization Summary <==

  Measures of convergence in internal coordinates in au.
  --------------------------------------------------------------------------------------------------------------- ~
   Step         Total Energy             Delta E       MAX Force       RMS Force        MAX Disp        RMS Disp  ~
  --------------------------------------------------------------------------------------------------------------- ~
      1    -577.715322148543   -577.715322148543      0.02257165      0.00648270      0.05008013      0.00978284  ~
      2    -577.720295350743     -0.004973202200      0.01796292      0.00344578      0.07470100      0.00977860  ~
      3    -577.722833845432     -0.002538494689      0.01277174      0.00180798      0.08594213      0.00976560  ~
      4    -577.724194527270     -0.001360681839      0.00851567      0.00103489      0.08692472      0.00976123  ~
      5    -577.724985878054     -0.000791350783      0.00516172      0.00059091      0.08430768      0.00976042  ~
      6    -577.725411725430     -0.000425847376      0.00236665      0.00030457      0.06883024      0.00966123  ~
      7    -577.725565045159     -0.000153319729      0.00060435      0.00013935      0.01166215      0.00175051  ~
      8    -577.725562925071      0.000002120088      0.00038499      0.00007297      0.00205165      0.00068053  ~
      9    -577.725558600864      0.000004324206      0.00031444      0.00005513      0.00215314      0.00066095  ~
     10    -577.725555608454      0.000002992411      0.00029174      0.00005411      0.00343221      0.00085567  ~
     11    -577.725554821179      0.000000787275      0.00036793      0.00006515      0.01252148      0.00307352  ~
  --------------------------------------------------------------------------------------------------------------- ~

	Writing optimization data to binary file.
	Final energy is   -577.7255548211785
	Final (previous) structure:
	Cartesian Geometry (in Angstrom)
	    C    -1.3785227768   0.8603283532  -2.6558788657
	    C    -2.4900785640   1.3897375625  -2.0160993820
	    C    -0.3454311414   0.3191571181  -1.9117000839
	    C    -2.5507350822   1.3623882537  -0.6336632091
	    C     0.9543394768  -0.1592755153   1.5964086916
	    C     1.6059827993  -1.2328801844  -0.4067779220
	    C     2.0091657708  -0.8068855794   2.2206658239
	    C     2.6287893289  -1.8376623624   0.3027450566
	    C    -0.3621890758   0.2839590414  -0.5121930407
	    C     0.7348340282  -0.3480261409   0.2311345975
	    C    -1.5053191732   0.8158723674   0.0831413817
	    N     2.8495563060  -1.6388406728   1.6041011145
	    F    -1.6488317167   0.7868081097   1.4231754311
	    H    -1.3105020531   0.8746174156  -3.7320682963
	    H    -3.3023414110   1.8171674128  -2.5826959674
	    H     0.5217376937  -0.0559566053  -2.4299735192
	    H    -3.3982129917   1.7507595849  -0.0924596895
	    H     0.3366526203   0.5037259295   2.1738764315
	    H     1.4852100965  -1.4824973163  -1.4481012517
	    H     2.1820345255  -0.6483567064   3.2759358260
	    H     3.2994714666  -2.5211698126  -0.1989230092
	Saving final (previous) structure.
			--------------------------
			 OPTKING Finished Execution 
			--------------------------

    Final optimized geometry and variables:
    Molecular point group: c1
    Full point group: C1

    Geometry (in Angstrom), charge = 0, multiplicity = 1:

    C           -1.378522776847     0.860328353180    -2.655878865669
    C           -2.490078563978     1.389737562480    -2.016099381994
    C           -0.345431141410     0.319157118123    -1.911700083853
    C           -2.550735082203     1.362388253681    -0.633663209143
    C            0.954339476840    -0.159275515309     1.596408691586
    C            1.605982799319    -1.232880184370    -0.406777921989
    C            2.009165770759    -0.806885579413     2.220665823910
    C            2.628789328927    -1.837662362374     0.302745056628
    C           -0.362189075825     0.283959041447    -0.512193040714
    C            0.734834028235    -0.348026140942     0.231134597496
    C           -1.505319173183     0.815872367407     0.083141381703
    N            2.849556305974    -1.638840672796     1.604101114477
    F           -1.648831716712     0.786808109694     1.423175431106
    H           -1.310502053091     0.874617415583    -3.732068296296
    H           -3.302341410952     1.817167412806    -2.582695967368
    H            0.521737693651    -0.055956605296    -2.429973519172
    H           -3.398212991665     1.750759584928    -0.092459689542
    H            0.336652620349     0.503725929546     2.173876431543
    H            1.485210096476    -1.482497316262    -1.448101251675
    H            2.182034525481    -0.648356706406     3.275935825968
    H            3.299471466550    -2.521169812623    -0.198923009186

	Cleaning optimization helper files.

*** Psi4 exiting successfully. Buy a developer a beer!
