
    -----------------------------------------------------------------------
          Psi4: An Open-Source Ab Initio Electronic Structure Package
                               Psi4 1.1 release

                         Git: Rev {HEAD} add49b9 


    R. M. Parrish, L. A. Burns, D. G. A. Smith, A. C. Simmonett,
    A. E. DePrince III, E. G. Hohenstein, U. Bozkaya, A. Yu. Sokolov,
    R. Di Remigio, R. M. Richard, J. F. Gonthier, A. M. James,
    H. R. McAlexander, A. Kumar, M. Saitow, X. Wang, B. P. Pritchard,
    P. Verma, H. F. Schaefer III, K. Patkowski, R. A. King, E. F. Valeev,
    F. A. Evangelista, J. M. Turney, T. D. Crawford, and C. D. Sherrill,
    J. Chem. Theory Comput. in press (2017).
    (doi: 10.1021/acs.jctc.7b00174)

    -----------------------------------------------------------------------


    Psi4 started on: Monday, 13 November 2017 07:09PM

    Process ID:  19423
    PSIDATADIR: /cbio/jclab/home/chayas/anaconda/envs/py35/share/psi4
    Memory:     500.0 MiB
    Threads:    8
    
  ==> Input File <==

--------------------------------------------------------------------------

memory 8 Gb

molecule phepyrFOH_anion {
  symmetry C1
  -1 1 
  C      1.885   -1.036   -0.112
  C      0.807   -0.463   0.561
  C      5.339   -1.984   0.333
  C      3.814   -3.038   -1.200
  C      1.800   -1.079   2.676
  C      6.373   -2.577   -0.374
  C      4.917   -3.583   -1.838
  C      2.921   -1.631   0.608
  C      4.038   -2.224   -0.095
  C      0.764   -0.484   1.955
  C      2.878   -1.652   2.002
  N      6.195   -3.373   -1.452
  O      -0.227   0.043   2.574
  F      3.866   -2.220   2.709
  H      1.904   -1.013   -1.200
  H      0.011   -0.007   -0.025
  H      5.553   -1.356   1.191
  H      2.813   -3.247   -1.563
  H      1.791   -1.109   3.764
  H      7.406   -2.422   -0.079
  H      4.796   -4.223   -2.705
  units Angstrom
}

dih_string = "1 8 9 3 135"
set optking { fixed_dihedral = $dih_string
              dynamic_level = 1
              geom_maxiter = 250
              print_trajectory_xyz_file = True }

optimize('MP2/aug-cc-PVTZ')
--------------------------------------------------------------------------

  Memory set to   7.451 GiB by Python driver.
gradient() will perform analytic gradient computation.

*** tstart() called on gpu-1-6.local
*** at Mon Nov 13 19:09:40 2017

    SCF Algorithm Type (re)set to DF.

*** tstart() called on gpu-1-6.local
*** at Mon Nov 13 19:09:40 2017

   => Loading Basis Set <=

    Name: AUG-CC-PVTZ
    Role: ORBITAL
    Keyword: BASIS
    atoms 1-11  entry C          line   221 file /cbio/jclab/home/chayas/anaconda/envs/py35/share/psi4/basis/aug-cc-pvtz.gbs 
    atoms 12    entry N          line   267 file /cbio/jclab/home/chayas/anaconda/envs/py35/share/psi4/basis/aug-cc-pvtz.gbs 
    atoms 13    entry O          line   313 file /cbio/jclab/home/chayas/anaconda/envs/py35/share/psi4/basis/aug-cc-pvtz.gbs 
    atoms 14    entry F          line   359 file /cbio/jclab/home/chayas/anaconda/envs/py35/share/psi4/basis/aug-cc-pvtz.gbs 
    atoms 15-21 entry H          line    34 file /cbio/jclab/home/chayas/anaconda/envs/py35/share/psi4/basis/aug-cc-pvtz.gbs 


         ---------------------------------------------------------
                                   SCF
            by Justin Turney, Rob Parrish, and Andy Simmonett
                              RHF Reference
                        8 Threads,   7629 MiB Core
         ---------------------------------------------------------

  ==> Geometry <==

    Molecular point group: c1
    Full point group: C1

    Geometry (in Angstrom), charge = -1, multiplicity = 1:

       Center              X                  Y                   Z               Mass       
    ------------   -----------------  -----------------  -----------------  -----------------
           C         -1.345301513089     0.767842662510    -0.781367252670    12.000000000000
           C         -2.423301513089     1.340842662510    -0.108367252670    12.000000000000
           C          2.108698486911    -0.180157337490    -0.336367252670    12.000000000000
           C          0.583698486911    -1.234157337490    -1.869367252670    12.000000000000
           C         -1.430301513089     0.724842662510     2.006632747330    12.000000000000
           C          3.142698486911    -0.773157337490    -1.043367252670    12.000000000000
           C          1.686698486911    -1.779157337490    -2.507367252670    12.000000000000
           C         -0.309301513089     0.172842662510    -0.061367252670    12.000000000000
           C          0.807698486911    -0.420157337490    -0.764367252670    12.000000000000
           C         -2.466301513089     1.319842662510     1.285632747330    12.000000000000
           C         -0.352301513089     0.151842662510     1.332632747330    12.000000000000
           N          2.964698486911    -1.569157337490    -2.121367252670    14.003074004780
           O         -3.457301513089     1.846842662510     1.904632747330    15.994914619560
           F          0.635698486911    -0.416157337490     2.039632747330    18.998403224000
           H         -1.326301513089     0.790842662510    -1.869367252670     1.007825032070
           H         -3.219301513089     1.796842662510    -0.694367252670     1.007825032070
           H          2.322698486911     0.447842662510     0.521632747330     1.007825032070
           H         -0.417301513089    -1.443157337490    -2.232367252670     1.007825032070
           H         -1.439301513089     0.694842662510     3.094632747330     1.007825032070
           H          4.175698486911    -0.618157337490    -0.748367252670     1.007825032070
           H          1.565698486911    -2.419157337490    -3.374367252670     1.007825032070

  Running in c1 symmetry.

  Rotational constants: A =      0.06334  B =      0.01367  C =      0.01176 [cm^-1]
  Rotational constants: A =   1898.99477  B =    409.69871  C =    352.45335 [MHz]
  Nuclear repulsion =  802.855408366157235

  Charge       = -1
  Multiplicity = 1
  Electrons    = 98
  Nalpha       = 49
  Nbeta        = 49

  ==> Algorithm <==

  SCF Algorithm Type is DF.
  DIIS enabled.
  MOM disabled.
  Fractional occupation disabled.
  Guess Type is SAD.
  Energy threshold   = 1.00e-10
  Density threshold  = 1.00e-10
  Integral threshold = 0.00e+00

  ==> Primary Basis <==

  Basis Set: AUG-CC-PVTZ
    Blend: AUG-CC-PVTZ
    Number of shells: 259
    Number of basis function: 805
    Number of Cartesian functions: 945
    Spherical Harmonics?: true
    Max angular momentum: 3

   => Loading Basis Set <=

    Name: (AUG-CC-PVTZ AUX)
    Role: JKFIT
    Keyword: DF_BASIS_SCF
    atoms 1-11  entry C          line   161 file /cbio/jclab/home/chayas/anaconda/envs/py35/share/psi4/basis/aug-cc-pvtz-jkfit.gbs 
    atoms 12    entry N          line   223 file /cbio/jclab/home/chayas/anaconda/envs/py35/share/psi4/basis/aug-cc-pvtz-jkfit.gbs 
    atoms 13    entry O          line   285 file /cbio/jclab/home/chayas/anaconda/envs/py35/share/psi4/basis/aug-cc-pvtz-jkfit.gbs 
    atoms 14    entry F          line   347 file /cbio/jclab/home/chayas/anaconda/envs/py35/share/psi4/basis/aug-cc-pvtz-jkfit.gbs 
    atoms 15-21 entry H          line    69 file /cbio/jclab/home/chayas/anaconda/envs/py35/share/psi4/basis/aug-cc-pvtz-jkfit.gbs 

  ==> Pre-Iterations <==

   -------------------------------------------------------
    Irrep   Nso     Nmo     Nalpha   Nbeta   Ndocc  Nsocc
   -------------------------------------------------------
     A        805     805       0       0       0       0
   -------------------------------------------------------
    Total     805     805      49      49      49       0
   -------------------------------------------------------

  ==> Integral Setup <==

  ==> DFJK: Density-Fitted J/K Matrices <==

    J tasked:                  Yes
    K tasked:                  Yes
    wK tasked:                  No
    OpenMP threads:              8
    Integrals threads:           8
    Memory (MB):              5722
    Algorithm:                Core
    Integral Cache:           NONE
    Schwarz Cutoff:          1E-12
    Fitting Condition:       1E-12

   => Auxiliary Basis Set <=

  Basis Set: (AUG-CC-PVTZ AUX)
    Blend: AUG-CC-PVTZ-JKFIT
    Number of shells: 518
    Number of basis function: 1778
    Number of Cartesian functions: 2219
    Spherical Harmonics?: true
    Max angular momentum: 4

  Minimum eigenvalue in the overlap matrix is 8.0001127918E-07.
  Using Symmetric Orthogonalization.

  SCF Guess: Superposition of Atomic Densities via on-the-fly atomic UHF.

  ==> Iterations <==

                           Total Energy        Delta E     RMS |[F,P]|

   @DF-RHF iter   0:  -661.79625498031078   -6.61796e+02   1.96859e-02 
   @DF-RHF iter   1:  -649.09355649282998    1.27027e+01   2.33421e-03 
   @DF-RHF iter   2:  -649.42675941048026   -3.33203e-01   1.61428e-03 DIIS
   @DF-RHF iter   3:  -649.58220206807437   -1.55443e-01   4.49122e-04 DIIS
   @DF-RHF iter   4:  -649.60597438395837   -2.37723e-02   1.65342e-04 DIIS
   @DF-RHF iter   5:  -649.60981391922314   -3.83954e-03   5.80942e-05 DIIS
   @DF-RHF iter   6:  -649.61038164524666   -5.67726e-04   2.71322e-05 DIIS
   @DF-RHF iter   7:  -649.61048629438540   -1.04649e-04   8.78794e-06 DIIS
   @DF-RHF iter   8:  -649.61049905032189   -1.27559e-05   3.32402e-06 DIIS
   @DF-RHF iter   9:  -649.61050188286879   -2.83255e-06   1.71506e-06 DIIS
   @DF-RHF iter  10:  -649.61050269515727   -8.12288e-07   8.04281e-07 DIIS
   @DF-RHF iter  11:  -649.61050290025298   -2.05096e-07   2.38163e-07 DIIS
   @DF-RHF iter  12:  -649.61050291730578   -1.70528e-08   9.78943e-08 DIIS
   @DF-RHF iter  13:  -649.61050291922709   -1.92131e-09   4.06997e-08 DIIS
   @DF-RHF iter  14:  -649.61050291964557   -4.18481e-10   1.51805e-08 DIIS
   @DF-RHF iter  15:  -649.61050291970207   -5.65024e-11   8.32929e-09 DIIS
   @DF-RHF iter  16:  -649.61050291969639    5.68434e-12   4.02919e-09 DIIS
   @DF-RHF iter  17:  -649.61050291974800   -5.16138e-11   1.85620e-09 DIIS
   @DF-RHF iter  18:  -649.61050291972379    2.42153e-11   7.70285e-10 DIIS
   @DF-RHF iter  19:  -649.61050291971617    7.61702e-12   3.53053e-10 DIIS
   @DF-RHF iter  20:  -649.61050291973675   -2.05773e-11   1.67997e-10 DIIS
   @DF-RHF iter  21:  -649.61050291971685    1.98952e-11   6.16332e-11 DIIS

  ==> Post-Iterations <==

    Orbital Energies (a.u.)
    -----------------------

    Doubly Occupied:                                                      

       1A    -26.188638     2A    -20.302387     3A    -15.454903  
       4A    -11.191981     5A    -11.169758     6A    -11.168389  
       7A    -11.147438     8A    -11.124132     9A    -11.124039  
      10A    -11.121615    11A    -11.109847    12A    -11.084066  
      13A    -11.065634    14A    -11.064848    15A     -1.508813  
      16A     -1.142071    17A     -1.134130    18A     -1.025417  
      19A     -0.964941    20A     -0.925901    21A     -0.874465  
      22A     -0.848692    23A     -0.750715    24A     -0.739077  
      25A     -0.703125    26A     -0.676753    27A     -0.607901  
      28A     -0.584618    29A     -0.577570    30A     -0.564745  
      31A     -0.548342    32A     -0.536647    33A     -0.501233  
      34A     -0.490520    35A     -0.471630    36A     -0.463213  
      37A     -0.433597    38A     -0.415124    39A     -0.413089  
      40A     -0.384403    41A     -0.377258    42A     -0.357595  
      43A     -0.311241    44A     -0.307974    45A     -0.252301  
      46A     -0.243447    47A     -0.221402    48A     -0.201223  
      49A     -0.116092  

    Virtual:                                                              

      50A      0.098333    51A      0.100607    52A      0.115099  
      53A      0.120370    54A      0.123877    55A      0.128181  
      56A      0.132105    57A      0.154677    58A      0.166631  
      59A      0.173389    60A      0.179211    61A      0.183615  
      62A      0.186624    63A      0.187238    64A      0.189642  
      65A      0.196918    66A      0.198731    67A      0.204708  
      68A      0.206673    69A      0.212893    70A      0.213672  
      71A      0.218188    72A      0.221430    73A      0.226332  
      74A      0.229161    75A      0.231413    76A      0.235021  
      77A      0.237966    78A      0.241253    79A      0.247208  
      80A      0.254094    81A      0.256384    82A      0.260046  
      83A      0.263815    84A      0.266920    85A      0.275913  
      86A      0.276376    87A      0.288156    88A      0.293296  
      89A      0.298302    90A      0.312150    91A      0.313919  
      92A      0.320213    93A      0.321316    94A      0.322765  
      95A      0.327189    96A      0.329737    97A      0.332567  
      98A      0.333588    99A      0.336175   100A      0.345687  
     101A      0.349498   102A      0.352170   103A      0.362352  
     104A      0.364701   105A      0.366599   106A      0.373340  
     107A      0.381365   108A      0.383722   109A      0.385925  
     110A      0.391276   111A      0.399684   112A      0.403905  
     113A      0.408797   114A      0.410020   115A      0.414998  
     116A      0.419547   117A      0.420812   118A      0.423496  
     119A      0.430932   120A      0.437828   121A      0.440067  
     122A      0.446225   123A      0.452907   124A      0.458597  
     125A      0.460882   126A      0.467846   127A      0.472385  
     128A      0.474437   129A      0.481942   130A      0.486757  
     131A      0.492381   132A      0.501232   133A      0.507063  
     134A      0.510808   135A      0.514866   136A      0.518493  
     137A      0.532831   138A      0.535643   139A      0.539710  
     140A      0.542909   141A      0.548994   142A      0.558219  
     143A      0.558866   144A      0.562900   145A      0.564182  
     146A      0.564890   147A      0.573732   148A      0.575128  
     149A      0.578501   150A      0.584300   151A      0.586405  
     152A      0.587627   153A      0.596477   154A      0.597611  
     155A      0.600157   156A      0.602310   157A      0.603644  
     158A      0.607455   159A      0.610800   160A      0.620344  
     161A      0.622860   162A      0.626426   163A      0.631278  
     164A      0.632931   165A      0.634344   166A      0.638743  
     167A      0.644493   168A      0.646121   169A      0.654599  
     170A      0.656557   171A      0.659107   172A      0.666886  
     173A      0.677605   174A      0.682730   175A      0.686809  
     176A      0.695483   177A      0.698987   178A      0.702841  
     179A      0.707077   180A      0.709827   181A      0.713853  
     182A      0.716605   183A      0.730494   184A      0.731525  
     185A      0.734561   186A      0.750164   187A      0.753928  
     188A      0.759685   189A      0.770194   190A      0.773959  
     191A      0.784433   192A      0.791601   193A      0.796996  
     194A      0.802206   195A      0.805293   196A      0.812183  
     197A      0.814567   198A      0.819752   199A      0.825028  
     200A      0.831696   201A      0.840747   202A      0.848347  
     203A      0.854315   204A      0.857929   205A      0.860037  
     206A      0.863339   207A      0.867625   208A      0.872686  
     209A      0.877364   210A      0.881639   211A      0.882340  
     212A      0.888730   213A      0.902588   214A      0.911774  
     215A      0.917437   216A      0.923163   217A      0.933218  
     218A      0.945376   219A      0.949083   220A      0.955066  
     221A      0.965607   222A      0.976174   223A      0.978599  
     224A      0.981366   225A      0.983060   226A      0.985592  
     227A      0.994574   228A      0.999988   229A      1.003636  
     230A      1.007695   231A      1.012956   232A      1.016318  
     233A      1.017546   234A      1.027712   235A      1.034189  
     236A      1.038897   237A      1.041857   238A      1.044454  
     239A      1.052223   240A      1.055428   241A      1.060865  
     242A      1.063598   243A      1.071168   244A      1.077493  
     245A      1.080836   246A      1.084369   247A      1.089828  
     248A      1.093645   249A      1.096690   250A      1.101798  
     251A      1.108512   252A      1.112297   253A      1.117294  
     254A      1.124672   255A      1.129574   256A      1.133690  
     257A      1.137762   258A      1.143721   259A      1.144764  
     260A      1.149266   261A      1.153008   262A      1.159814  
     263A      1.167639   264A      1.169518   265A      1.175848  
     266A      1.177459   267A      1.178852   268A      1.184398  
     269A      1.189225   270A      1.192337   271A      1.196700  
     272A      1.200525   273A      1.203686   274A      1.217225  
     275A      1.221307   276A      1.225351   277A      1.228220  
     278A      1.230686   279A      1.238648   280A      1.250287  
     281A      1.255349   282A      1.256851   283A      1.264096  
     284A      1.267001   285A      1.275423   286A      1.281280  
     287A      1.284872   288A      1.292203   289A      1.293990  
     290A      1.297289   291A      1.305607   292A      1.311416  
     293A      1.313919   294A      1.318275   295A      1.321839  
     296A      1.326438   297A      1.332972   298A      1.333567  
     299A      1.339008   300A      1.350837   301A      1.352938  
     302A      1.365775   303A      1.369557   304A      1.374481  
     305A      1.383337   306A      1.386151   307A      1.392673  
     308A      1.395569   309A      1.403815   310A      1.408741  
     311A      1.417195   312A      1.423855   313A      1.430820  
     314A      1.436106   315A      1.440905   316A      1.456941  
     317A      1.462658   318A      1.467863   319A      1.473835  
     320A      1.486726   321A      1.491802   322A      1.493591  
     323A      1.504765   324A      1.507614   325A      1.509938  
     326A      1.521781   327A      1.525788   328A      1.533603  
     329A      1.548109   330A      1.558752   331A      1.567038  
     332A      1.573115   333A      1.581113   334A      1.592319  
     335A      1.599224   336A      1.600761   337A      1.607718  
     338A      1.614519   339A      1.627854   340A      1.629984  
     341A      1.641270   342A      1.652919   343A      1.657720  
     344A      1.668840   345A      1.685352   346A      1.689131  
     347A      1.692652   348A      1.703430   349A      1.710656  
     350A      1.723049   351A      1.730059   352A      1.738093  
     353A      1.745644   354A      1.750204   355A      1.758802  
     356A      1.763142   357A      1.772394   358A      1.774831  
     359A      1.786053   360A      1.801808   361A      1.814273  
     362A      1.818597   363A      1.822179   364A      1.824381  
     365A      1.833038   366A      1.841010   367A      1.847198  
     368A      1.848834   369A      1.854321   370A      1.856425  
     371A      1.862672   372A      1.889771   373A      1.901878  
     374A      1.905726   375A      1.908812   376A      1.913709  
     377A      1.927410   378A      1.933248   379A      1.936845  
     380A      1.943371   381A      1.948163   382A      1.960710  
     383A      1.979825   384A      1.987495   385A      2.007148  
     386A      2.007310   387A      2.012029   388A      2.015701  
     389A      2.026886   390A      2.027689   391A      2.043218  
     392A      2.047307   393A      2.056482   394A      2.066896  
     395A      2.078425   396A      2.079484   397A      2.086012  
     398A      2.088453   399A      2.097095   400A      2.106020  
     401A      2.116529   402A      2.124247   403A      2.128179  
     404A      2.132265   405A      2.144805   406A      2.148061  
     407A      2.155351   408A      2.165502   409A      2.173212  
     410A      2.175304   411A      2.177284   412A      2.189218  
     413A      2.202604   414A      2.205377   415A      2.214499  
     416A      2.227641   417A      2.235845   418A      2.245809  
     419A      2.256977   420A      2.260464   421A      2.266398  
     422A      2.274303   423A      2.285449   424A      2.287569  
     425A      2.304477   426A      2.320338   427A      2.323942  
     428A      2.326776   429A      2.333780   430A      2.342076  
     431A      2.352110   432A      2.363338   433A      2.375638  
     434A      2.390810   435A      2.396378   436A      2.403966  
     437A      2.412594   438A      2.417948   439A      2.430034  
     440A      2.433192   441A      2.449339   442A      2.459975  
     443A      2.468686   444A      2.474448   445A      2.489302  
     446A      2.496424   447A      2.505688   448A      2.519055  
     449A      2.522635   450A      2.537463   451A      2.546153  
     452A      2.564973   453A      2.576809   454A      2.585775  
     455A      2.593927   456A      2.608854   457A      2.620145  
     458A      2.634993   459A      2.638547   460A      2.651431  
     461A      2.668263   462A      2.670588   463A      2.679418  
     464A      2.685032   465A      2.697059   466A      2.707084  
     467A      2.718669   468A      2.737722   469A      2.747856  
     470A      2.756704   471A      2.770802   472A      2.806849  
     473A      2.817613   474A      2.843401   475A      2.850068  
     476A      2.869773   477A      2.875886   478A      2.880034  
     479A      2.890886   480A      2.902411   481A      2.916193  
     482A      2.930100   483A      2.949011   484A      2.963223  
     485A      2.992531   486A      3.004332   487A      3.020342  
     488A      3.032672   489A      3.069357   490A      3.090556  
     491A      3.098287   492A      3.111496   493A      3.143460  
     494A      3.158955   495A      3.179432   496A      3.191979  
     497A      3.217429   498A      3.226947   499A      3.233761  
     500A      3.255884   501A      3.275861   502A      3.293044  
     503A      3.294715   504A      3.311982   505A      3.322089  
     506A      3.329183   507A      3.347410   508A      3.352044  
     509A      3.369943   510A      3.378443   511A      3.402745  
     512A      3.425592   513A      3.431907   514A      3.439568  
     515A      3.456162   516A      3.469074   517A      3.476983  
     518A      3.485339   519A      3.500390   520A      3.503476  
     521A      3.512918   522A      3.519558   523A      3.526486  
     524A      3.542213   525A      3.550566   526A      3.566501  
     527A      3.572187   528A      3.581373   529A      3.597413  
     530A      3.599560   531A      3.607108   532A      3.613492  
     533A      3.626476   534A      3.636891   535A      3.639395  
     536A      3.650729   537A      3.660747   538A      3.675071  
     539A      3.679045   540A      3.685975   541A      3.692301  
     542A      3.704968   543A      3.708093   544A      3.714484  
     545A      3.722128   546A      3.733514   547A      3.742272  
     548A      3.751017   549A      3.764253   550A      3.777601  
     551A      3.779989   552A      3.785079   553A      3.794219  
     554A      3.800358   555A      3.817267   556A      3.823047  
     557A      3.832113   558A      3.843975   559A      3.846743  
     560A      3.864536   561A      3.871755   562A      3.883722  
     563A      3.895759   564A      3.901137   565A      3.910330  
     566A      3.918494   567A      3.925071   568A      3.929474  
     569A      3.941526   570A      3.949814   571A      3.956468  
     572A      3.969944   573A      3.973622   574A      3.990163  
     575A      4.000242   576A      4.009662   577A      4.017259  
     578A      4.028518   579A      4.034468   580A      4.038802  
     581A      4.049330   582A      4.057945   583A      4.067627  
     584A      4.072367   585A      4.076493   586A      4.092207  
     587A      4.096584   588A      4.111488   589A      4.118628  
     590A      4.120540   591A      4.134732   592A      4.137390  
     593A      4.151127   594A      4.162383   595A      4.166968  
     596A      4.173840   597A      4.180054   598A      4.189352  
     599A      4.196353   600A      4.215453   601A      4.229211  
     602A      4.231418   603A      4.233194   604A      4.242223  
     605A      4.248776   606A      4.268212   607A      4.277229  
     608A      4.286867   609A      4.302469   610A      4.316880  
     611A      4.318132   612A      4.327167   613A      4.338329  
     614A      4.357441   615A      4.362165   616A      4.366525  
     617A      4.380970   618A      4.402995   619A      4.410638  
     620A      4.415079   621A      4.427892   622A      4.437203  
     623A      4.441401   624A      4.445575   625A      4.462853  
     626A      4.471657   627A      4.482518   628A      4.488516  
     629A      4.492230   630A      4.499721   631A      4.515456  
     632A      4.516428   633A      4.518446   634A      4.523101  
     635A      4.536541   636A      4.547574   637A      4.555195  
     638A      4.560339   639A      4.572677   640A      4.591095  
     641A      4.599299   642A      4.613615   643A      4.630973  
     644A      4.645150   645A      4.651366   646A      4.670919  
     647A      4.674416   648A      4.696190   649A      4.712670  
     650A      4.717562   651A      4.726203   652A      4.745085  
     653A      4.754472   654A      4.765929   655A      4.778599  
     656A      4.792496   657A      4.799720   658A      4.811398  
     659A      4.837542   660A      4.842654   661A      4.861027  
     662A      4.890141   663A      4.898271   664A      4.906874  
     665A      4.929247   666A      4.935238   667A      4.941946  
     668A      4.972507   669A      4.986728   670A      4.997701  
     671A      5.003441   672A      5.031105   673A      5.041183  
     674A      5.058557   675A      5.077016   676A      5.088203  
     677A      5.100825   678A      5.103102   679A      5.116498  
     680A      5.129090   681A      5.136761   682A      5.157062  
     683A      5.165873   684A      5.176363   685A      5.187667  
     686A      5.202216   687A      5.211388   688A      5.233434  
     689A      5.243721   690A      5.252265   691A      5.269651  
     692A      5.272743   693A      5.277750   694A      5.300220  
     695A      5.304695   696A      5.309759   697A      5.315342  
     698A      5.330692   699A      5.353321   700A      5.360901  
     701A      5.374503   702A      5.379712   703A      5.412608  
     704A      5.432294   705A      5.450178   706A      5.469140  
     707A      5.478067   708A      5.482880   709A      5.511775  
     710A      5.521305   711A      5.528168   712A      5.558412  
     713A      5.561251   714A      5.585491   715A      5.591685  
     716A      5.638293   717A      5.652043   718A      5.665963  
     719A      5.683696   720A      5.710244   721A      5.735723  
     722A      5.767978   723A      5.777950   724A      5.812142  
     725A      5.848139   726A      5.863379   727A      5.877383  
     728A      5.906413   729A      5.914600   730A      5.927362  
     731A      5.959449   732A      5.982044   733A      5.997832  
     734A      6.017120   735A      6.042466   736A      6.096801  
     737A      6.130347   738A      6.178947   739A      6.191010  
     740A      6.253341   741A      6.305861   742A      6.316203  
     743A      6.353608   744A      6.388543   745A      6.421997  
     746A      6.441343   747A      6.484833   748A      6.525009  
     749A      6.556658   750A      6.614749   751A      6.621701  
     752A      6.657439   753A      6.708771   754A      6.797577  
     755A      6.811448   756A      6.831942   757A      6.838220  
     758A      6.895096   759A      6.897165   760A      6.975855  
     761A      6.984007   762A      7.007281   763A      7.042433  
     764A      7.100351   765A      7.169229   766A      7.186779  
     767A      7.191797   768A      7.297389   769A      7.331231  
     770A      7.353832   771A      7.531883   772A      7.593457  
     773A      7.608449   774A      7.642171   775A      7.916279  
     776A      7.937135   777A      8.019098   778A      8.141188  
     779A      8.212943   780A      9.181952   781A      9.200930  
     782A      9.403944   783A      9.425525   784A      9.549509  
     785A      9.659136   786A      9.690636   787A      9.744753  
     788A      9.777152   789A      9.855014   790A     10.170804  
     791A     10.224663   792A     15.651425   793A     16.041060  
     794A     16.385758   795A     16.696878   796A     16.841685  
     797A     16.951846   798A     18.563502   799A     18.824258  
     800A     19.382281   801A     19.965005   802A     20.330395  
     803A     20.396448   804A     20.560272   805A     21.909562  

    Final Occupation by Irrep:
              A 
    DOCC [    49 ]

  Energy converged.

  @DF-RHF Final Energy:  -649.61050291971685

   => Energetics <=

    Nuclear Repulsion Energy =            802.8554083661572349
    One-Electron Energy =               -2494.9459397231680668
    Two-Electron Energy =                1042.4800284372938677
    DFT Exchange-Correlation Energy =       0.0000000000000000
    Empirical Dispersion Energy =           0.0000000000000000
    PCM Polarization Energy =               0.0000000000000000
    EFP Energy =                            0.0000000000000000
    Total Energy =                       -649.6105029197169642



Properties will be evaluated at   0.000000,   0.000000,   0.000000 Bohr

Properties computed using the SCF density matrix

  Nuclear Dipole Moment: (a.u.)
     X:     0.9331      Y:    -0.2972      Z:    -6.8798

  Electronic Dipole Moment: (a.u.)
     X:     1.6955      Y:    -1.0831      Z:     5.1432

  Dipole Moment: (a.u.)
     X:     2.6286      Y:    -1.3803      Z:    -1.7366     Total:     3.4396

  Dipole Moment: (Debye)
     X:     6.6812      Y:    -3.5084      Z:    -4.4140     Total:     8.7425


*** tstop() called on gpu-1-6.local at Mon Nov 13 19:19:53 2017
Module time:
	user time   =    1335.78 seconds =      22.26 minutes
	system time =       8.06 seconds =       0.13 minutes
	total time  =        613 seconds =      10.22 minutes
Total time:
	user time   =    1335.79 seconds =      22.26 minutes
	system time =       8.06 seconds =       0.13 minutes
	total time  =        613 seconds =      10.22 minutes

  //>>>>>>>>>>>>>>>>>>>>>>>>>>>>>>>>>>>//
  //               DFMP2               //
  //<<<<<<<<<<<<<<<<<<<<<<<<<<<<<<<<<<<//

   => Loading Basis Set <=

    Name: (AUG-CC-PVTZ AUX)
    Role: RIFIT
    Keyword: DF_BASIS_MP2
    atoms 1-11  entry C          line   147 file /cbio/jclab/home/chayas/anaconda/envs/py35/share/psi4/basis/aug-cc-pvtz-ri.gbs 
    atoms 12    entry N          line   205 file /cbio/jclab/home/chayas/anaconda/envs/py35/share/psi4/basis/aug-cc-pvtz-ri.gbs 
    atoms 13    entry O          line   263 file /cbio/jclab/home/chayas/anaconda/envs/py35/share/psi4/basis/aug-cc-pvtz-ri.gbs 
    atoms 14    entry F          line   321 file /cbio/jclab/home/chayas/anaconda/envs/py35/share/psi4/basis/aug-cc-pvtz-ri.gbs 
    atoms 15-21 entry H          line    29 file /cbio/jclab/home/chayas/anaconda/envs/py35/share/psi4/basis/aug-cc-pvtz-ri.gbs 

	 --------------------------------------------------------
	                          DF-MP2                         
	      2nd-Order Density-Fitted Moller-Plesset Theory     
	              RMP2 Wavefunction,   8 Threads             
	                                                         
	        Rob Parrish, Justin Turney, Andy Simmonett,      
	           Ed Hohenstein, and C. David Sherrill          
	 --------------------------------------------------------

   => Auxiliary Basis Set <=

  Basis Set: (AUG-CC-PVTZ AUX)
    Blend: AUG-CC-PVTZ-RI
    Number of shells: 490
    Number of basis function: 1806
    Number of Cartesian functions: 2289
    Spherical Harmonics?: true
    Max angular momentum: 4

	 --------------------------------------------------------
	                 NBF =   805, NAUX =  1806
	 --------------------------------------------------------
	   CLASS    FOCC     OCC    AOCC    AVIR     VIR    FVIR
	   PAIRS       0      49      49     756     756       0
	 --------------------------------------------------------


         ------------------------------------------------------------
                                     CPHF                           
                                  Rob Parrish                       
         ------------------------------------------------------------

  ==> Geometry <==

    Molecular point group: c1
    Full point group: C1

    Geometry (in Angstrom), charge = -1, multiplicity = 1:

       Center              X                  Y                   Z               Mass       
    ------------   -----------------  -----------------  -----------------  -----------------
           C         -1.345301513089     0.767842662510    -0.781367252670    12.000000000000
           C         -2.423301513089     1.340842662510    -0.108367252670    12.000000000000
           C          2.108698486911    -0.180157337490    -0.336367252670    12.000000000000
           C          0.583698486911    -1.234157337490    -1.869367252670    12.000000000000
           C         -1.430301513089     0.724842662510     2.006632747330    12.000000000000
           C          3.142698486911    -0.773157337490    -1.043367252670    12.000000000000
           C          1.686698486911    -1.779157337490    -2.507367252670    12.000000000000
           C         -0.309301513089     0.172842662510    -0.061367252670    12.000000000000
           C          0.807698486911    -0.420157337490    -0.764367252670    12.000000000000
           C         -2.466301513089     1.319842662510     1.285632747330    12.000000000000
           C         -0.352301513089     0.151842662510     1.332632747330    12.000000000000
           N          2.964698486911    -1.569157337490    -2.121367252670    14.003074004780
           O         -3.457301513089     1.846842662510     1.904632747330    15.994914619560
           F          0.635698486911    -0.416157337490     2.039632747330    18.998403224000
           H         -1.326301513089     0.790842662510    -1.869367252670     1.007825032070
           H         -3.219301513089     1.796842662510    -0.694367252670     1.007825032070
           H          2.322698486911     0.447842662510     0.521632747330     1.007825032070
           H         -0.417301513089    -1.443157337490    -2.232367252670     1.007825032070
           H         -1.439301513089     0.694842662510     3.094632747330     1.007825032070
           H          4.175698486911    -0.618157337490    -0.748367252670     1.007825032070
           H          1.565698486911    -2.419157337490    -3.374367252670     1.007825032070

  Nuclear repulsion =  802.855408366157235
  Reference energy  = -649.610502919716851

  ==> Basis Set <==

  Basis Set: AUG-CC-PVTZ
    Blend: AUG-CC-PVTZ
    Number of shells: 259
    Number of basis function: 805
    Number of Cartesian functions: 945
    Spherical Harmonics?: true
    Max angular momentum: 3

  ==> CGRSolver (by Rob Parrish) <==

   Number of roots    =         1
   Preconditioning    =    JACOBI
   Convergence cutoff =     1E-06
   Maximum iterations =       100

  ==> CPHFRHamiltonian (by Rob Parrish) <== 

  ==> DFJK: Density-Fitted J/K Matrices <==

    J tasked:                  Yes
    K tasked:                  Yes
    wK tasked:                  No
    OpenMP threads:              8
    Integrals threads:           8
    Memory (MB):              5722
    Algorithm:                Core
    Integral Cache:           NONE
    Schwarz Cutoff:          1E-12
    Fitting Condition:       1E-12

   => Auxiliary Basis Set <=

  Basis Set: (AUG-CC-PVTZ AUX)
    Blend: AUG-CC-PVTZ-JKFIT
    Number of shells: 518
    Number of basis function: 1778
    Number of Cartesian functions: 2219
    Spherical Harmonics?: true
    Max angular momentum: 4

  ==> CPHF Iterations <==

  => Iterations <=

             Iter  Converged  Remaining    Residual
  CGR           1          0          1   1.314E-01
  CGR           2          0          1   4.823E-02
  CGR           3          0          1   2.867E-02
  CGR           4          0          1   1.076E-02
  CGR           5          0          1   4.947E-03
  CGR           6          0          1   2.516E-03
  CGR           7          0          1   9.866E-04
  CGR           8          0          1   3.768E-04
  CGR           9          0          1   1.220E-04
  CGR          10          0          1   3.565E-05
  CGR          11          0          1   1.380E-05
  CGR          12          0          1   3.965E-06
  CGR          13          0          1   1.721E-06
  CGR          14          1          0   8.519E-07

    CGRSolver converged.

  ==> DFCorrGrad: Density-Fitted Correlated Gradients <==

    OpenMP threads:              8
    Integrals threads:           8
    Memory (MB):              5722
    Schwarz Cutoff:          0E+00
    Fitting Condition:       1E-12

   => Auxiliary Basis Set <=

  Basis Set: (AUG-CC-PVTZ AUX)
    Blend: AUG-CC-PVTZ-JKFIT
    Number of shells: 518
    Number of basis function: 1778
    Number of Cartesian functions: 2219
    Spherical Harmonics?: true
    Max angular momentum: 4

	-----------------------------------------------------------
	 ==================> DF-MP2 Energies <==================== 
	-----------------------------------------------------------
	 Reference Energy          =    -649.6105029197168506 [Eh]
	 Singles Energy            =      -0.0000000000000001 [Eh]
	 Same-Spin Energy          =      -0.6862502944349620 [Eh]
	 Opposite-Spin Energy      =      -2.0262559398823665 [Eh]
	 Correlation Energy        =      -2.7125062343173285 [Eh]
	 Total Energy              =    -652.3230091540341391 [Eh]
	-----------------------------------------------------------
	 ================> DF-SCS-MP2 Energies <================== 
	-----------------------------------------------------------
	 SCS Same-Spin Scale       =       0.3333333333333333 [-]
	 SCS Opposite-Spin Scale   =       1.2000000000000000 [-]
	 SCS Same-Spin Energy      =      -0.2287500981449873 [Eh]
	 SCS Opposite-Spin Energy  =      -2.4315071278588398 [Eh]
	 SCS Correlation Energy    =      -2.6602572260038273 [Eh]
	 SCS Total Energy          =    -652.2707601457207147 [Eh]
	-----------------------------------------------------------


  -Total Gradient:
     Atom            X                  Y                   Z
    ------   -----------------  -----------------  -----------------
       1        0.022045050790    -0.005702955532    -0.011503301377
       2       -0.022283732917     0.011075033894     0.040664260482
       3       -0.011992256391     0.009271567815     0.007693327274
       4       -0.013275909021     0.002292180000     0.007914741757
       5       -0.044138320420     0.024648067188    -0.001680900291
       6       -0.000174073066     0.006551909550     0.007126713507
       7       -0.010327658856    -0.002335169734    -0.000597348542
       8       -0.019626544804     0.010283181747     0.006451128008
       9        0.016248294833    -0.007872375954    -0.011763032759
      10        0.048211184108    -0.025270968592    -0.029180298231
      11        0.039446866860    -0.028305267635     0.002044112275
      12        0.008122895021    -0.003827210295    -0.005042619609
      13       -0.002450301652     0.001192562166     0.000316794983
      14       -0.010320310158     0.007742147198    -0.005395948966
      15       -0.003757158760     0.001209805478    -0.004740936004
      16       -0.002369423395     0.000659787674    -0.008872072288
      17        0.003362508483     0.002242548424     0.004484381725
      18       -0.003168985645    -0.001383097169    -0.004270477607
      19        0.004019241641    -0.001733684807     0.007068783401
      20        0.002023464269    -0.000299936470     0.000535946033
      21        0.000405169071    -0.000438124943    -0.001253253759


*** tstop() called on gpu-1-6.local at Mon Nov 13 19:51:50 2017
Module time:
	user time   =    5311.86 seconds =      88.53 minutes
	system time =      38.59 seconds =       0.64 minutes
	total time  =       2530 seconds =      42.17 minutes
Total time:
	user time   =    5311.87 seconds =      88.53 minutes
	system time =      38.59 seconds =       0.64 minutes
	total time  =       2530 seconds =      42.17 minutes

			-----------------------------------------
			 OPTKING 2.0: for geometry optimizations 
			  - R.A. King,  Bethel University        
			-----------------------------------------
	At level 1: Red. Int., RFO, no backsteps, dynamic trust

	Internal coordinates to be generated automatically.
	Detected frag 1 with atoms:  1 2 3 4 5 6 7 8 9 10 11 12 13 14 15 16 17 18 19 20
	 21
	---Fragment 1 Bond Connectivity---
	 1 : 2 8 15
	 2 : 1 10 16
	 3 : 6 9 17
	 4 : 7 9 18
	 5 : 10 11 19
	 6 : 3 12 20
	 7 : 4 12 21
	 8 : 1 9 11
	 9 : 3 4 8
	 10 : 2 5 13
	 11 : 5 8 14
	 12 : 6 7
	 13 : 10
	 14 : 11
	 15 : 1
	 16 : 2
	 17 : 3
	 18 : 4
	 19 : 5
	 20 : 6
	 21 : 7

	Assuming in current code that numbering for constraints corresponds to unified fragment.
	Fixed dihedral atom list: 
	     1     8     9     3
	---Fragment 1 Geometry and Gradient---
	 C          -2.5422514259        1.4510123453       -1.4765701168
	 C          -4.5793761971        2.5338254194       -0.2047844293
	 C           3.9848626371       -0.3404480287       -0.6356419876
	 C           1.1030302844       -2.3322193727       -3.5325921493
	 C          -2.7028781472        1.3697541216        3.7919863417
	 C           5.9388394585       -1.4610556255       -1.9716783636
	 C           3.1873982090       -3.3621201152       -4.7382374221
	 C          -0.5844951522        0.3266252962       -0.1159673011
	 C           1.5263289382       -0.7939823006       -1.4444447725
	 C          -4.6606344209        2.4941411706        2.4294937999
	 C          -0.6657533759        0.2869410474        2.5183109282
	 N           5.6024682068       -2.9652776273       -4.0088031348
	 O          -6.5333530185        3.4900268427        3.5992342762
	 F           1.2012960434       -0.7864233960        3.8543473041
	 H          -2.5063466294        1.4944760463       -3.5325921493
	 H          -6.0835981989        3.3955405360       -1.3121639432
	 H           4.3892640295        0.8462999828        0.9857430344
	 H          -0.7885855746       -2.7271721345       -4.2185627356
	 H          -2.7198856824        1.3130623376        5.8480083743
	 H           7.8909265538       -1.1681480749       -1.4142091544
	 H           2.9587413469       -4.5715448402       -6.3766299793
	             0.0220450508       -0.0057029555       -0.0115033014
	            -0.0222837329        0.0110750339        0.0406642605
	            -0.0119922564        0.0092715678        0.0076933273
	            -0.0132759090        0.0022921800        0.0079147418
	            -0.0441383204        0.0246480672       -0.0016809003
	            -0.0001740731        0.0065519096        0.0071267135
	            -0.0103276589       -0.0023351697       -0.0005973485
	            -0.0196265448        0.0102831817        0.0064511280
	             0.0162482948       -0.0078723760       -0.0117630328
	             0.0482111841       -0.0252709686       -0.0291802982
	             0.0394468669       -0.0283052676        0.0020441123
	             0.0081228950       -0.0038272103       -0.0050426196
	            -0.0024503017        0.0011925622        0.0003167950
	            -0.0103203102        0.0077421472       -0.0053959490
	            -0.0037571588        0.0012098055       -0.0047409360
	            -0.0023694234        0.0006597877       -0.0088720723
	             0.0033625085        0.0022425484        0.0044843817
	            -0.0031689856       -0.0013830972       -0.0042704776
	             0.0040192416       -0.0017336848        0.0070687834
	             0.0020234643       -0.0002999365        0.0005359460
	             0.0004051691       -0.0004381249       -0.0012532538

	Previous optimization step data not found.  Starting new optimization.

	---Fragment 1 Intrafragment Coordinates---
	 - Coordinate -           - BOHR/RAD -       - ANG/DEG -
	 R(1,2)           =         2.634350	       1.394038
	 R(1,8)           =         2.635962	       1.394891
	 R(1,15)          =         2.056795	       1.088409
	 R(2,10)          =         2.635830	       1.394821
	 R(2,16)          =         2.057067	       1.088553
	 R(3,6)           =         2.618927	       1.385877
	 R(3,9)           =         2.627593	       1.390462
	 R(3,17)          =         2.049585	       1.084594
	 R(4,7)           =         2.618944	       1.385885
	 R(4,9)           =         2.627873	       1.390610
	 R(4,18)          =         2.050550	       1.085104
	 R(5,10)          =         2.636938	       1.395407
	 R(5,11)          =         2.635263	       1.394521
	 R(5,19)          =         2.056874	       1.088451
	 R(6,12)          =         2.554546	       1.351808
	 R(6,20)          =         2.051149	       1.085421
	 R(7,12)          =         2.553844	       1.351436
	 R(7,21)          =         2.049225	       1.084403
	 R(8,9)           =         2.734263	       1.446909
	 R(8,11)          =         2.635830	       1.394821
	 R(10,13)         =         2.422221	       1.281784
	 R(11,14)         =         2.534359	       1.341125
	 B(1,2,10)        =         2.094553	     120.009056
	 B(1,2,16)        =         2.068903	     118.539404
	 B(1,8,9)         =         2.091392	     119.827938
	 B(1,8,11)        =         2.093692	     119.959722
	 B(2,1,8)         =         2.094940	     120.031219
	 B(2,1,15)        =         2.079908	     119.169966
	 B(2,10,5)        =         2.094306	     119.994870
	 B(2,10,13)       =         2.094719	     120.018581
	 B(3,6,12)        =         2.165824	     124.092585
	 B(3,6,20)        =         2.106344	     120.684623
	 B(3,9,4)         =         2.090177	     119.758336
	 B(3,9,8)         =         2.096736	     120.134147
	 B(4,7,12)        =         2.165229	     124.058458
	 B(4,7,21)        =         2.107549	     120.753637
	 B(4,9,8)         =         2.096270	     120.107428
	 B(5,10,13)       =         2.094160	     119.986548
	 B(5,11,8)        =         2.095181	     120.045019
	 B(5,11,14)       =         2.081414	     119.256220
	 B(6,3,9)         =         2.056929	     117.853348
	 B(6,3,17)        =         2.099147	     120.272269
	 B(6,12,7)        =         2.030620	     116.345952
	 B(7,4,9)         =         2.057591	     117.891299
	 B(7,4,18)        =         2.099539	     120.294718
	 B(8,1,15)        =         2.108336	     120.798746
	 B(8,11,14)       =         2.106591	     120.698759
	 B(9,3,17)        =         2.127109	     121.874366
	 B(9,4,18)        =         2.126054	     121.813912
	 B(9,8,11)        =         2.098101	     120.212327
	 B(10,2,16)       =         2.119728	     121.451467
	 B(10,5,11)       =         2.093699	     119.960108
	 B(10,5,19)       =         2.120101	     121.472852
	 B(11,5,19)       =         2.069385	     118.567038
	 B(12,6,20)       =         2.011016	     115.222716
	 B(12,7,21)       =         2.010408	     115.187892
	 D(1,2,10,5)      =        -0.000325	      -0.018609
	 D(1,2,10,13)     =         3.141392	     179.988520
	 D(1,8,9,3)       =         2.356096	     134.994348
	 D(1,8,9,4)       =        -0.787394	     -45.114359
	 D(1,8,11,5)      =         0.000325	       0.018608
	 D(1,8,11,14)     =        -3.141528	    -179.996269
	 D(2,1,8,9)       =        -3.141211	    -179.978157
	 D(2,1,8,11)      =        -0.000348	      -0.019945
	 D(2,10,5,11)     =         0.000301	       0.017261
	 D(2,10,5,19)     =        -3.141543	    -179.997173
	 D(3,6,12,7)      =         0.000105	       0.006037
	 D(3,9,4,7)       =        -0.000909	      -0.052063
	 D(3,9,4,18)      =        -3.140811	    -179.955216
	 D(3,9,8,11)      =        -0.784766	     -44.963758
	 D(4,7,12,6)      =        -0.000530	      -0.030348
	 D(4,9,3,6)       =         0.000529	       0.030292
	 D(4,9,3,17)      =        -3.140237	    -179.922305
	 D(4,9,8,11)      =         2.354930	     134.927536
	 D(5,10,2,16)     =         3.139529	     179.881752
	 D(5,11,8,9)      =         3.141185	     179.976658
	 D(6,3,9,8)       =         3.140231	     179.921967
	 D(6,12,7,21)     =         3.140317	     179.926901
	 D(7,4,9,8)       =        -3.140611	    -179.943767
	 D(7,12,6,20)     =         3.139952	     179.906025
	 D(8,1,2,10)      =         0.000348	       0.019955
	 D(8,1,2,16)      =        -3.139556	    -179.883288
	 D(8,9,3,17)      =        -0.000535	      -0.030631
	 D(8,9,4,18)      =         0.002672	       0.153080
	 D(8,11,5,10)     =        -0.000301	      -0.017270
	 D(8,11,5,19)     =         3.141536	     179.996748
	 D(9,3,6,12)      =        -0.000118	      -0.006786
	 D(9,3,6,20)      =        -3.139875	    -179.901579
	 D(9,4,7,12)      =         0.000939	       0.053777
	 D(9,4,7,21)      =        -3.139868	    -179.901207
	 D(9,8,1,15)      =         0.002066	       0.118384
	 D(9,8,11,14)     =        -0.000667	      -0.038219
	 D(10,2,1,15)     =         3.140283	     179.924984
	 D(10,5,11,14)    =         3.141547	     179.997392
	 D(11,5,10,13)    =        -3.141416	    -179.989865
	 D(11,8,1,15)     =        -3.140256	    -179.923403
	 D(12,6,3,17)     =         3.140661	     179.946603
	 D(12,7,4,18)     =         3.140868	     179.958463
	 D(13,10,2,16)    =        -0.001939	      -0.111119
	 D(13,10,5,19)    =        -0.000075	      -0.004300
	 D(14,11,5,19)    =         0.000199	       0.011410
	 D(15,1,2,16)     =         0.000379	       0.021741
	 D(17,3,6,20)     =         0.000904	       0.051810
	 D(18,4,7,21)     =         0.000061	       0.003480
	 R(3,14)          =         5.301617	       2.805495

	Current energy   :      -652.3230091540

	Generating empirical Hessian (Schlegel '84) for each fragment.
	Adding user-defined constraint: Fragment 1; Coordinate 59:
		Value =     2.356096; Fixed value    =     2.356194
		Force =     0.000049; Force constant =     0.500000
	Removing off-diagonal coupling between coordinate 59 and others.
	Taking RFO optimization step.
	Going to follow RFO solution 1.
	Using RFO vector 1.

	Determining step-restricting scale parameter for RS-RFO.
	Maximum step size allowed    0.10000

	 Iter      |step|        alpha        rfo_root  
	------------------------------------------------
	    0     0.27741       1.00000           1
	    1     0.20675       4.67619           1
	    2     0.15211      16.01378           1
	    3     0.11880      34.88562           1
	    4     0.10386      50.98641           1
	    5     0.10022      56.17278           1
	    6     0.10000      56.50910           1
	------------------------------------------------
	Norm of target step-size    0.10000
	Projected energy change by RFO approximation:        -0.0070919823

	Back-transformation to cartesian coordinates...
	Could not converge backtransformation.
	Using first guess instead.

	--- Internal Coordinate Step in ANG or DEG, aJ/ANG or AJ/DEG ---
	 ---------------------------------------------------------------------------
	   Coordinate                Previous        Force       Change         New 
	   ----------                --------       ------       ------       ------
	    1 R(1,2)          =      1.394038    -0.065681    -0.004808     1.389230
	    2 R(1,8)          =      1.394891     0.039209     0.002718     1.397609
	    3 R(1,15)         =      1.088409    -0.038714    -0.003313     1.085096
	    4 R(2,10)         =      1.394821     0.220264     0.016862     1.411683
	    5 R(2,16)         =      1.088553    -0.055900    -0.004784     1.083769
	    6 R(3,6)          =      1.385877    -0.000822    -0.000063     1.385814
	    7 R(3,9)          =      1.390462     0.027915     0.002355     1.392817
	    8 R(3,17)         =      1.084594    -0.045390    -0.003865     1.080729
	    9 R(4,7)          =      1.385885     0.000923     0.000058     1.385944
	   10 R(4,9)          =      1.390610     0.024920     0.002198     1.392808
	   11 R(4,18)         =      1.085104    -0.038050    -0.003234     1.081870
	   12 R(5,10)         =      1.395407     0.204309     0.015785     1.411192
	   13 R(5,11)         =      1.394521    -0.124289    -0.009193     1.385328
	   14 R(5,19)         =      1.088451    -0.058334    -0.004959     1.083491
	   15 R(6,12)         =      1.351808    -0.097499    -0.006785     1.345023
	   16 R(6,20)         =      1.085421    -0.016712    -0.001416     1.084005
	   17 R(7,12)         =      1.351436    -0.101640    -0.007071     1.344365
	   18 R(7,21)         =      1.084403    -0.010013    -0.000852     1.083551
	   19 R(8,9)          =      1.446909     0.069229     0.005703     1.452613
	   20 R(8,11)         =      1.394821    -0.015441    -0.001358     1.393463
	   21 R(10,13)        =      1.281784    -0.020908    -0.001177     1.280607
	   22 R(11,14)        =      1.341125     0.110639     0.007397     1.348522
	   23 B(1,2,10)       =    120.009056     0.000558     0.716775   120.725831
	   24 B(1,2,16)       =    118.539404     0.000204     0.287030   118.826434
	   25 B(1,8,9)        =    119.827938     0.000717     0.875353   120.703291
	   26 B(1,8,11)       =    119.959722    -0.001062    -1.345610   118.614112
	   27 B(2,1,8)        =    120.031219     0.000692     0.789297   120.820516
	   28 B(2,1,15)       =    119.169966    -0.000041     0.015109   119.185075
	   29 B(2,10,5)       =    119.994870    -0.001819    -2.003195   117.991675
	   30 B(2,10,13)      =    120.018581     0.001005     1.113954   121.132536
	   31 B(3,6,12)       =    124.092585     0.000150     0.145336   124.237922
	   32 B(3,6,20)       =    120.684623    -0.000105    -0.112568   120.572055
	   33 B(3,9,4)        =    119.758336    -0.001332    -1.492861   118.265475
	   34 B(3,9,8)        =    120.134147     0.000664     0.751033   120.885180
	   35 B(4,7,12)       =    124.058458     0.000116     0.101660   124.160118
	   36 B(4,7,21)       =    120.753637    -0.000099    -0.105803   120.647834
	   37 B(4,9,8)        =    120.107428     0.000668     0.741917   120.849344
	   38 B(5,10,13)      =    119.986548     0.000814     0.889236   120.875784
	   39 B(5,11,8)       =    120.045019     0.001208     1.325497   121.370516
	   40 B(5,11,14)      =    119.256220    -0.000115    -0.109465   119.146755
	   41 B(6,3,9)        =    117.853348     0.000572     0.718061   118.571409
	   42 B(6,3,17)       =    120.272269    -0.000102    -0.112028   120.160241
	   43 B(6,12,7)       =    116.345952    -0.000118    -0.237243   116.108708
	   44 B(7,4,9)        =    117.891299     0.000612     0.765003   118.656302
	   45 B(7,4,18)       =    120.294718    -0.000097    -0.102370   120.192348
	   46 B(8,1,15)       =    120.798746    -0.000651    -0.804339   119.994407
	   47 B(8,11,14)      =    120.698759    -0.001093    -1.216203   119.482556
	   48 B(9,3,17)       =    121.874366    -0.000470    -0.606017   121.268350
	   49 B(9,4,18)       =    121.813912    -0.000515    -0.662580   121.151332
	   50 B(9,8,11)       =    120.212327     0.000344     0.470135   120.682463
	   51 B(10,2,16)      =    121.451467    -0.000762    -1.003781   120.447686
	   52 B(10,5,11)      =    119.960108     0.000422     0.517104   120.477213
	   53 B(10,5,19)      =    121.472852    -0.000549    -0.705929   120.766923
	   54 B(11,5,19)      =    118.567038     0.000126     0.188823   118.755860
	   55 B(12,6,20)      =    115.222716    -0.000045    -0.032695   115.190021
	   56 B(12,7,21)      =    115.187892    -0.000017     0.004138   115.192029
	   57 D(1,2,10,5)     =     -0.018609     0.000007     0.062968     0.044359
	   58 D(1,2,10,13)    =    179.988520     0.000004     0.029610   180.018130
	   59 D(1,8,9,3)      =    134.994348     0.000032     0.168246   135.162594
	   60 D(1,8,9,4)      =    -45.114359     0.000041     0.281412   -44.832947
	   61 D(1,8,11,5)     =      0.018608     0.000011     0.103293     0.121901
	   62 D(1,8,11,14)    =   -179.996269    -0.000006    -0.034313  -180.030582
	   63 D(2,1,8,9)      =   -179.978157     0.000008     0.080478  -179.897680
	   64 D(2,1,8,11)     =     -0.019945     0.000000    -0.010103    -0.030047
	   65 D(2,10,5,11)    =      0.017261     0.000004     0.028592     0.045854
	   66 D(2,10,5,19)    =   -179.997173     0.000003     0.021471  -179.975703
	   67 D(3,6,12,7)     =      0.006037    -0.000001    -0.003291     0.002746
	   68 D(3,9,4,7)      =     -0.052063    -0.000003    -0.005908    -0.057971
	   69 D(3,9,4,18)     =   -179.955216    -0.000009    -0.053702  -180.008918
	   70 D(3,9,8,11)     =    -44.963758     0.000040     0.261468   -44.702290
	   71 D(4,7,12,6)     =     -0.030348    -0.000005    -0.041685    -0.072033
	   72 D(4,9,3,6)      =      0.030292    -0.000002    -0.034677    -0.004385
	   73 D(4,9,3,17)     =   -179.922305    -0.000010    -0.090974  -180.013279
	   74 D(4,9,8,11)     =    134.927536     0.000049     0.374633   135.302169
	   75 D(5,10,2,16)    =    179.881752     0.000010     0.080636   179.962389
	   76 D(5,11,8,9)     =    179.976658     0.000003     0.012904   179.989562
	   77 D(6,3,9,8)      =    179.921967     0.000008     0.078033   180.000000
	   78 D(6,12,7,21)    =    179.926901     0.000007     0.051597   179.978499
	   79 D(7,4,9,8)      =   -179.943767    -0.000013    -0.118549  -180.062316
	   80 D(7,12,6,20)    =    179.906025     0.000009     0.078739   179.984764
	   81 D(8,1,2,10)     =      0.019955    -0.000009    -0.072305    -0.052350
	   82 D(8,1,2,16)     =   -179.883288    -0.000012    -0.088401  -179.971689
	   83 D(8,9,3,17)     =     -0.030631     0.000000     0.021698    -0.008932
	   84 D(8,9,4,18)     =      0.153080    -0.000019    -0.166343    -0.013263
	   85 D(8,11,5,10)    =     -0.017270    -0.000013    -0.113622    -0.130892
	   86 D(8,11,5,19)    =    179.996748    -0.000013    -0.106512   179.890236
	   87 D(9,3,6,12)     =     -0.006786     0.000004     0.040844     0.034058
	   88 D(9,3,6,20)     =   -179.901579    -0.000006    -0.045464  -179.947043
	   89 D(9,4,7,12)     =      0.053777     0.000007     0.047392     0.101168
	   90 D(9,4,7,21)     =   -179.901207    -0.000006    -0.050774  -179.951981
	   91 D(9,8,1,15)     =      0.118384    -0.000006    -0.031444     0.086941
	   92 D(9,8,11,14)    =     -0.038219    -0.000014    -0.124702    -0.162921
	   93 D(10,2,1,15)    =    179.924984     0.000005     0.037923   179.962907
	   94 D(10,5,11,14)   =    179.997392     0.000003     0.023697   180.021089
	   95 D(11,5,10,13)   =   -179.989865     0.000008     0.061877  -179.927988
	   96 D(11,8,1,15)    =   -179.923403    -0.000014    -0.122024  -180.045427
	   97 D(12,6,3,17)    =    179.946603     0.000012     0.096247   180.042850
	   98 D(12,7,4,18)    =    179.958463     0.000012     0.094136   180.052599
	   99 D(13,10,2,16)   =     -0.111119     0.000006     0.047278    -0.063840
	  100 D(13,10,5,19)   =     -0.004300     0.000007     0.054756     0.050456
	  101 D(14,11,5,19)   =      0.011410     0.000004     0.030807     0.042217
	  102 D(15,1,2,16)    =      0.021741     0.000002     0.021827     0.043568
	  103 D(17,3,6,20)    =      0.051810     0.000001     0.009939     0.061749
	  104 D(18,4,7,21)    =      0.003480    -0.000000    -0.003480     0.000000
	  105 R(3,14)         =      2.805495     0.025703     0.003917     2.809412
	 ---------------------------------------------------------------------------
	Successfully symmetrized geometry.
	 Forces used to impose fixed constraints are not included.
	  Forces zeroed: 59 

  ==> Convergence Check <==

  Measures of convergence in internal coordinates in au.
  Criteria marked as inactive (o), active & met (*), and active & unmet ( ).
  --------------------------------------------------------------------------------------------- ~
   Step     Total Energy     Delta E     MAX Force     RMS Force      MAX Disp      RMS Disp    ~
  --------------------------------------------------------------------------------------------- ~
    Convergence Criteria    1.00e-06 *    3.00e-04 *             o    1.20e-03 *             o  ~
  --------------------------------------------------------------------------------------------- ~
      1    -652.32300915   -6.52e+02      2.67e-02      7.00e-03 o    3.50e-02      9.75e-03 o  ~
  ---------------------------------------------------------------------------------------------

	Writing optimization data to binary file.
	Structure for next step:
	Cartesian Geometry (in Angstrom)
	    C    -1.3616528966   0.7728144875  -0.7720746879
	    C    -2.4360979000   1.3462203211  -0.1036934065
	    C     2.1164721028  -0.1930801737  -0.3467746083
	    C     0.6049283690  -1.2387110099  -1.8761795997
	    C    -1.4344486470   0.7303427963   2.0109495613
	    C     3.1519070640  -0.7865089233  -1.0511868524
	    C     1.7094888057  -1.7835080657  -2.5117754253
	    C    -0.3150778193   0.1746424715  -0.0648392282
	    C     0.8082420747  -0.4222214554  -0.7662592143
	    C    -2.4962582799   1.3369919777   1.3066767660
	    C    -0.3702096711   0.1651651679   1.3275003428
	    N     2.9805582910  -1.5776311158  -2.1253618519
	    O    -3.4831080516   1.8629477071   1.9307385405
	    F     0.6299178260  -0.4078658813   2.0274236849
	    H    -1.3412344474   0.7934909975  -1.8567817054
	    H    -3.2302797372   1.8008826958  -0.6843075788
	    H     2.3299572721   0.4324947456   0.5082432803
	    H    -0.3914778946  -1.4480210146  -2.2419762378
	    H    -1.4348688607   0.6975650160   3.0939449272
	    H     4.1822535276  -0.6308138529  -0.7525027827
	    H     1.5886570976  -2.4225009787  -3.3784762301
			--------------------------
			 OPTKING Finished Execution 
			--------------------------

    Structure for next step:
    Molecular point group: c1
    Full point group: C1

    Geometry (in Angstrom), charge = -1, multiplicity = 1:

    C           -1.358655025008     0.770687442840    -0.772675128085
    C           -2.433100028442     1.344093276432    -0.104293846666
    C            2.119469974385    -0.195207218316    -0.347375048478
    C            0.607926240585    -1.240838054512    -1.876780039856
    C           -1.431450775427     0.728215751645     2.010349121057
    C            3.154904935538    -0.788635967925    -1.051787292580
    C            1.712486677238    -1.785635110304    -2.512375865470
    C           -0.312079947748     0.172515426839    -0.065439668346
    C            0.811239946223    -0.424348500027    -0.766859654507
    C           -2.493260408390     1.334864933042     1.306076325849
    C           -0.367211799546     0.163038123289     1.326899902640
    N            2.983556162598    -1.579758160471    -2.125962292125
    O           -3.480110180051     1.860820662502     1.930138100342
    F            0.632915697607    -0.409992925903     2.026823244686
    H           -1.338236575819     0.791363952870    -1.857382145560
    H           -3.227281865601     1.798755651198    -0.684908019036
    H            2.332955143662     0.430367700970     0.507642840121
    H           -0.388480023084    -1.450148059224    -2.242576677974
    H           -1.431870989156     0.695437971414     3.093344487009
    H            4.185251399205    -0.632940897508    -0.753103222917
    H            1.591654969122    -2.424628023290    -3.379076670266

gradient() will perform analytic gradient computation.

*** tstart() called on gpu-1-6.local
*** at Mon Nov 13 19:51:51 2017

    SCF Algorithm Type (re)set to DF.

*** tstart() called on gpu-1-6.local
*** at Mon Nov 13 19:51:51 2017

   => Loading Basis Set <=

    Name: AUG-CC-PVTZ
    Role: ORBITAL
    Keyword: BASIS
    atoms 1-11  entry C          line   221 file /cbio/jclab/home/chayas/anaconda/envs/py35/share/psi4/basis/aug-cc-pvtz.gbs 
    atoms 12    entry N          line   267 file /cbio/jclab/home/chayas/anaconda/envs/py35/share/psi4/basis/aug-cc-pvtz.gbs 
    atoms 13    entry O          line   313 file /cbio/jclab/home/chayas/anaconda/envs/py35/share/psi4/basis/aug-cc-pvtz.gbs 
    atoms 14    entry F          line   359 file /cbio/jclab/home/chayas/anaconda/envs/py35/share/psi4/basis/aug-cc-pvtz.gbs 
    atoms 15-21 entry H          line    34 file /cbio/jclab/home/chayas/anaconda/envs/py35/share/psi4/basis/aug-cc-pvtz.gbs 


         ---------------------------------------------------------
                                   SCF
            by Justin Turney, Rob Parrish, and Andy Simmonett
                              RHF Reference
                        8 Threads,   7629 MiB Core
         ---------------------------------------------------------

  ==> Geometry <==

    Molecular point group: c1
    Full point group: C1

    Geometry (in Angstrom), charge = -1, multiplicity = 1:

       Center              X                  Y                   Z               Mass       
    ------------   -----------------  -----------------  -----------------  -----------------
           C         -1.358655025008     0.770687442840    -0.772675128085    12.000000000000
           C         -2.433100028442     1.344093276432    -0.104293846666    12.000000000000
           C          2.119469974385    -0.195207218316    -0.347375048478    12.000000000000
           C          0.607926240585    -1.240838054512    -1.876780039856    12.000000000000
           C         -1.431450775427     0.728215751645     2.010349121057    12.000000000000
           C          3.154904935538    -0.788635967925    -1.051787292580    12.000000000000
           C          1.712486677238    -1.785635110304    -2.512375865470    12.000000000000
           C         -0.312079947748     0.172515426839    -0.065439668346    12.000000000000
           C          0.811239946223    -0.424348500027    -0.766859654507    12.000000000000
           C         -2.493260408390     1.334864933042     1.306076325849    12.000000000000
           C         -0.367211799546     0.163038123289     1.326899902640    12.000000000000
           N          2.983556162598    -1.579758160471    -2.125962292125    14.003074004780
           O         -3.480110180051     1.860820662502     1.930138100342    15.994914619560
           F          0.632915697607    -0.409992925903     2.026823244686    18.998403224000
           H         -1.338236575819     0.791363952870    -1.857382145560     1.007825032070
           H         -3.227281865601     1.798755651198    -0.684908019036     1.007825032070
           H          2.332955143662     0.430367700970     0.507642840121     1.007825032070
           H         -0.388480023084    -1.450148059224    -2.242576677974     1.007825032070
           H         -1.431870989156     0.695437971414     3.093344487009     1.007825032070
           H          4.185251399205    -0.632940897508    -0.753103222917     1.007825032070
           H          1.591654969122    -2.424628023290    -3.379076670266     1.007825032070

  Running in c1 symmetry.

  Rotational constants: A =      0.06397  B =      0.01348  C =      0.01163 [cm^-1]
  Rotational constants: A =   1917.63434  B =    404.09301  C =    348.59900 [MHz]
  Nuclear repulsion =  800.956998032673255

  Charge       = -1
  Multiplicity = 1
  Electrons    = 98
  Nalpha       = 49
  Nbeta        = 49

  ==> Algorithm <==

  SCF Algorithm Type is DF.
  DIIS enabled.
  MOM disabled.
  Fractional occupation disabled.
  Guess Type is READ.
  Energy threshold   = 1.00e-10
  Density threshold  = 1.00e-10
  Integral threshold = 0.00e+00

  ==> Primary Basis <==

  Basis Set: AUG-CC-PVTZ
    Blend: AUG-CC-PVTZ
    Number of shells: 259
    Number of basis function: 805
    Number of Cartesian functions: 945
    Spherical Harmonics?: true
    Max angular momentum: 3

   => Loading Basis Set <=

    Name: (AUG-CC-PVTZ AUX)
    Role: JKFIT
    Keyword: DF_BASIS_SCF
    atoms 1-11  entry C          line   161 file /cbio/jclab/home/chayas/anaconda/envs/py35/share/psi4/basis/aug-cc-pvtz-jkfit.gbs 
    atoms 12    entry N          line   223 file /cbio/jclab/home/chayas/anaconda/envs/py35/share/psi4/basis/aug-cc-pvtz-jkfit.gbs 
    atoms 13    entry O          line   285 file /cbio/jclab/home/chayas/anaconda/envs/py35/share/psi4/basis/aug-cc-pvtz-jkfit.gbs 
    atoms 14    entry F          line   347 file /cbio/jclab/home/chayas/anaconda/envs/py35/share/psi4/basis/aug-cc-pvtz-jkfit.gbs 
    atoms 15-21 entry H          line    69 file /cbio/jclab/home/chayas/anaconda/envs/py35/share/psi4/basis/aug-cc-pvtz-jkfit.gbs 

  Reading orbitals from file 180, no projection.

  ==> Pre-Iterations <==

   -------------------------------------------------------
    Irrep   Nso     Nmo     Nalpha   Nbeta   Ndocc  Nsocc
   -------------------------------------------------------
     A        805     805       0       0       0       0
   -------------------------------------------------------
    Total     805     805      49      49      49       0
   -------------------------------------------------------

  ==> Integral Setup <==

  ==> DFJK: Density-Fitted J/K Matrices <==

    J tasked:                  Yes
    K tasked:                  Yes
    wK tasked:                  No
    OpenMP threads:              8
    Integrals threads:           8
    Memory (MB):              5722
    Algorithm:                Core
    Integral Cache:           NONE
    Schwarz Cutoff:          1E-12
    Fitting Condition:       1E-12

   => Auxiliary Basis Set <=

  Basis Set: (AUG-CC-PVTZ AUX)
    Blend: AUG-CC-PVTZ-JKFIT
    Number of shells: 518
    Number of basis function: 1778
    Number of Cartesian functions: 2219
    Spherical Harmonics?: true
    Max angular momentum: 4

  Minimum eigenvalue in the overlap matrix is 8.0923027802E-07.
  Using Symmetric Orthogonalization.

  SCF Guess: Orbitals guess was supplied from a previous computation.

  ==> Iterations <==

                           Total Energy        Delta E     RMS |[F,P]|

   @DF-RHF iter   0:  -649.68822956420570   -6.49688e+02   4.55819e-04 
   @DF-RHF iter   1:  -649.61715459391723    7.10750e-02   9.49750e-05 
   @DF-RHF iter   2:  -649.61753497172901   -3.80378e-04   5.99786e-05 DIIS
   @DF-RHF iter   3:  -649.61771154847042   -1.76577e-04   8.61196e-06 DIIS
   @DF-RHF iter   4:  -649.61771699351493   -5.44504e-06   4.00695e-06 DIIS
   @DF-RHF iter   5:  -649.61771868666199   -1.69315e-06   1.34483e-06 DIIS
   @DF-RHF iter   6:  -649.61771904895352   -3.62292e-07   7.65820e-07 DIIS
   @DF-RHF iter   7:  -649.61771916047064   -1.11517e-07   3.00805e-07 DIIS
   @DF-RHF iter   8:  -649.61771918881186   -2.83412e-08   1.49310e-07 DIIS
   @DF-RHF iter   9:  -649.61771919296837   -4.15650e-09   5.41765e-08 DIIS
   @DF-RHF iter  10:  -649.61771919358409   -6.15728e-10   1.59385e-08 DIIS
   @DF-RHF iter  11:  -649.61771919361877   -3.46745e-11   5.55943e-09 DIIS
   @DF-RHF iter  12:  -649.61771919362741   -8.64020e-12   1.98618e-09 DIIS
   @DF-RHF iter  13:  -649.61771919363946   -1.20508e-11   7.36683e-10 DIIS
   @DF-RHF iter  14:  -649.61771919362172    1.77351e-11   2.69236e-10 DIIS
   @DF-RHF iter  15:  -649.61771919363866   -1.69393e-11   1.30611e-10 DIIS
   @DF-RHF iter  16:  -649.61771919363923   -5.68434e-13   5.46884e-11 DIIS

  ==> Post-Iterations <==

    Orbital Energies (a.u.)
    -----------------------

    Doubly Occupied:                                                      

       1A    -26.185292     2A    -20.309255     3A    -15.454107  
       4A    -11.191223     5A    -11.168507     6A    -11.166941  
       7A    -11.149054     8A    -11.131433     9A    -11.123676  
      10A    -11.121045    11A    -11.110129    12A    -11.084740  
      13A    -11.066200    14A    -11.066054    15A     -1.503554  
      16A     -1.145803    17A     -1.137449    18A     -1.024389  
      19A     -0.965941    20A     -0.925190    21A     -0.874938  
      22A     -0.848775    23A     -0.750988    24A     -0.739303  
      25A     -0.700970    26A     -0.676111    27A     -0.608210  
      28A     -0.581613    29A     -0.574564    30A     -0.563563  
      31A     -0.548365    32A     -0.535791    33A     -0.504002  
      34A     -0.488850    35A     -0.472730    36A     -0.461348  
      37A     -0.434912    38A     -0.419549    39A     -0.411454  
      40A     -0.383950    41A     -0.377002    42A     -0.363432  
      43A     -0.312012    44A     -0.309766    45A     -0.254360  
      46A     -0.242605    47A     -0.225311    48A     -0.203141  
      49A     -0.117232  

    Virtual:                                                              

      50A      0.098385    51A      0.100749    52A      0.115069  
      53A      0.120483    54A      0.124034    55A      0.128132  
      56A      0.132132    57A      0.154774    58A      0.166640  
      59A      0.173670    60A      0.179192    61A      0.183415  
      62A      0.186657    63A      0.187156    64A      0.189774  
      65A      0.197074    66A      0.198676    67A      0.204939  
      68A      0.206968    69A      0.213054    70A      0.213763  
      71A      0.218148    72A      0.221398    73A      0.226373  
      74A      0.228595    75A      0.231180    76A      0.234864  
      77A      0.237824    78A      0.241128    79A      0.247237  
      80A      0.253532    81A      0.255866    82A      0.260089  
      83A      0.263846    84A      0.266529    85A      0.275819  
      86A      0.276258    87A      0.288666    88A      0.293603  
      89A      0.298320    90A      0.312450    91A      0.313374  
      92A      0.318804    93A      0.321367    94A      0.322598  
      95A      0.326460    96A      0.328382    97A      0.330723  
      98A      0.333690    99A      0.336376   100A      0.344915  
     101A      0.348431   102A      0.351684   103A      0.362633  
     104A      0.364761   105A      0.366985   106A      0.373445  
     107A      0.382232   108A      0.384054   109A      0.386679  
     110A      0.390834   111A      0.399492   112A      0.403726  
     113A      0.408213   114A      0.410234   115A      0.415118  
     116A      0.419451   117A      0.420998   118A      0.423532  
     119A      0.430820   120A      0.437952   121A      0.440514  
     122A      0.446363   123A      0.453098   124A      0.458554  
     125A      0.460732   126A      0.467898   127A      0.472470  
     128A      0.474515   129A      0.482195   130A      0.486202  
     131A      0.492320   132A      0.501358   133A      0.506245  
     134A      0.510423   135A      0.514714   136A      0.518451  
     137A      0.532740   138A      0.535115   139A      0.539973  
     140A      0.542773   141A      0.549911   142A      0.556983  
     143A      0.559175   144A      0.562640   145A      0.564199  
     146A      0.564977   147A      0.572900   148A      0.575684  
     149A      0.578520   150A      0.584519   151A      0.586677  
     152A      0.587340   153A      0.596353   154A      0.597049  
     155A      0.600194   156A      0.602169   157A      0.603359  
     158A      0.607048   159A      0.611171   160A      0.620906  
     161A      0.623035   162A      0.626638   163A      0.631550  
     164A      0.632582   165A      0.633854   166A      0.640409  
     167A      0.643937   168A      0.645938   169A      0.653399  
     170A      0.655321   171A      0.658190   172A      0.667260  
     173A      0.676931   174A      0.683203   175A      0.685152  
     176A      0.694374   177A      0.697056   178A      0.702086  
     179A      0.705948   180A      0.707579   181A      0.713723  
     182A      0.715414   183A      0.729099   184A      0.731010  
     185A      0.733884   186A      0.749223   187A      0.751062  
     188A      0.758251   189A      0.770295   190A      0.773205  
     191A      0.783013   192A      0.787471   193A      0.795457  
     194A      0.802570   195A      0.803545   196A      0.814322  
     197A      0.814827   198A      0.818750   199A      0.825698  
     200A      0.830801   201A      0.841180   202A      0.847065  
     203A      0.850598   204A      0.855938   205A      0.859823  
     206A      0.862992   207A      0.867445   208A      0.874027  
     209A      0.877900   210A      0.880104   211A      0.882549  
     212A      0.887548   213A      0.900055   214A      0.912602  
     215A      0.916218   216A      0.923901   217A      0.930770  
     218A      0.945205   219A      0.949086   220A      0.956168  
     221A      0.965435   222A      0.975116   223A      0.978487  
     224A      0.981402   225A      0.983741   226A      0.984913  
     227A      0.995487   228A      1.001908   229A      1.004773  
     230A      1.009185   231A      1.011934   232A      1.015995  
     233A      1.019226   234A      1.028259   235A      1.032941  
     236A      1.038571   237A      1.041748   238A      1.042460  
     239A      1.050605   240A      1.053054   241A      1.061093  
     242A      1.062276   243A      1.071054   244A      1.075619  
     245A      1.078968   246A      1.083314   247A      1.090112  
     248A      1.091714   249A      1.094615   250A      1.102141  
     251A      1.106318   252A      1.111330   253A      1.117747  
     254A      1.123510   255A      1.128205   256A      1.133452  
     257A      1.136159   258A      1.142721   259A      1.143316  
     260A      1.149126   261A      1.150600   262A      1.159292  
     263A      1.165762   264A      1.168783   265A      1.175945  
     266A      1.177936   267A      1.178652   268A      1.184277  
     269A      1.186909   270A      1.189786   271A      1.195818  
     272A      1.199710   273A      1.203681   274A      1.217360  
     275A      1.220157   276A      1.224026   277A      1.226689  
     278A      1.229677   279A      1.237457   280A      1.249142  
     281A      1.254006   282A      1.255301   283A      1.262239  
     284A      1.266364   285A      1.277479   286A      1.281381  
     287A      1.284620   288A      1.289518   289A      1.290717  
     290A      1.295870   291A      1.306187   292A      1.309623  
     293A      1.314649   294A      1.316581   295A      1.320510  
     296A      1.326040   297A      1.331461   298A      1.333702  
     299A      1.336658   300A      1.350013   301A      1.354125  
     302A      1.364634   303A      1.369677   304A      1.373443  
     305A      1.383647   306A      1.386669   307A      1.392570  
     308A      1.395373   309A      1.402687   310A      1.409939  
     311A      1.415226   312A      1.420438   313A      1.428983  
     314A      1.434273   315A      1.439549   316A      1.455751  
     317A      1.459329   318A      1.468340   319A      1.472629  
     320A      1.484196   321A      1.488138   322A      1.493521  
     323A      1.502502   324A      1.506546   325A      1.509644  
     326A      1.519207   327A      1.526654   328A      1.531713  
     329A      1.546689   330A      1.557062   331A      1.565326  
     332A      1.570742   333A      1.580236   334A      1.590062  
     335A      1.596797   336A      1.598237   337A      1.607165  
     338A      1.612179   339A      1.624688   340A      1.628597  
     341A      1.639849   342A      1.651457   343A      1.656242  
     344A      1.665987   345A      1.686210   346A      1.689044  
     347A      1.693005   348A      1.702569   349A      1.709775  
     350A      1.721126   351A      1.726062   352A      1.737594  
[...]
	 D(9,8,1,15)      =         0.032226	       1.846441
	 D(9,8,11,14)     =        -0.092476	      -5.298474
	 D(10,2,1,15)     =        -3.111251	    -178.261558
	 D(10,5,11,14)    =        -3.131685	    -179.432338
	 D(11,5,10,13)    =        -3.134345	    -179.584725
	 D(11,8,1,15)     =         3.085653	     176.794867
	 D(12,6,3,17)     =        -3.118349	    -178.668217
	 D(12,7,4,18)     =        -3.119810	    -178.751933
	 D(13,10,2,16)    =         0.026744	       1.532323
	 D(13,10,5,19)    =         0.013449	       0.770584
	 D(14,11,5,19)    =         0.003659	       0.209618
	 D(15,1,2,16)     =         0.013133	       0.752442
	 D(17,3,6,20)     =         0.008050	       0.461218
	 D(18,4,7,21)     =         0.012061	       0.691060
	 R(3,14)          =         5.447394	       2.882637
	 R(1,X)           =        -2.613745	      -1.383134
	 R(1,Y)           =         1.240147	       0.656258
	 R(1,Z)           =        -1.394341	      -0.737853
	 R(2,X)           =        -4.598663	      -2.433508
	 R(2,Y)           =         2.429734	       1.285760
	 R(2,Z)           =        -0.215545	      -0.114061
	 R(3,X)           =         4.047492	       2.141840
	 R(3,Y)           =        -0.572223	      -0.302807
	 R(3,Z)           =        -0.626678	      -0.331624
	 R(4,X)           =         1.226941	       0.649269
	 R(4,Y)           =        -2.344368	      -1.240586
	 R(4,Z)           =        -3.596642	      -1.903261
	 R(5,X)           =        -2.708493	      -1.433273
	 R(5,Y)           =         1.508994	       0.798525
	 R(5,Z)           =         3.811533	       2.016976
	 R(6,X)           =         6.007668	       3.179121
	 R(6,Y)           =        -1.558761	      -0.824861
	 R(6,Z)           =        -2.048292	      -1.083909
	 R(7,X)           =         3.304948	       1.748903
	 R(7,Y)           =        -3.241157	      -1.715146
	 R(7,Z)           =        -4.906643	      -2.596484
	 R(8,X)           =        -0.597016	      -0.315927
	 R(8,Y)           =         0.131078	       0.069363
	 R(8,Z)           =        -0.064394	      -0.034076
	 R(9,X)           =         1.536635	       0.813152
	 R(9,Y)           =        -0.963184	      -0.509695
	 R(9,Z)           =        -1.362013	      -0.720746
	 R(10,X)          =        -4.793882	      -2.536813
	 R(10,Y)          =         2.629680	       1.391567
	 R(10,Z)          =         2.486299	       1.315693
	 R(11,X)          =        -0.754544	      -0.399288
	 R(11,Y)          =         0.377556	       0.199794
	 R(11,Z)          =         2.557259	       1.353243
	 R(12,X)          =         5.701597	       3.017155
	 R(12,Y)          =        -2.888551	      -1.528555
	 R(12,Z)          =        -4.181113	      -2.212550
	 R(13,X)          =        -6.612767	      -3.499325
	 R(13,Y)          =         3.697598	       1.956684
	 R(13,Z)          =         3.595308	       1.902555
	 R(14,X)          =         1.145933	       0.606402
	 R(14,Y)          =        -0.662748	      -0.350711
	 R(14,Z)          =         3.982754	       2.107582
	 R(15,X)          =        -2.546904	      -1.347764
	 R(15,Y)          =         1.198447	       0.634191
	 R(15,Z)          =        -3.439550	      -1.820132
	 R(16,X)          =        -6.084040	      -3.219535
	 R(16,Y)          =         3.291285	       1.741673
	 R(16,Z)          =        -1.322256	      -0.699708
	 R(17,X)          =         4.455051	       2.357511
	 R(17,Y)          =         0.513529	       0.271748
	 R(17,Z)          =         1.049219	       0.555223
	 R(18,X)          =        -0.654361	      -0.346273
	 R(18,Y)          =        -2.739160	      -1.449501
	 R(18,Z)          =        -4.283229	      -2.266587
	 R(19,X)          =        -2.700741	      -1.429171
	 R(19,Y)          =         1.558451	       0.824697
	 R(19,Z)          =         5.850467	       3.095934
	 R(20,X)          =         7.941168	       4.202285
	 R(20,Y)          =        -1.244834	      -0.658738
	 R(20,Z)          =        -1.458790	      -0.771959
	 R(21,X)          =         3.034641	       1.605863
	 R(21,Y)          =        -4.317080	      -2.284501
	 R(21,Z)          =        -6.626492	      -3.506589

	Current energy   :      -652.3347299969

	Generating empirical Hessian (Schlegel '84) for each fragment.
	Adding user-defined constraint: Fragment 1; Coordinate 59:
		Value =     2.368937; Fixed value    =     2.356194
		Force =    -0.006371; Force constant =     0.500000
	Removing off-diagonal coupling between coordinate 59 and others.
	Taking RFO optimization step.
	Going to follow RFO solution 1.
	Using RFO vector 1.
	Norm of target step-size    0.00888
	Projected energy change by RFO approximation:        -0.0000060045

	Back-transformation to cartesian coordinates...
	Successfully converged to displaced geometry.

	--- Internal Coordinate Step in ANG or DEG, aJ/ANG or AJ/DEG ---
	 ---------------------------------------------------------------------------
	   Coordinate                Previous        Force       Change         New 
	   ----------                --------       ------       ------       ------
	    1 R(1,2)          =      1.374290     0.000143    -0.000011     1.374280
	    2 R(1,8)          =      1.406655     0.000885     0.000147     1.406802
	    3 R(1,15)         =      1.083081    -0.000125    -0.000052     1.083028
	    4 R(2,10)         =      1.437381    -0.001207    -0.000340     1.437040
	    5 R(2,16)         =      1.081054    -0.000194    -0.000066     1.080988
	    6 R(3,6)          =      1.383627    -0.000839    -0.000236     1.383391
	    7 R(3,9)          =      1.399868    -0.000053    -0.000044     1.399824
	    8 R(3,17)         =      1.078483    -0.000295    -0.000140     1.078342
	    9 R(4,7)          =      1.383821    -0.000955    -0.000223     1.383598
	   10 R(4,9)          =      1.399786    -0.000812    -0.000177     1.399609
	   11 R(4,18)         =      1.080164     0.000075    -0.000006     1.080159
	   12 R(5,10)         =      1.435722    -0.000874    -0.000262     1.435460
	   13 R(5,11)         =      1.366801    -0.000064    -0.000090     1.366711
	   14 R(5,19)         =      1.079283    -0.000063    -0.000079     1.079204
	   15 R(6,12)         =      1.339868    -0.002007    -0.000370     1.339498
	   16 R(6,20)         =      1.082486     0.000372     0.000035     1.082522
	   17 R(7,12)         =      1.338164     0.000517     0.000032     1.338196
	   18 R(7,21)         =      1.083012    -0.000468    -0.000167     1.082846
	   19 R(8,9)          =      1.442791     0.001189     0.000218     1.443009
	   20 R(8,11)         =      1.395928    -0.001742    -0.000352     1.395576
	   21 R(10,13)        =      1.261030    -0.000104    -0.000044     1.260986
	   22 R(11,14)        =      1.372405    -0.001589    -0.000319     1.372086
	   23 B(1,2,10)       =    122.693280    -0.000002    -0.010345   122.682934
	   24 B(1,2,16)       =    120.198721    -0.000005    -0.022083   120.176637
	   25 B(1,8,9)        =    121.537376    -0.000012    -0.049331   121.488045
	   26 B(1,8,11)       =    114.389914     0.000003     0.001357   114.391271
	   27 B(2,1,8)        =    122.948268    -0.000003    -0.000257   122.948010
	   28 B(2,1,15)       =    119.199841    -0.000001    -0.012911   119.186930
	   29 B(2,10,5)       =    113.591564     0.000002     0.004916   113.596480
	   30 B(2,10,13)      =    123.419122    -0.000002    -0.004301   123.414821
	   31 B(3,6,12)       =    124.439043     0.000001    -0.004199   124.434843
	   32 B(3,6,20)       =    119.604492    -0.000001    -0.000873   119.603619
	   33 B(3,9,4)        =    115.031526    -0.000000    -0.002868   115.028658
	   34 B(3,9,8)        =    123.446927    -0.000006     0.005336   123.452263
	   35 B(4,7,12)       =    124.164763    -0.000003    -0.004407   124.160356
	   36 B(4,7,21)       =    119.755664     0.000002     0.001608   119.757273
	   37 B(4,9,8)        =    121.332208     0.000007     0.010235   121.342443
	   38 B(5,10,13)      =    122.988288    -0.000000    -0.000464   122.987825
	   39 B(5,11,8)       =    124.661113    -0.000003    -0.013457   124.647656
	   40 B(5,11,14)      =    117.591035     0.000002     0.002812   117.593846
	   41 B(6,3,9)        =    120.309160    -0.000000     0.006396   120.315556
	   42 B(6,3,17)       =    119.879951    -0.000000    -0.010721   119.869230
	   43 B(6,12,7)       =    115.434472     0.000003     0.007822   115.442294
	   44 B(7,4,9)        =    120.611906     0.000000    -0.001411   120.610494
	   45 B(7,4,18)       =    119.838420    -0.000003    -0.019394   119.819026
	   46 B(8,1,15)       =    117.818500     0.000004     0.011310   117.829810
	   47 B(8,11,14)      =    117.711404     0.000001     0.007954   117.719358
	   48 B(9,3,17)       =    119.809672     0.000001     0.003853   119.813525
	   49 B(9,4,18)       =    119.540972     0.000003     0.020512   119.561483
	   50 B(9,8,11)       =    123.864415     0.000009     0.042113   123.906528
	   51 B(10,2,16)      =    117.101068     0.000007     0.032700   117.133768
	   52 B(10,5,11)      =    121.682629     0.000004     0.016821   121.699450
	   53 B(10,5,19)      =    118.764562     0.000002     0.012785   118.777347
	   54 B(11,5,19)      =    119.551864    -0.000006    -0.029774   119.522090
	   55 B(12,6,20)      =    115.951191     0.000001     0.004818   115.956009
	   56 B(12,7,21)      =    116.077407     0.000001     0.002558   116.079965
	   57 D(1,2,10,5)     =      0.934041     0.000000     0.021545     0.955586
	   58 D(1,2,10,13)    =   -179.424968     0.000001     0.049012  -179.375956
	   59 D(1,8,9,3)      =    135.730089     0.000004     0.099388   135.829477
	   60 D(1,8,9,4)      =    -39.018148     0.000000    -0.079330   -39.097478
	   61 D(1,8,11,5)     =      2.141534    -0.000001     0.024091     2.165625
	   62 D(1,8,11,14)    =    179.886939    -0.000002    -0.057534   179.829405
	   63 D(2,1,8,9)      =   -176.032194     0.000000     0.075391  -175.956803
	   64 D(2,1,8,11)     =     -1.083768     0.000001     0.007450    -1.076318
	   65 D(2,10,5,11)    =      0.058029     0.000000     0.009038     0.067067
	   66 D(2,10,5,19)    =   -179.586662     0.000001     0.039402  -179.547261
	   67 D(3,6,12,7)     =     -0.135026     0.000000     0.010710    -0.124316
	   68 D(3,9,4,7)      =      0.594521    -0.000001    -0.087528     0.506993
	   69 D(3,9,4,18)     =    179.519687    -0.000002    -0.105725   179.413963
	   70 D(3,9,8,11)     =    -38.727766     0.000003     0.176689   -38.551076
	   71 D(4,7,12,6)     =     -0.416068     0.000000     0.001506    -0.414562
	   72 D(4,9,3,6)      =     -1.098472     0.000002     0.098325    -1.000147
	   73 D(4,9,3,17)     =    178.499666     0.000001     0.026864   178.526530
	   74 D(4,9,8,11)     =    146.523998    -0.000001    -0.002029   146.521969
	   75 D(5,10,2,16)    =   -178.108668    -0.000000     0.002766  -178.105902
	   76 D(5,11,8,9)     =    176.956121     0.000000    -0.051046   176.905075
	   77 D(6,3,9,8)      =   -176.148352    -0.000001    -0.070711  -176.219064
	   78 D(6,12,7,21)    =   -179.877698     0.000001     0.030718  -179.846980
	   79 D(7,4,9,8)      =    175.759250     0.000002     0.077348   175.836597
	   80 D(7,12,6,20)    =   -179.293229     0.000000     0.030721  -179.262508
	   81 D(8,1,2,10)     =     -0.410900    -0.000001    -0.030939    -0.441838
	   82 D(8,1,2,16)     =    178.603100    -0.000001    -0.011097   178.592003
	   83 D(8,9,3,17)     =      3.449786    -0.000003    -0.142173     3.307613
	   84 D(8,9,4,18)     =     -5.315584     0.000001     0.059151    -5.256433
	   85 D(8,11,5,10)    =     -1.684451    -0.000000    -0.033372    -1.717823
	   86 D(8,11,5,19)    =    177.957505    -0.000000    -0.063807   177.893699
	   87 D(9,3,6,12)     =      0.929638    -0.000001    -0.064478     0.865161
	   88 D(9,3,6,20)     =   -179.940927    -0.000002    -0.085128  -180.026055
	   89 D(9,4,7,12)     =      0.170047     0.000000     0.040235     0.210282
	   90 D(9,4,7,21)     =    179.613040    -0.000000     0.010015   179.623055
	   91 D(9,8,1,15)     =      1.846441    -0.000001     0.016906     1.863347
	   92 D(9,8,11,14)    =     -5.298474    -0.000001    -0.132671    -5.431145
	   93 D(10,2,1,15)    =   -178.261558     0.000000     0.027811  -178.233747
	   94 D(10,5,11,14)   =   -179.432338     0.000001     0.048053  -179.384285
	   95 D(11,5,10,13)   =   -179.584725    -0.000000    -0.018279  -179.603004
	   96 D(11,8,1,15)    =    176.794867     0.000000    -0.051035   176.743832
	   97 D(12,6,3,17)    =   -178.668217    -0.000000     0.006965  -178.661252
	   98 D(12,7,4,18)    =   -178.751933     0.000001     0.058051  -178.693882
	   99 D(13,10,2,16)   =      1.532323     0.000001     0.030233     1.562555
	  100 D(13,10,5,19)   =      0.770584     0.000000     0.012085     0.782669
	  101 D(14,11,5,19)   =      0.209618     0.000000     0.017618     0.227236
	  102 D(15,1,2,16)    =      0.752442     0.000000     0.047652     0.800094
	  103 D(17,3,6,20)    =      0.461218    -0.000000    -0.013686     0.447532
	  104 D(18,4,7,21)    =      0.691060     0.000001     0.027831     0.718891
	  105 R(3,14)         =      2.882637     0.000555     0.000448     2.883085
	  106 R(1,X)          =     -1.383134    -0.000437    -0.000288    -1.383422
	  107 R(1,Y)          =      0.656258    -0.000478    -0.000455     0.655802
	  108 R(1,Z)          =     -0.737853     0.000572     0.000292    -0.737562
	  109 R(2,X)          =     -2.433508    -0.000321    -0.000046    -2.433553
	  110 R(2,Y)          =      1.285760    -0.000076     0.000033     1.285793
	  111 R(2,Z)          =     -0.114061     0.000678     0.000183    -0.113879
	  112 R(3,X)          =      2.141840     0.000207     0.000068     2.141908
	  113 R(3,Y)          =     -0.302807    -0.000906    -0.000409    -0.303217
	  114 R(3,Z)          =     -0.331624    -0.000356     0.000002    -0.331622
	  115 R(4,X)          =      0.649269     0.000309     0.000065     0.649334
	  116 R(4,Y)          =     -1.240586     0.000658     0.000407    -1.240179
	  117 R(4,Z)          =     -1.903261    -0.000237    -0.000145    -1.903406
	  118 R(5,X)          =     -1.433273    -0.000005     0.000129    -1.433143
	  119 R(5,Y)          =      0.798525     0.000430     0.000385     0.798911
	  120 R(5,Z)          =      2.016976    -0.000919    -0.000311     2.016665
	  121 R(6,X)          =      3.179121    -0.000560    -0.000097     3.179024
	  122 R(6,Y)          =     -0.824861    -0.000427    -0.000194    -0.825055
	  123 R(6,Z)          =     -1.083909    -0.000202     0.000061    -1.083849
	  124 R(7,X)          =      1.748903    -0.000523    -0.000120     1.748783
	  125 R(7,Y)          =     -1.715146     0.000716     0.000379    -1.714767
	  126 R(7,Z)          =     -2.596484     0.000311     0.000027    -2.596457
	  127 R(8,X)          =     -0.315927     0.000485    -0.000073    -0.316000
	  128 R(8,Y)          =      0.069363     0.000512    -0.000231     0.069132
	  129 R(8,Z)          =     -0.034076     0.001769     0.000446    -0.033630
	  130 R(9,X)          =      0.813152     0.000261     0.000106     0.813258
	  131 R(9,Y)          =     -0.509695     0.000529     0.000872    -0.508823
	  132 R(9,Z)          =     -0.720746    -0.001112    -0.000648    -0.721394
	  133 R(10,X)         =     -2.536813     0.000579     0.000248    -2.536565
	  134 R(10,Y)         =      1.391567    -0.000070     0.000165     1.391731
	  135 R(10,Z)         =      1.315693    -0.000471    -0.000148     1.315545
	  136 R(11,X)         =     -0.399288     0.000515     0.000253    -0.399034
	  137 R(11,Y)         =      0.199794     0.000427     0.000403     0.200197
	  138 R(11,Z)         =      1.353243     0.000025     0.000051     1.353294
	  139 R(12,X)         =      3.017155    -0.000305    -0.000131     3.017024
	  140 R(12,Y)         =     -1.528555     0.000991     0.000185    -1.528370
	  141 R(12,Z)         =     -2.212550     0.001260     0.000268    -2.212282
	  142 R(13,X)         =     -3.499325     0.000579     0.000102    -3.499223
	  143 R(13,Y)         =      1.956684    -0.000383    -0.000212     1.956472
	  144 R(13,Z)         =      1.902555    -0.000393    -0.000118     1.902437
	  145 R(14,X)         =      0.606402    -0.001159    -0.000557     0.605845
	  146 R(14,Y)         =     -0.350711     0.000570    -0.000154    -0.350865
	  147 R(14,Z)         =      2.107582    -0.000531     0.000144     2.107726
	  148 R(15,X)         =     -1.347764    -0.000639    -0.000276    -1.348040
	  149 R(15,Y)         =      0.634191    -0.000487    -0.000136     0.634055
	  150 R(15,Z)         =     -1.820132     0.000691     0.000338    -1.819793
	  151 R(16,X)         =     -3.219535     0.000248     0.000194    -3.219341
	  152 R(16,Y)         =      1.741673    -0.000644    -0.000206     1.741467
	  153 R(16,Z)         =     -0.699708    -0.000169    -0.000203    -0.699911
	  154 R(17,X)         =      2.357511     0.000361     0.000225     2.357736
	  155 R(17,Y)         =      0.271748    -0.001412    -0.000552     0.271196
	  156 R(17,Z)         =      0.555223    -0.000425    -0.000114     0.555109
	  157 R(18,X)         =     -0.346273     0.000462     0.000194    -0.346078
	  158 R(18,Y)         =     -1.449501    -0.000188    -0.000371    -1.449872
	  159 R(18,Z)         =     -2.266587    -0.000394    -0.000034    -2.266622
	  160 R(19,X)         =     -1.429171     0.000311     0.000147    -1.429023
	  161 R(19,Y)         =      0.824697    -0.000121    -0.000138     0.824558
	  162 R(19,Z)         =      3.095934    -0.000971    -0.000378     3.095556
	  163 R(20,X)         =      4.202285    -0.000257    -0.000063     4.202222
	  164 R(20,Y)         =     -0.658738    -0.000248     0.000063    -0.658674
	  165 R(20,Z)         =     -0.771959     0.000001    -0.000062    -0.772021
	  166 R(21,X)         =      1.605863    -0.000110    -0.000083     1.605780
	  167 R(21,Y)         =     -2.284501     0.000608     0.000168    -2.284332
	  168 R(21,Z)         =     -3.506589     0.000871     0.000351    -3.506237
	 ---------------------------------------------------------------------------
	Successfully symmetrized geometry.
	 Forces used to impose fixed constraints are not included.
	  Forces zeroed: 59 

  ==> Convergence Check <==

  Measures of convergence in internal coordinates in au.
  Criteria marked as inactive (o), active & met (*), and active & unmet ( ).
  --------------------------------------------------------------------------------------------- ~
   Step     Total Energy     Delta E     MAX Force     RMS Force      MAX Disp      RMS Disp    ~
  --------------------------------------------------------------------------------------------- ~
    Convergence Criteria    1.00e-06 *    3.00e-04 *             o    1.20e-03 *             o  ~
  --------------------------------------------------------------------------------------------- ~
      1    -652.33473000   -6.52e+02      2.44e-04 *    7.20e-05 o    3.08e-03      6.85e-04 o  ~
  ---------------------------------------------------------------------------------------------

	Writing optimization data to binary file.
	
Fatal Error: PSIO Error
Error occurred in file: /scratch/psilocaluser/conda-builds/psi4_1495011512596/work/psi4/src/psi4/libpsio/error.cc on line: 129
The most recent 5 function calls were:

psi::PsiException::PsiException(std::__cxx11::basic_string<char, std::char_traits<char>, std::allocator<char> >, char const*, int)
psi::psio_error(unsigned int, unsigned int)
psi::PSIO::write(unsigned int, char const*, char*, unsigned long, psi::psio_address, psi::psio_address*)
psi::PSIO::write_entry(unsigned int, char const*, char*, unsigned long)
psi::psio_write_entry(unsigned int, char const*, char*, unsigned long)
