
    -----------------------------------------------------------------------
          Psi4: An Open-Source Ab Initio Electronic Structure Package
                               Psi4 1.1 release

                         Git: Rev {HEAD} add49b9 


    R. M. Parrish, L. A. Burns, D. G. A. Smith, A. C. Simmonett,
    A. E. DePrince III, E. G. Hohenstein, U. Bozkaya, A. Yu. Sokolov,
    R. Di Remigio, R. M. Richard, J. F. Gonthier, A. M. James,
    H. R. McAlexander, A. Kumar, M. Saitow, X. Wang, B. P. Pritchard,
    P. Verma, H. F. Schaefer III, K. Patkowski, R. A. King, E. F. Valeev,
    F. A. Evangelista, J. M. Turney, T. D. Crawford, and C. D. Sherrill,
    J. Chem. Theory Comput. in press (2017).
    (doi: 10.1021/acs.jctc.7b00174)

    -----------------------------------------------------------------------


    Psi4 started on: Saturday, 11 November 2017 07:42PM

    Process ID:  21728
    PSIDATADIR: /cbio/jclab/home/chayas/anaconda/envs/py35/share/psi4
    Memory:     500.0 MiB
    Threads:    8
    
  ==> Input File <==

--------------------------------------------------------------------------

memory 5 Gb

molecule phepyrFOH_neutral {
  symmetry C1
  0 1 
  C      1.885   -1.036   -0.112
  C      0.807   -0.463   0.561
  C      5.266   -1.574   -0.130
  C      3.887   -3.449   -0.737
  C      1.800   -1.079   2.676
  C      6.304   -2.185   -0.815
  C      4.986   -3.976   -1.395
  C      2.921   -1.631   0.608
  C      4.038   -2.225   -0.095
  C      0.764   -0.484   1.955
  C      2.878   -1.652   2.002
  N      6.196   -3.373   -1.450
  O      -0.289   0.076   2.612
  F      3.866   -2.220   2.709
  H      1.904   -1.012   -1.199
  H      0.002   -0.002   -0.006
  H      5.423   -0.619   0.360
  H      2.943   -3.985   -0.732
  H      1.772   -1.099   3.762
  H      7.283   -1.720   -0.870
  H      4.920   -4.927   -1.912
  H      -0.175   -0.018   3.571
  units Angstrom
}

dih_string = "1 8 9 3 105"
set optking fixed_dihedral = $dih_string

optimize('MP2/aug-cc-PVTZ')
--------------------------------------------------------------------------

  Memory set to   4.657 GiB by Python driver.
gradient() will perform analytic gradient computation.

*** tstart() called on gpu-1-14.local
*** at Sat Nov 11 19:42:00 2017

    SCF Algorithm Type (re)set to DF.

*** tstart() called on gpu-1-14.local
*** at Sat Nov 11 19:42:00 2017

   => Loading Basis Set <=

    Name: AUG-CC-PVTZ
    Role: ORBITAL
    Keyword: BASIS
    atoms 1-11  entry C          line   221 file /cbio/jclab/home/chayas/anaconda/envs/py35/share/psi4/basis/aug-cc-pvtz.gbs 
    atoms 12    entry N          line   267 file /cbio/jclab/home/chayas/anaconda/envs/py35/share/psi4/basis/aug-cc-pvtz.gbs 
    atoms 13    entry O          line   313 file /cbio/jclab/home/chayas/anaconda/envs/py35/share/psi4/basis/aug-cc-pvtz.gbs 
    atoms 14    entry F          line   359 file /cbio/jclab/home/chayas/anaconda/envs/py35/share/psi4/basis/aug-cc-pvtz.gbs 
    atoms 15-22 entry H          line    34 file /cbio/jclab/home/chayas/anaconda/envs/py35/share/psi4/basis/aug-cc-pvtz.gbs 


         ---------------------------------------------------------
                                   SCF
            by Justin Turney, Rob Parrish, and Andy Simmonett
                              RHF Reference
                        8 Threads,   4768 MiB Core
         ---------------------------------------------------------

  ==> Geometry <==

    Molecular point group: c1
    Full point group: C1

    Geometry (in Angstrom), charge = 0, multiplicity = 1:

       Center              X                  Y                   Z               Mass       
    ------------   -----------------  -----------------  -----------------  -----------------
           C         -1.321833488820     0.755652018622    -0.800431712290    12.000000000000
           C         -2.399833488820     1.328652018622    -0.127431712290    12.000000000000
           C          2.059166511180     0.217652018622    -0.818431712290    12.000000000000
           C          0.680166511180    -1.657347981378    -1.425431712290    12.000000000000
           C         -1.406833488820     0.712652018622     1.987568287710    12.000000000000
           C          3.097166511180    -0.393347981378    -1.503431712290    12.000000000000
           C          1.779166511180    -2.184347981378    -2.083431712290    12.000000000000
           C         -0.285833488820     0.160652018622    -0.080431712290    12.000000000000
           C          0.831166511180    -0.433347981378    -0.783431712290    12.000000000000
           C         -2.442833488820     1.307652018622     1.266568287710    12.000000000000
           C         -0.328833488820     0.139652018622     1.313568287710    12.000000000000
           N          2.989166511180    -1.581347981378    -2.138431712290    14.003074004780
           O         -3.495833488820     1.867652018622     1.923568287710    15.994914619560
           F          0.659166511180    -0.428347981378     2.020568287710    18.998403224000
           H         -1.302833488820     0.779652018622    -1.887431712290     1.007825032070
           H         -3.204833488820     1.789652018622    -0.694431712290     1.007825032070
           H          2.216166511180     1.172652018622    -0.328431712290     1.007825032070
           H         -0.263833488820    -2.193347981378    -1.420431712290     1.007825032070
           H         -1.434833488820     0.692652018622     3.073568287710     1.007825032070
           H          4.076166511180     0.071652018622    -1.558431712290     1.007825032070
           H          1.713166511180    -3.135347981378    -2.600431712290     1.007825032070
           H         -3.381833488820     1.773652018622     2.882568287710     1.007825032070

  Running in c1 symmetry.

  Rotational constants: A =      0.06327  B =      0.01287  C =      0.01182 [cm^-1]
  Rotational constants: A =   1896.87140  B =    385.88615  C =    354.29108 [MHz]
  Nuclear repulsion =  813.248612058071103

  Charge       = 0
  Multiplicity = 1
  Electrons    = 98
  Nalpha       = 49
  Nbeta        = 49

  ==> Algorithm <==

  SCF Algorithm Type is DF.
  DIIS enabled.
  MOM disabled.
  Fractional occupation disabled.
  Guess Type is SAD.
  Energy threshold   = 1.00e-10
  Density threshold  = 1.00e-10
  Integral threshold = 0.00e+00

  ==> Primary Basis <==

  Basis Set: AUG-CC-PVTZ
    Blend: AUG-CC-PVTZ
    Number of shells: 268
    Number of basis function: 828
    Number of Cartesian functions: 970
    Spherical Harmonics?: true
    Max angular momentum: 3

   => Loading Basis Set <=

    Name: (AUG-CC-PVTZ AUX)
    Role: JKFIT
    Keyword: DF_BASIS_SCF
    atoms 1-11  entry C          line   161 file /cbio/jclab/home/chayas/anaconda/envs/py35/share/psi4/basis/aug-cc-pvtz-jkfit.gbs 
    atoms 12    entry N          line   223 file /cbio/jclab/home/chayas/anaconda/envs/py35/share/psi4/basis/aug-cc-pvtz-jkfit.gbs 
    atoms 13    entry O          line   285 file /cbio/jclab/home/chayas/anaconda/envs/py35/share/psi4/basis/aug-cc-pvtz-jkfit.gbs 
    atoms 14    entry F          line   347 file /cbio/jclab/home/chayas/anaconda/envs/py35/share/psi4/basis/aug-cc-pvtz-jkfit.gbs 
    atoms 15-22 entry H          line    69 file /cbio/jclab/home/chayas/anaconda/envs/py35/share/psi4/basis/aug-cc-pvtz-jkfit.gbs 

  ==> Pre-Iterations <==

   -------------------------------------------------------
    Irrep   Nso     Nmo     Nalpha   Nbeta   Ndocc  Nsocc
   -------------------------------------------------------
     A        828     828       0       0       0       0
   -------------------------------------------------------
    Total     828     828      49      49      49       0
   -------------------------------------------------------

  ==> Integral Setup <==

  ==> DFJK: Density-Fitted J/K Matrices <==

    J tasked:                  Yes
    K tasked:                  Yes
    wK tasked:                  No
    OpenMP threads:              8
    Integrals threads:           8
    Memory (MB):              3576
    Algorithm:                Disk
    Integral Cache:           NONE
    Schwarz Cutoff:          1E-12
    Fitting Condition:       1E-12

   => Auxiliary Basis Set <=

  Basis Set: (AUG-CC-PVTZ AUX)
    Blend: AUG-CC-PVTZ-JKFIT
    Number of shells: 532
    Number of basis function: 1824
    Number of Cartesian functions: 2274
    Spherical Harmonics?: true
    Max angular momentum: 4

  Minimum eigenvalue in the overlap matrix is 7.2455537690E-07.
  Using Symmetric Orthogonalization.

  SCF Guess: Superposition of Atomic Densities via on-the-fly atomic UHF.

  ==> Iterations <==

                           Total Energy        Delta E     RMS |[F,P]|

   @DF-RHF iter   0:  -656.72555981893174   -6.56726e+02   1.54078e-02 
   @DF-RHF iter   1:  -649.82675331917801    6.89881e+00   2.13553e-03 
   @DF-RHF iter   2:  -650.12147507811142   -2.94722e-01   6.93783e-04 DIIS
   @DF-RHF iter   3:  -650.15926185802493   -3.77868e-02   4.13182e-04 DIIS
   @DF-RHF iter   4:  -650.17082252189402   -1.15607e-02   1.38575e-04 DIIS
   @DF-RHF iter   5:  -650.17229523593028   -1.47271e-03   4.76113e-05 DIIS
   @DF-RHF iter   6:  -650.17254099910735   -2.45763e-04   1.99548e-05 DIIS
   @DF-RHF iter   7:  -650.17258678441169   -4.57853e-05   7.09399e-06 DIIS
   @DF-RHF iter   8:  -650.17259292212884   -6.13772e-06   2.56912e-06 DIIS
   @DF-RHF iter   9:  -650.17259461477158   -1.69264e-06   1.37939e-06 DIIS
   @DF-RHF iter  10:  -650.17259515539467   -5.40623e-07   5.27930e-07 DIIS
   @DF-RHF iter  11:  -650.17259523434416   -7.89495e-08   1.69494e-07 DIIS
   @DF-RHF iter  12:  -650.17259524047904   -6.13488e-09   5.17623e-08 DIIS
   @DF-RHF iter  13:  -650.17259524092765   -4.48608e-10   2.59492e-08 DIIS
   @DF-RHF iter  14:  -650.17259524101246   -8.48104e-11   8.30544e-09 DIIS
   @DF-RHF iter  15:  -650.17259524102985   -1.73941e-11   4.37828e-09 DIIS
   @DF-RHF iter  16:  -650.17259524104497   -1.51203e-11   2.06549e-09 DIIS
   @DF-RHF iter  17:  -650.17259524103235    1.26192e-11   7.84838e-10 DIIS
   @DF-RHF iter  18:  -650.17259524102792    4.43379e-12   3.55347e-10 DIIS
   @DF-RHF iter  19:  -650.17259524102701    9.09495e-13   1.34247e-10 DIIS
   @DF-RHF iter  20:  -650.17259524102997   -2.95586e-12   5.74230e-11 DIIS

  ==> Post-Iterations <==

    Orbital Energies (a.u.)
    -----------------------

    Doubly Occupied:                                                      

       1A    -26.326555     2A    -20.608422     3A    -15.566528  
       4A    -11.348795     5A    -11.326873     6A    -11.275638  
       7A    -11.275188     8A    -11.265580     9A    -11.264532  
      10A    -11.253538    11A    -11.252185    12A    -11.245184  
      13A    -11.240120    14A    -11.239418    15A     -1.644437  
      16A     -1.423081    17A     -1.251184    18A     -1.181116  
      19A     -1.110111    20A     -1.040199    21A     -1.035560  
      22A     -1.019392    23A     -0.891283    24A     -0.874496  
      25A     -0.856117    26A     -0.824497    27A     -0.772579  
      28A     -0.746250    29A     -0.725544    30A     -0.710608  
      31A     -0.695853    32A     -0.666266    33A     -0.660530  
      34A     -0.642653    35A     -0.635772    36A     -0.613807  
      37A     -0.607879    38A     -0.600104    39A     -0.577807  
      40A     -0.542857    41A     -0.533004    42A     -0.531068  
      43A     -0.525060    44A     -0.492657    45A     -0.420181  
      46A     -0.380500    47A     -0.360242    48A     -0.349367  
      49A     -0.329547  

    Virtual:                                                              

      50A      0.021943    51A      0.029537    52A      0.034469  
      53A      0.035697    54A      0.044599    55A      0.047879  
      56A      0.051611    57A      0.053861    58A      0.076324  
      59A      0.082089    60A      0.085631    61A      0.086993  
      62A      0.091826    63A      0.094804    64A      0.098064  
      65A      0.102504    66A      0.105553    67A      0.108015  
      68A      0.109802    69A      0.112284    70A      0.113324  
      71A      0.119686    72A      0.120083    73A      0.125039  
      74A      0.128583    75A      0.131743    76A      0.133250  
      77A      0.135090    78A      0.139725    79A      0.141401  
      80A      0.143349    81A      0.146997    82A      0.151296  
      83A      0.155987    84A      0.156628    85A      0.166147  
      86A      0.169240    87A      0.174535    88A      0.185942  
      89A      0.188080    90A      0.192345    91A      0.196344  
      92A      0.204872    93A      0.210848    94A      0.217375  
      95A      0.226752    96A      0.230342    97A      0.234111  
      98A      0.237030    99A      0.239450   100A      0.241663  
     101A      0.243288   102A      0.252113   103A      0.257311  
     104A      0.258521   105A      0.259156   106A      0.263380  
     107A      0.264532   108A      0.269959   109A      0.275905  
     110A      0.282287   111A      0.282895   112A      0.283356  
     113A      0.291856   114A      0.294335   115A      0.300193  
     116A      0.303189   117A      0.309487   118A      0.312133  
     119A      0.316080   120A      0.318020   121A      0.323002  
     122A      0.328019   123A      0.330083   124A      0.334216  
     125A      0.337874   126A      0.341556   127A      0.344109  
     128A      0.350105   129A      0.353047   130A      0.363378  
     131A      0.367688   132A      0.377099   133A      0.380274  
     134A      0.385753   135A      0.390787   136A      0.395562  
     137A      0.400387   138A      0.406008   139A      0.409338  
     140A      0.410502   141A      0.416237   142A      0.418763  
     143A      0.423086   144A      0.427467   145A      0.431676  
     146A      0.436263   147A      0.437788   148A      0.440330  
     149A      0.447912   150A      0.450033   151A      0.458397  
     152A      0.462151   153A      0.463758   154A      0.470171  
     155A      0.470895   156A      0.476066   157A      0.479866  
     158A      0.482606   159A      0.486390   160A      0.489676  
     161A      0.495160   162A      0.497947   163A      0.501177  
     164A      0.503944   165A      0.506062   166A      0.509534  
     167A      0.513995   168A      0.514987   169A      0.518794  
     170A      0.523840   171A      0.525476   172A      0.529053  
     173A      0.535196   174A      0.542801   175A      0.543749  
     176A      0.549151   177A      0.551326   178A      0.556640  
     179A      0.561092   180A      0.563916   181A      0.571649  
     182A      0.575448   183A      0.581022   184A      0.586403  
     185A      0.589994   186A      0.595860   187A      0.605947  
     188A      0.615994   189A      0.618648   190A      0.625503  
     191A      0.628981   192A      0.634580   193A      0.636922  
     194A      0.638638   195A      0.641719   196A      0.656478  
     197A      0.667210   198A      0.670942   199A      0.677034  
     200A      0.680304   201A      0.690558   202A      0.694366  
     203A      0.696980   204A      0.701904   205A      0.708485  
     206A      0.715468   207A      0.726335   208A      0.730027  
     209A      0.730957   210A      0.734268   211A      0.739224  
     212A      0.745164   213A      0.751992   214A      0.759984  
     215A      0.763319   216A      0.769652   217A      0.774924  
     218A      0.779382   219A      0.783791   220A      0.788271  
     221A      0.790094   222A      0.798805   223A      0.804497  
     224A      0.807866   225A      0.814632   226A      0.823634  
     227A      0.826379   228A      0.835195   229A      0.843983  
     230A      0.846748   231A      0.850029   232A      0.856681  
     233A      0.867534   234A      0.875464   235A      0.882273  
     236A      0.883320   237A      0.889061   238A      0.893398  
     239A      0.897797   240A      0.902186   241A      0.905733  
     242A      0.909826   243A      0.917093   244A      0.920024  
     245A      0.921398   246A      0.931203   247A      0.935946  
     248A      0.939007   249A      0.939920   250A      0.946067  
     251A      0.948841   252A      0.949800   253A      0.956519  
     254A      0.959445   255A      0.963074   256A      0.969973  
     257A      0.975199   258A      0.981715   259A      0.988693  
     260A      0.993595   261A      0.997610   262A      1.004194  
     263A      1.005652   264A      1.009958   265A      1.015626  
     266A      1.017723   267A      1.022795   268A      1.024045  
     269A      1.028740   270A      1.038862   271A      1.043464  
     272A      1.046813   273A      1.048870   274A      1.050474  
     275A      1.061692   276A      1.069377   277A      1.071040  
     278A      1.074893   279A      1.080120   280A      1.086185  
     281A      1.089084   282A      1.091253   283A      1.097485  
     284A      1.100416   285A      1.105920   286A      1.108991  
     287A      1.115753   288A      1.128264   289A      1.134404  
     290A      1.136336   291A      1.140712   292A      1.144740  
     293A      1.147798   294A      1.152519   295A      1.157104  
     296A      1.162952   297A      1.170095   298A      1.175103  
     299A      1.177355   300A      1.187242   301A      1.188339  
     302A      1.190573   303A      1.193182   304A      1.200586  
     305A      1.206200   306A      1.213384   307A      1.215106  
     308A      1.218450   309A      1.221103   310A      1.232612  
     311A      1.237022   312A      1.240260   313A      1.253228  
     314A      1.256087   315A      1.262920   316A      1.271085  
     317A      1.279425   318A      1.282099   319A      1.286786  
     320A      1.290828   321A      1.300109   322A      1.304006  
     323A      1.310323   324A      1.315129   325A      1.321963  
     326A      1.325765   327A      1.329043   328A      1.338345  
     329A      1.346172   330A      1.360230   331A      1.369003  
     332A      1.371846   333A      1.382110   334A      1.383619  
     335A      1.388068   336A      1.403300   337A      1.410641  
     338A      1.415624   339A      1.420507   340A      1.426169  
     341A      1.430180   342A      1.435802   343A      1.446503  
     344A      1.462637   345A      1.473455   346A      1.478519  
     347A      1.483348   348A      1.494383   349A      1.498166  
     350A      1.508673   351A      1.513346   352A      1.520797  
     353A      1.526300   354A      1.540220   355A      1.545642  
     356A      1.559281   357A      1.562168   358A      1.570100  
     359A      1.574725   360A      1.584350   361A      1.590012  
     362A      1.597995   363A      1.604268   364A      1.613208  
     365A      1.617543   366A      1.624424   367A      1.626418  
     368A      1.638875   369A      1.646551   370A      1.656980  
     371A      1.666783   372A      1.671747   373A      1.675785  
     374A      1.685017   375A      1.688448   376A      1.698290  
     377A      1.707104   378A      1.717232   379A      1.722285  
     380A      1.727614   381A      1.735353   382A      1.742521  
     383A      1.746322   384A      1.751948   385A      1.763590  
     386A      1.767911   387A      1.775901   388A      1.778684  
     389A      1.787358   390A      1.797512   391A      1.803012  
     392A      1.810218   393A      1.815281   394A      1.827696  
     395A      1.830870   396A      1.847384   397A      1.851037  
     398A      1.867502   399A      1.870639   400A      1.880200  
     401A      1.884467   402A      1.892364   403A      1.896097  
     404A      1.905567   405A      1.911487   406A      1.917926  
     407A      1.926638   408A      1.932439   409A      1.940756  
     410A      1.945006   411A      1.960106   412A      1.960584  
     413A      1.975090   414A      1.982493   415A      1.986018  
     416A      2.003699   417A      2.015757   418A      2.021078  
     419A      2.023757   420A      2.033717   421A      2.042030  
     422A      2.048195   423A      2.060870   424A      2.065183  
     425A      2.068691   426A      2.078614   427A      2.092732  
     428A      2.095464   429A      2.099624   430A      2.104950  
     431A      2.113333   432A      2.121836   433A      2.129283  
     434A      2.133151   435A      2.141711   436A      2.144459  
     437A      2.157491   438A      2.161560   439A      2.175045  
     440A      2.183760   441A      2.188900   442A      2.197166  
     443A      2.205331   444A      2.215126   445A      2.223147  
     446A      2.229024   447A      2.242472   448A      2.249681  
     449A      2.261363   450A      2.271045   451A      2.279486  
     452A      2.283908   453A      2.295014   454A      2.309063  
     455A      2.317101   456A      2.328609   457A      2.341564  
     458A      2.346272   459A      2.351891   460A      2.363303  
     461A      2.372448   462A      2.378700   463A      2.395878  
     464A      2.409866   465A      2.418615   466A      2.426222  
     467A      2.434051   468A      2.447146   469A      2.453356  
     470A      2.461959   471A      2.484530   472A      2.500691  
     473A      2.513307   474A      2.535296   475A      2.545306  
     476A      2.554726   477A      2.570027   478A      2.574445  
     479A      2.580147   480A      2.588583   481A      2.594616  
     482A      2.598847   483A      2.605918   484A      2.629453  
     485A      2.636209   486A      2.653598   487A      2.665116  
     488A      2.680139   489A      2.706411   490A      2.724031  
     491A      2.742726   492A      2.753511   493A      2.759659  
     494A      2.806969   495A      2.814225   496A      2.822509  
     497A      2.825817   498A      2.840894   499A      2.850392  
     500A      2.868166   501A      2.885583   502A      2.894657  
     503A      2.910640   504A      2.952913   505A      2.959097  
     506A      2.991739   507A      3.020500   508A      3.026191  
     509A      3.044177   510A      3.048471   511A      3.065325  
     512A      3.068979   513A      3.086859   514A      3.124959  
     515A      3.139613   516A      3.154562   517A      3.170805  
     518A      3.173646   519A      3.180204   520A      3.185863  
     521A      3.202521   522A      3.209877   523A      3.228243  
     524A      3.243166   525A      3.254422   526A      3.265005  
     527A      3.284028   528A      3.295508   529A      3.298730  
     530A      3.316658   531A      3.331787   532A      3.348069  
     533A      3.353233   534A      3.375137   535A      3.386760  
     536A      3.391859   537A      3.404637   538A      3.414113  
     539A      3.418640   540A      3.430984   541A      3.439064  
     542A      3.442045   543A      3.451408   544A      3.459599  
     545A      3.467180   546A      3.473407   547A      3.483724  
     548A      3.494712   549A      3.501594   550A      3.512594  
     551A      3.519232   552A      3.529736   553A      3.537642  
     554A      3.542137   555A      3.547217   556A      3.556506  
     557A      3.560636   558A      3.576485   559A      3.584651  
     560A      3.588905   561A      3.603473   562A      3.610958  
     563A      3.618988   564A      3.626857   565A      3.633795  
     566A      3.640036   567A      3.642730   568A      3.659334  
     569A      3.660375   570A      3.672017   571A      3.684423  
     572A      3.693161   573A      3.709231   574A      3.716107  
     575A      3.720547   576A      3.746203   577A      3.746524  
     578A      3.747887   579A      3.764164   580A      3.768954  
     581A      3.780399   582A      3.793303   583A      3.800304  
     584A      3.807509   585A      3.813378   586A      3.824557  
     587A      3.830204   588A      3.843218   589A      3.852717  
     590A      3.856917   591A      3.874552   592A      3.880787  
     593A      3.890707   594A      3.899526   595A      3.904334  
     596A      3.914074   597A      3.926422   598A      3.927410  
     599A      3.933419   600A      3.936646   601A      3.945718  
     602A      3.948697   603A      3.957538   604A      3.964093  
     605A      3.977391   606A      3.985880   607A      4.003281  
     608A      4.011588   609A      4.034114   610A      4.036194  
     611A      4.047742   612A      4.051509   613A      4.066817  
     614A      4.072421   615A      4.076437   616A      4.083183  
     617A      4.088857   618A      4.097642   619A      4.112423  
     620A      4.119568   621A      4.134301   622A      4.137471  
     623A      4.144739   624A      4.158236   625A      4.167085  
     626A      4.178212   627A      4.185375   628A      4.192155  
     629A      4.206509   630A      4.212398   631A      4.213848  
     632A      4.224090   633A      4.241032   634A      4.243481  
     635A      4.247945   636A      4.258988   637A      4.267330  
     638A      4.276078   639A      4.288939   640A      4.297954  
     641A      4.306162   642A      4.313043   643A      4.324171  
     644A      4.329161   645A      4.348936   646A      4.357291  
     647A      4.365901   648A      4.369490   649A      4.378305  
     650A      4.393851   651A      4.406898   652A      4.417420  
     653A      4.425847   654A      4.428376   655A      4.437464  
     656A      4.439160   657A      4.449984   658A      4.455300  
     659A      4.461351   660A      4.466723   661A      4.497037  
     662A      4.509407   663A      4.510315   664A      4.524088  
     665A      4.527650   666A      4.543670   667A      4.554781  
     668A      4.572208   669A      4.575483   670A      4.591670  
     671A      4.600415   672A      4.601561   673A      4.622011  
     674A      4.635352   675A      4.654902   676A      4.674858  
     677A      4.684479   678A      4.695573   679A      4.697647  
     680A      4.720295   681A      4.738714   682A      4.741099  
     683A      4.759186   684A      4.771650   685A      4.783766  
     686A      4.799594   687A      4.815384   688A      4.841850  
     689A      4.850431   690A      4.879054   691A      4.893774  
     692A      4.901893   693A      4.905074   694A      4.929145  
     695A      4.946743   696A      4.957493   697A      4.967856  
     698A      4.972268   699A      4.982115   700A      4.987050  
     701A      5.020380   702A      5.022988   703A      5.030550  
     704A      5.038962   705A      5.047983   706A      5.060465  
     707A      5.074974   708A      5.094609   709A      5.101177  
     710A      5.109769   711A      5.125007   712A      5.133138  
     713A      5.144185   714A      5.158438   715A      5.164671  
     716A      5.172415   717A      5.180095   718A      5.188540  
     719A      5.194493   720A      5.200023   721A      5.215068  
     722A      5.272345   723A      5.278345   724A      5.298201  
     725A      5.302462   726A      5.327973   727A      5.335532  
     728A      5.356397   729A      5.368657   730A      5.384779  
     731A      5.390438   732A      5.427391   733A      5.438689  
     734A      5.454745   735A      5.455050   736A      5.466395  
     737A      5.483624   738A      5.498401   739A      5.536131  
     740A      5.551664   741A      5.556574   742A      5.578850  
     743A      5.589880   744A      5.609828   745A      5.638618  
     746A      5.689168   747A      5.725993   748A      5.744369  
     749A      5.752722   750A      5.769119   751A      5.790299  
     752A      5.827722   753A      5.836452   754A      5.871866  
     755A      5.878730   756A      5.883931   757A      5.911101  
     758A      5.955930   759A      6.020974   760A      6.046013  
     761A      6.079005   762A      6.099918   763A      6.134835  
     764A      6.181558   765A      6.229585   766A      6.240346  
     767A      6.271536   768A      6.300296   769A      6.334868  
     770A      6.354665   771A      6.396415   772A      6.471053  
     773A      6.479859   774A      6.520375   775A      6.553778  
     776A      6.567893   777A      6.692219   778A      6.694993  
     779A      6.705300   780A      6.711707   781A      6.751215  
     782A      6.835719   783A      6.871437   784A      6.885878  
     785A      6.921955   786A      6.964748   787A      6.994413  
     788A      7.049071   789A      7.056693   790A      7.066991  
     791A      7.184303   792A      7.252597   793A      7.391141  
     794A      7.409909   795A      7.414475   796A      7.473236  
     797A      7.678880   798A      7.684556   799A      7.747451  
     800A      7.997857   801A      8.378027   802A      8.631007  
     803A      8.987203   804A      9.042495   805A      9.270727  
     806A      9.286524   807A      9.401256   808A      9.512158  
     809A      9.530924   810A      9.590271   811A      9.644395  
     812A      9.708569   813A     10.021357   814A     10.075598  
     815A     15.565647   816A     16.086225   817A     16.533599  
     818A     16.578166   819A     16.726225   820A     16.789591  
     821A     18.507959   822A     18.773416   823A     19.184854  
     824A     19.781671   825A     20.114265   826A     20.202954  
     827A     20.434355   828A     21.840253  

    Final Occupation by Irrep:
              A 
    DOCC [    49 ]

  Energy converged.

  @DF-RHF Final Energy:  -650.17259524102997

   => Energetics <=

    Nuclear Repulsion Energy =            813.2486120580711031
    One-Electron Energy =               -2501.3220937183987189
    Two-Electron Energy =                1037.9008864192976489
    DFT Exchange-Correlation Energy =       0.0000000000000000
    Empirical Dispersion Energy =           0.0000000000000000
    PCM Polarization Energy =               0.0000000000000000
    EFP Energy =                            0.0000000000000000
    Total Energy =                       -650.1725952410299669



Properties will be evaluated at   0.000000,   0.000000,   0.000000 Bohr

Properties computed using the SCF density matrix

  Nuclear Dipole Moment: (a.u.)
     X:    -2.1310      Y:     1.3094      Z:    -4.2657

  Electronic Dipole Moment: (a.u.)
     X:     1.1670      Y:    -0.7906      Z:     4.8619

  Dipole Moment: (a.u.)
     X:    -0.9640      Y:     0.5188      Z:     0.5962     Total:     1.2465

  Dipole Moment: (Debye)
     X:    -2.4502      Y:     1.3186      Z:     1.5154     Total:     3.1684


*** tstop() called on gpu-1-14.local at Sat Nov 11 19:50:29 2017
Module time:
	user time   =    1178.23 seconds =      19.64 minutes
	system time =      56.69 seconds =       0.94 minutes
	total time  =        509 seconds =       8.48 minutes
Total time:
	user time   =    1178.24 seconds =      19.64 minutes
	system time =      56.69 seconds =       0.94 minutes
	total time  =        509 seconds =       8.48 minutes

  //>>>>>>>>>>>>>>>>>>>>>>>>>>>>>>>>>>>//
  //               DFMP2               //
  //<<<<<<<<<<<<<<<<<<<<<<<<<<<<<<<<<<<//

   => Loading Basis Set <=

    Name: (AUG-CC-PVTZ AUX)
    Role: RIFIT
    Keyword: DF_BASIS_MP2
    atoms 1-11  entry C          line   147 file /cbio/jclab/home/chayas/anaconda/envs/py35/share/psi4/basis/aug-cc-pvtz-ri.gbs 
    atoms 12    entry N          line   205 file /cbio/jclab/home/chayas/anaconda/envs/py35/share/psi4/basis/aug-cc-pvtz-ri.gbs 
    atoms 13    entry O          line   263 file /cbio/jclab/home/chayas/anaconda/envs/py35/share/psi4/basis/aug-cc-pvtz-ri.gbs 
    atoms 14    entry F          line   321 file /cbio/jclab/home/chayas/anaconda/envs/py35/share/psi4/basis/aug-cc-pvtz-ri.gbs 
    atoms 15-22 entry H          line    29 file /cbio/jclab/home/chayas/anaconda/envs/py35/share/psi4/basis/aug-cc-pvtz-ri.gbs 

	 --------------------------------------------------------
	                          DF-MP2                         
	      2nd-Order Density-Fitted Moller-Plesset Theory     
	              RMP2 Wavefunction,   8 Threads             
	                                                         
	        Rob Parrish, Justin Turney, Andy Simmonett,      
	           Ed Hohenstein, and C. David Sherrill          
	 --------------------------------------------------------

   => Auxiliary Basis Set <=

  Basis Set: (AUG-CC-PVTZ AUX)
    Blend: AUG-CC-PVTZ-RI
    Number of shells: 504
    Number of basis function: 1852
    Number of Cartesian functions: 2344
    Spherical Harmonics?: true
    Max angular momentum: 4

	 --------------------------------------------------------
	                 NBF =   828, NAUX =  1852
	 --------------------------------------------------------
	   CLASS    FOCC     OCC    AOCC    AVIR     VIR    FVIR
	   PAIRS       0      49      49     779     779       0
	 --------------------------------------------------------


         ------------------------------------------------------------
                                     CPHF                           
                                  Rob Parrish                       
         ------------------------------------------------------------

  ==> Geometry <==

    Molecular point group: c1
    Full point group: C1

    Geometry (in Angstrom), charge = 0, multiplicity = 1:

       Center              X                  Y                   Z               Mass       
    ------------   -----------------  -----------------  -----------------  -----------------
           C         -1.321833488820     0.755652018622    -0.800431712290    12.000000000000
           C         -2.399833488820     1.328652018622    -0.127431712290    12.000000000000
           C          2.059166511180     0.217652018622    -0.818431712290    12.000000000000
           C          0.680166511180    -1.657347981378    -1.425431712290    12.000000000000
           C         -1.406833488820     0.712652018622     1.987568287710    12.000000000000
           C          3.097166511180    -0.393347981378    -1.503431712290    12.000000000000
           C          1.779166511180    -2.184347981378    -2.083431712290    12.000000000000
           C         -0.285833488820     0.160652018622    -0.080431712290    12.000000000000
           C          0.831166511180    -0.433347981378    -0.783431712290    12.000000000000
           C         -2.442833488820     1.307652018622     1.266568287710    12.000000000000
           C         -0.328833488820     0.139652018622     1.313568287710    12.000000000000
           N          2.989166511180    -1.581347981378    -2.138431712290    14.003074004780
           O         -3.495833488820     1.867652018622     1.923568287710    15.994914619560
           F          0.659166511180    -0.428347981378     2.020568287710    18.998403224000
           H         -1.302833488820     0.779652018622    -1.887431712290     1.007825032070
           H         -3.204833488820     1.789652018622    -0.694431712290     1.007825032070
           H          2.216166511180     1.172652018622    -0.328431712290     1.007825032070
           H         -0.263833488820    -2.193347981378    -1.420431712290     1.007825032070
           H         -1.434833488820     0.692652018622     3.073568287710     1.007825032070
           H          4.076166511180     0.071652018622    -1.558431712290     1.007825032070
           H          1.713166511180    -3.135347981378    -2.600431712290     1.007825032070
           H         -3.381833488820     1.773652018622     2.882568287710     1.007825032070

  Nuclear repulsion =  813.248612058071103
  Reference energy  = -650.172595241029967

  ==> Basis Set <==

  Basis Set: AUG-CC-PVTZ
    Blend: AUG-CC-PVTZ
    Number of shells: 268
    Number of basis function: 828
    Number of Cartesian functions: 970
    Spherical Harmonics?: true
    Max angular momentum: 3

  ==> CGRSolver (by Rob Parrish) <==

   Number of roots    =         1
   Preconditioning    =    JACOBI
   Convergence cutoff =     1E-06
   Maximum iterations =       100

  ==> CPHFRHamiltonian (by Rob Parrish) <== 

  ==> DFJK: Density-Fitted J/K Matrices <==

    J tasked:                  Yes
    K tasked:                  Yes
    wK tasked:                  No
    OpenMP threads:              8
    Integrals threads:           8
    Memory (MB):              3576
    Algorithm:                Disk
    Integral Cache:           NONE
    Schwarz Cutoff:          1E-12
    Fitting Condition:       1E-12

   => Auxiliary Basis Set <=

  Basis Set: (AUG-CC-PVTZ AUX)
    Blend: AUG-CC-PVTZ-JKFIT
    Number of shells: 532
    Number of basis function: 1824
    Number of Cartesian functions: 2274
    Spherical Harmonics?: true
    Max angular momentum: 4

  ==> CPHF Iterations <==

  => Iterations <=

             Iter  Converged  Remaining    Residual
  CGR           1          0          1   1.021E-01
  CGR           2          0          1   3.369E-02
  CGR           3          0          1   2.187E-02
  CGR           4          0          1   9.592E-03
  CGR           5          0          1   3.962E-03
  CGR           6          0          1   1.475E-03
  CGR           7          0          1   4.376E-04
  CGR           8          0          1   1.472E-04
  CGR           9          0          1   4.718E-05
  CGR          10          0          1   1.448E-05
  CGR          11          0          1   6.878E-06
  CGR          12          0          1   2.999E-06
  CGR          13          0          1   1.459E-06
  CGR          14          1          0   5.218E-07

    CGRSolver converged.

  ==> DFCorrGrad: Density-Fitted Correlated Gradients <==

    OpenMP threads:              8
    Integrals threads:           8
    Memory (MB):              3576
    Schwarz Cutoff:          0E+00
    Fitting Condition:       1E-12

   => Auxiliary Basis Set <=

  Basis Set: (AUG-CC-PVTZ AUX)
    Blend: AUG-CC-PVTZ-JKFIT
    Number of shells: 532
    Number of basis function: 1824
    Number of Cartesian functions: 2274
    Spherical Harmonics?: true
    Max angular momentum: 4

	-----------------------------------------------------------
	 ==================> DF-MP2 Energies <==================== 
	-----------------------------------------------------------
	 Reference Energy          =    -650.1725952410299669 [Eh]
	 Singles Energy            =      -0.0000000000000001 [Eh]
	 Same-Spin Energy          =      -0.6772224913392996 [Eh]
	 Opposite-Spin Energy      =      -2.0193206394307235 [Eh]
	 Correlation Energy        =      -2.6965431307700229 [Eh]
	 Total Energy              =    -652.8691383717999770 [Eh]
	-----------------------------------------------------------
	 ================> DF-SCS-MP2 Energies <================== 
	-----------------------------------------------------------
	 SCS Same-Spin Scale       =       0.3333333333333333 [-]
	 SCS Opposite-Spin Scale   =       1.2000000000000000 [-]
	 SCS Same-Spin Energy      =      -0.2257408304464332 [Eh]
	 SCS Opposite-Spin Energy  =      -2.4231847673168683 [Eh]
	 SCS Correlation Energy    =      -2.6489255977633013 [Eh]
	 SCS Total Energy          =    -652.8215208387932762 [Eh]
	-----------------------------------------------------------


  -Total Gradient:
     Atom            X                  Y                   Z
    ------   -----------------  -----------------  -----------------
       1        0.009456144346    -0.003196310174    -0.014157506992
       2        0.004068937731    -0.002097068836     0.002844274142
       3       -0.003122300366     0.006710192099     0.003442437159
       4       -0.006276439389    -0.001301089694     0.002812793043
       5       -0.007617622556     0.004122113957     0.001138106586
       6       -0.004567405248     0.010732581811     0.007209244276
       7       -0.014575689848    -0.002284265200     0.004204049111
       8        0.001074167730    -0.000495849584    -0.004489209320
       9       -0.004005334274     0.002022679602     0.000311601422
      10       -0.008984668069     0.005109431343    -0.004440472355
      11        0.021123022721    -0.013476824731     0.006152464036
      12        0.014329905264    -0.006245487194    -0.008225162012
      13        0.002992174417    -0.001677593029     0.000270350754
      14        0.001275820709    -0.000584786382     0.002902866150
      15       -0.002748525230     0.001519793091    -0.006248642855
      16       -0.003260174831     0.001722114861    -0.005332641800
      17        0.002894206712     0.003675871338     0.001172679864
      18       -0.003207131923    -0.003718435840    -0.001598447793
      19       -0.000964002732     0.000531741857     0.004377780704
      20        0.002947916594     0.000601138997    -0.000376071792
      21        0.000361136984    -0.002040495360    -0.001449109785
      22       -0.001194138750     0.000370547074     0.009478617459


*** tstop() called on gpu-1-14.local at Sat Nov 11 20:29:10 2017
Module time:
	user time   =    5920.97 seconds =      98.68 minutes
	system time =     121.14 seconds =       2.02 minutes
	total time  =       2830 seconds =      47.17 minutes
Total time:
	user time   =    5920.98 seconds =      98.68 minutes
	system time =     121.14 seconds =       2.02 minutes
	total time  =       2830 seconds =      47.17 minutes

			-----------------------------------------
			 OPTKING 2.0: for geometry optimizations 
			  - R.A. King,  Bethel University        
			-----------------------------------------

	Internal coordinates to be generated automatically.
	Detected frag 1 with atoms:  1 2 3 4 5 6 7 8 9 10 11 12 13 14 15 16 17 18 19 20
	 21 22
	---Fragment 1 Bond Connectivity---
	 1 : 2 8 15
	 2 : 1 10 16
	 3 : 6 9 17
	 4 : 7 9 18
	 5 : 10 11 19
	 6 : 3 12 20
	 7 : 4 12 21
	 8 : 1 9 11
	 9 : 3 4 8
	 10 : 2 5 13
	 11 : 5 8 14
	 12 : 6 7
	 13 : 10 22
	 14 : 11
	 15 : 1
	 16 : 2
	 17 : 3
	 18 : 4
	 19 : 5
	 20 : 6
	 21 : 7
	 22 : 13

	Assuming in current code that numbering for constraints corresponds to unified fragment.
	Fixed dihedral atom list: 
	     1     8     9     3
	---Fragment 1 Geometry and Gradient---
	 C          -2.4979032871        1.4279753670       -1.5125967243
	 C          -4.5350280584        2.5107884411       -0.2408110369
	 C           3.8912607681        0.4113027075       -1.5466117947
	 C           1.2853284309       -3.1319337917       -2.6936755574
	 C          -2.6585300084        1.3467171432        3.7559597342
	 C           5.8527964941       -0.7433199597       -2.8410741957
	 C           3.3621374509       -4.1278194637       -3.9371153528
	 C          -0.5401470135        0.3035883179       -0.1519939086
	 C           1.5706770770       -0.8189090050       -1.4804713800
	 C          -4.6162862821        2.4711041923        2.3934671924
	 C          -0.6214052372        0.2639040691        2.4822843206
	 N           5.6487060717       -2.9883146056       -4.0410502901
	 O          -6.6061679000        3.5293508267        3.6350172617
	 F           1.2456441821       -0.8094603744        3.8183206966
	 H          -2.4619984906        1.4733287941       -3.5667290308
	 H          -6.0562575954        3.3819521884       -1.3122857542
	 H           4.1879477710        2.2159911644       -0.6206459896
	 H          -0.4985730386       -4.1448269989       -2.6842269267
	 H          -2.7114423402        1.3089226206        5.8082023145
	 H           7.7028383782        0.1354026921       -2.9450091330
	 H           3.2374155262       -5.9249490161       -4.9141037635
	 H          -6.3907391209        3.3517165702        5.4472646231
	             0.0094561443       -0.0031963102       -0.0141575070
	             0.0040689377       -0.0020970688        0.0028442741
	            -0.0031223004        0.0067101921        0.0034424372
	            -0.0062764394       -0.0013010897        0.0028127930
	            -0.0076176226        0.0041221140        0.0011381066
	            -0.0045674052        0.0107325818        0.0072092443
	            -0.0145756898       -0.0022842652        0.0042040491
	             0.0010741677       -0.0004958496       -0.0044892093
	            -0.0040053343        0.0020226796        0.0003116014
	            -0.0089846681        0.0051094313       -0.0044404724
	             0.0211230227       -0.0134768247        0.0061524640
	             0.0143299053       -0.0062454872       -0.0082251620
	             0.0029921744       -0.0016775930        0.0002703508
	             0.0012758207       -0.0005847864        0.0029028661
	            -0.0027485252        0.0015197931       -0.0062486429
	            -0.0032601748        0.0017221149       -0.0053326418
	             0.0028942067        0.0036758713        0.0011726799
	            -0.0032071319       -0.0037184358       -0.0015984478
	            -0.0009640027        0.0005317419        0.0043777807
	             0.0029479166        0.0006011390       -0.0003760718
	             0.0003611370       -0.0020404954       -0.0014491098
	            -0.0011941388        0.0003705471        0.0094786175

	Previous optimization step data not found.  Starting new optimization.

	---Fragment 1 Intrafragment Coordinates---
	 - Coordinate -           - BOHR/RAD -       - ANG/DEG -
	 R(1,2)           =         2.634350	       1.394038
	 R(1,8)           =         2.635962	       1.394891
	 R(1,15)          =         2.054947	       1.087431
	 R(2,10)          =         2.635830	       1.394821
	 R(2,16)          =         2.054537	       1.087214
	 R(3,6)           =         2.618475	       1.385637
	 R(3,9)           =         2.627338	       1.390327
	 R(3,17)          =         2.049960	       1.084792
	 R(4,7)           =         2.617454	       1.385097
	 R(4,9)           =         2.627427	       1.390374
	 R(4,18)          =         2.051425	       1.085568
	 R(5,10)          =         2.636938	       1.395407
	 R(5,11)          =         2.635263	       1.394521
	 R(5,19)          =         2.053272	       1.086545
	 R(6,12)          =         2.553742	       1.351382
	 R(6,20)          =         2.050759	       1.085215
	 R(7,12)          =         2.556887	       1.353046
	 R(7,21)          =         2.049326	       1.084457
	 R(8,9)           =         2.735038	       1.447320
	 R(8,11)          =         2.635830	       1.394821
	 R(10,13)         =         2.573123	       1.361638
	 R(11,14)         =         2.534359	       1.341125
	 R(13,22)         =         1.833631	       0.970316
	 B(1,2,10)        =         2.094553	     120.009056
	 B(1,2,16)        =         2.088723	     119.675016
	 B(1,8,9)         =         2.091569	     119.838095
	 B(1,8,11)        =         2.093692	     119.959722
	 B(2,1,8)         =         2.094940	     120.031219
	 B(2,1,15)        =         2.079469	     119.144799
	 B(2,10,5)        =         2.094306	     119.994870
	 B(2,10,13)       =         2.094247	     119.991510
	 B(3,6,12)        =         2.165263	     124.060419
	 B(3,6,20)        =         2.108200	     120.790956
	 B(3,9,4)         =         2.090364	     119.769053
	 B(3,9,8)         =         2.096383	     120.113924
	 B(4,7,12)        =         2.164347	     124.007943
	 B(4,7,21)        =         2.108126	     120.786717
	 B(4,9,8)         =         2.096437	     120.117012
	 B(5,10,13)       =         2.094633	     120.013619
	 B(5,11,8)        =         2.095181	     120.045019
	 B(5,11,14)       =         2.081414	     119.256220
	 B(6,3,9)         =         2.057400	     117.880361
	 B(6,3,17)        =         2.097952	     120.203773
	 B(6,12,7)        =         2.031021	     116.368922
	 B(7,4,9)         =         2.057975	     117.913268
	 B(7,4,18)        =         2.099368	     120.284904
	 B(8,1,15)        =         2.108776	     120.823969
	 B(8,11,14)       =         2.106591	     120.698759
	 B(9,3,17)        =         2.127831	     121.915742
	 B(9,4,18)        =         2.125842	     121.801773
	 B(9,8,11)        =         2.097924	     120.202184
	 B(10,2,16)       =         2.099909	     120.315896
	 B(10,5,11)       =         2.093699	     119.960108
	 B(10,5,19)       =         2.100355	     120.341451
	 B(10,13,22)      =         1.924294	     110.253909
	 B(11,5,19)       =         2.089132	     119.698439
	 B(12,6,20)       =         2.009719	     115.148406
	 B(12,7,21)       =         2.010712	     115.205335
	 D(1,2,10,5)      =        -0.000325	      -0.018609
	 D(1,2,10,13)     =         3.141388	     179.988267
	 D(1,8,9,3)       =         1.831815	     104.955287
	 D(1,8,9,4)       =        -1.310458	     -75.083738
	 D(1,8,11,5)      =         0.000325	       0.018608
	 D(1,8,11,14)     =        -3.141528	    -179.996269
	 D(2,1,8,9)       =         3.141277	     179.981897
	 D(2,1,8,11)      =        -0.000348	      -0.019945
	 D(2,10,5,11)     =         0.000301	       0.017261
	 D(2,10,5,19)     =        -3.141029	    -179.967685
	 D(2,10,13,22)    =         3.141285	     179.982383
	 D(3,6,12,7)      =         0.000901	       0.051622
	 D(3,9,4,7)       =         0.000156	       0.008912
	 D(3,9,4,18)      =        -3.139944	    -179.905547
	 D(3,9,8,11)      =        -1.309745	     -75.042867
	 D(4,7,12,6)      =        -0.001243	      -0.071221
	 D(4,9,3,6)       =        -0.000462	      -0.026497
	 D(4,9,3,17)      =        -3.139823	    -179.898604
	 D(4,9,8,11)      =         1.831166	     104.918108
	 D(5,10,2,16)     =         3.140149	     179.917291
	 D(5,10,13,22)    =        -0.000187	      -0.010740
	 D(5,11,8,9)      =        -3.141300	    -179.983240
	 D(6,3,9,8)       =         3.140451	     179.934614
	 D(6,12,7,21)     =         3.139887	     179.902248
	 D(7,4,9,8)       =        -3.140758	    -179.952198
	 D(7,12,6,20)     =         3.139537	     179.882247
	 D(8,1,2,10)      =         0.000348	       0.019955
	 D(8,1,2,16)      =        -3.140133	    -179.916358
	 D(8,9,3,17)      =         0.001091	       0.062507
	 D(8,9,4,18)      =         0.002327	       0.133343
	 D(8,11,5,10)     =        -0.000301	      -0.017270
	 D(8,11,5,19)     =         3.141030	     179.967774
	 D(9,3,6,12)      =        -0.000080	      -0.004569
	 D(9,3,6,20)      =        -3.138557	    -179.826090
	 D(9,4,7,12)      =         0.000741	       0.042458
	 D(9,4,7,21)      =        -3.140364	    -179.929600
	 D(9,8,1,15)      =         0.000403	       0.023110
	 D(9,8,11,14)     =         0.000033	       0.001883
	 D(10,2,1,15)     =         3.141234	     179.979432
	 D(10,5,11,14)    =         3.141547	     179.997392
	 D(11,5,10,13)    =        -3.141411	    -179.989616
	 D(11,8,1,15)     =        -3.141221	    -179.978731
	 D(12,6,3,17)     =         3.139321	     179.869819
	 D(12,7,4,18)     =         3.140864	     179.958269
	 D(13,10,2,16)    =        -0.001324	      -0.075833
	 D(13,10,5,19)    =         0.000444	       0.025437
	 D(14,11,5,19)    =        -0.000307	      -0.017564
	 D(15,1,2,16)     =         0.000753	       0.043120
	 D(17,3,6,20)     =         0.000843	       0.048298
	 D(18,4,7,21)     =        -0.000241	      -0.013788
	 R(3,14)          =         6.105084	       3.230671

	Current energy   :      -652.8691383718

	Generating empirical Hessian (Schlegel '84) for each fragment.
	Adding user-defined constraint: Fragment 1; Coordinate 61:
		Value =     1.831815; Fixed value    =     1.832596
		Force =     0.000390; Force constant =     0.500000
	Removing off-diagonal coupling between coordinate 61 and others.
	Taking RFO optimization step.
	Going to follow RFO solution 1.
	Using RFO vector 1.

	Determining step-restricting scale parameter for RS-RFO.
	Maximum step size allowed    0.10000

	 Iter      |step|        alpha        rfo_root  
	------------------------------------------------
	    0     0.17317       1.00000           1
	    1     0.14181       6.71528           1
	    2     0.11541      20.29676           1
	    3     0.10295      32.02529           1
	    4     0.10014      35.43544           1
	    5     0.10000      35.61735           1
	------------------------------------------------
	Norm of target step-size    0.10000
	Projected energy change by RFO approximation:        -0.0048242893

	Back-transformation to cartesian coordinates...
	Could not converge backtransformation.
	Using first guess instead.

	--- Internal Coordinate Step in ANG or DEG, aJ/ANG or AJ/DEG ---
	 ---------------------------------------------------------------------------
	   Coordinate                Previous        Force       Change         New 
	   ----------                --------       ------       ------       ------
	    1 R(1,2)          =      1.394038    -0.053499    -0.005318     1.388720
	    2 R(1,8)          =      1.394891    -0.030833    -0.002889     1.392002
	    3 R(1,15)         =      1.087431    -0.051340    -0.006280     1.081151
	    4 R(2,10)         =      1.394821    -0.083195    -0.008300     1.386521
	    5 R(2,16)         =      1.087214    -0.048815    -0.005910     1.081304
	    6 R(3,6)          =      1.385637     0.005699     0.000550     1.386187
	    7 R(3,9)          =      1.390327    -0.023796    -0.001961     1.388366
	    8 R(3,17)         =      1.084792    -0.034476    -0.004190     1.080602
	    9 R(4,7)          =      1.385097     0.010775     0.001042     1.386139
	   10 R(4,9)          =      1.390374    -0.021902    -0.001769     1.388606
	   11 R(4,18)         =      1.085568    -0.038043    -0.004634     1.080933
	   12 R(5,10)         =      1.395407    -0.048092    -0.004826     1.390581
	   13 R(5,11)         =      1.394521    -0.102298    -0.010220     1.384301
	   14 R(5,19)         =      1.086545    -0.036174    -0.004334     1.082211
	   15 R(6,12)         =      1.351382    -0.116094    -0.010596     1.340786
	   16 R(6,20)         =      1.085215    -0.024189    -0.002939     1.082275
	   17 R(7,12)         =      1.353046    -0.128009    -0.011713     1.341333
	   18 R(7,21)         =      1.084457    -0.020253    -0.002461     1.081996
	   19 R(8,9)          =      1.447320     0.152175     0.017488     1.464808
	   20 R(8,11)         =      1.394821    -0.082412    -0.008213     1.386608
	   21 R(10,13)        =      1.361638    -0.022870    -0.001875     1.359763
	   22 R(11,14)        =      1.341125    -0.023134    -0.001961     1.339164
	   23 R(13,22)        =      0.970316    -0.075731    -0.006873     0.963443
	   24 B(1,2,10)       =    120.009056    -0.000176    -0.323260   119.685796
	   25 B(1,2,16)       =    119.675016     0.000293     0.626463   120.301479
	   26 B(1,8,9)        =    119.838095     0.000631     1.120995   120.959089
	   27 B(1,8,11)       =    119.959722    -0.000910    -1.635554   118.324168
	   28 B(2,1,8)        =    120.031219     0.000523     1.010065   121.041284
	   29 B(2,1,15)       =    119.144799    -0.000014     0.055407   119.200206
	   30 B(2,10,5)       =    119.994870    -0.000015    -0.021737   119.973134
	   31 B(2,10,13)      =    119.991510    -0.000749    -1.336965   118.654545
	   32 B(3,6,12)       =    124.060419    -0.000024    -0.104340   123.956079
	   33 B(3,6,20)       =    120.790956    -0.000045    -0.076667   120.714289
	   34 B(3,9,4)        =    119.769053    -0.000834    -1.393349   118.375704
	   35 B(3,9,8)        =    120.113924     0.000419     0.702520   120.816444
	   36 B(4,7,12)       =    124.007943    -0.000022    -0.103019   123.904924
	   37 B(4,7,21)       =    120.786717    -0.000034    -0.049996   120.736721
	   38 B(4,9,8)        =    120.117012     0.000415     0.690806   120.807817
	   39 B(5,10,13)      =    120.013619     0.000765     1.358702   121.372321
	   40 B(5,11,8)       =    120.045019     0.000780     1.372483   121.417502
	   41 B(5,11,14)      =    119.256220    -0.000189    -0.335730   118.920491
	   42 B(6,3,9)        =    117.880361     0.000369     0.752272   118.632633
	   43 B(6,3,17)       =    120.203773     0.000003     0.046827   120.250600
	   44 B(6,12,7)       =    116.368922     0.000143     0.097613   116.466536
	   45 B(7,4,9)        =    117.913268     0.000368     0.750812   118.664080
	   46 B(7,4,18)       =    120.284904    -0.000007     0.024322   120.309226
	   47 B(8,1,15)       =    120.823969    -0.000509    -1.065459   119.758510
	   48 B(8,11,14)      =    120.698759    -0.000590    -1.036778   119.661981
	   49 B(9,3,17)       =    121.915742    -0.000371    -0.799033   121.116709
	   50 B(9,4,18)       =    121.801773    -0.000361    -0.775104   121.026669
	   51 B(9,8,11)       =    120.202184     0.000279     0.514505   120.716689
	   52 B(10,2,16)      =    120.315896    -0.000117    -0.303183   120.012714
	   53 B(10,5,11)      =    119.960108    -0.000202    -0.402035   119.558073
	   54 B(10,5,19)      =    120.341451     0.000182     0.384074   120.725525
	   55 B(10,13,22)     =    110.253909    -0.000367    -0.827617   109.426292
	   56 B(11,5,19)      =    119.698439     0.000020     0.017962   119.716401
	   57 B(12,6,20)      =    115.148406     0.000069     0.181135   115.329541
	   58 B(12,7,21)      =    115.205335     0.000056     0.153016   115.358350
	   59 D(1,2,10,5)     =     -0.018609     0.000001     0.021878     0.003270
	   60 D(1,2,10,13)    =    179.988267     0.000000     0.005945   179.994212
	   61 D(1,8,9,3)      =    104.955287     0.000015     0.123432   105.078719
	   62 D(1,8,9,4)      =    -75.083738     0.000018     0.231592   -74.852146
	   63 D(1,8,11,5)     =      0.018608     0.000002     0.062500     0.081108
	   64 D(1,8,11,14)    =   -179.996269     0.000000     0.018240  -179.978029
	   65 D(2,1,8,9)      =    179.981897     0.000001     0.046643   180.028539
	   66 D(2,1,8,11)     =     -0.019945    -0.000001    -0.035456    -0.055401
	   67 D(2,10,5,11)    =      0.017261     0.000000     0.004281     0.021543
	   68 D(2,10,5,19)    =   -179.967685     0.000001     0.003093  -179.964592
	   69 D(2,10,13,22)   =    179.982383     0.000000     0.003115   179.985498
	   70 D(3,6,12,7)     =      0.051622    -0.000001    -0.009015     0.042607
	   71 D(3,9,4,7)      =      0.008912    -0.000002    -0.016466    -0.007554
	   72 D(3,9,4,18)     =   -179.905547    -0.000004    -0.043412  -179.948959
	   73 D(3,9,8,11)     =    -75.042867     0.000017     0.207535   -74.835332
	   74 D(4,7,12,6)     =     -0.071221    -0.000000    -0.010065    -0.081286
	   75 D(4,9,3,6)      =     -0.026497     0.000001    -0.000943    -0.027440
	   76 D(4,9,3,17)     =   -179.898604    -0.000001    -0.041190  -179.939794
	   77 D(4,9,8,11)     =    104.918108     0.000020     0.315696   105.233803
	   78 D(5,10,2,16)    =    179.917291     0.000002     0.048015   179.965307
	   79 D(5,10,13,22)   =     -0.010740    -0.000001    -0.012952    -0.023691
	   80 D(5,11,8,9)     =   -179.983240     0.000000    -0.019380  -180.002621
	   81 D(6,3,9,8)      =    179.934614     0.000005     0.105434   180.040048
	   82 D(6,12,7,21)    =    179.902248     0.000003     0.042485   179.944733
	   83 D(7,4,9,8)      =   -179.952198    -0.000006    -0.122838  -180.075036
	   84 D(7,12,6,20)    =    179.882247     0.000002     0.051017   179.933264
	   85 D(8,1,2,10)     =      0.019955    -0.000001    -0.005770     0.014185
	   86 D(8,1,2,16)     =   -179.916358    -0.000002    -0.031382  -179.947740
	   87 D(8,9,3,17)     =      0.062507     0.000002     0.065187     0.127694
	   88 D(8,9,4,18)     =      0.133343    -0.000007    -0.149785    -0.016442
	   89 D(8,11,5,10)    =     -0.017270    -0.000002    -0.047711    -0.064981
	   90 D(8,11,5,19)    =    179.967774    -0.000002    -0.046478   179.921295
	   91 D(9,3,6,12)     =     -0.004569     0.000000     0.014867     0.010298
	   92 D(9,3,6,20)     =   -179.826090    -0.000003    -0.048654  -179.874745
	   93 D(9,4,7,12)     =      0.042458     0.000002     0.022912     0.065370
	   94 D(9,4,7,21)     =   -179.929600    -0.000002    -0.032385  -179.961985
	   95 D(9,8,1,15)     =      0.023110    -0.000001     0.011330     0.034440
	   96 D(9,8,11,14)    =      0.001883    -0.000002    -0.063641    -0.061758
	   97 D(10,2,1,15)    =    179.979432     0.000001     0.028885   180.008317
	   98 D(10,5,11,14)   =    179.997392     0.000000    -0.003664   179.993728
	   99 D(11,5,10,13)   =   -179.989616     0.000001     0.020468  -179.969148
	  100 D(11,8,1,15)    =   -179.978731    -0.000003    -0.070769  -180.049501
	  101 D(12,6,3,17)    =    179.869819     0.000003     0.053616   179.923435
	  102 D(12,7,4,18)    =    179.958269     0.000003     0.048940   180.007209
	  103 D(13,10,2,16)   =     -0.075833     0.000002     0.032082    -0.043751
	  104 D(13,10,5,19)   =      0.025437     0.000001     0.019279     0.044717
	  105 D(14,11,5,19)   =     -0.017564    -0.000000    -0.002431    -0.019995
	  106 D(15,1,2,16)    =      0.043120    -0.000000     0.003272     0.046392
	  107 D(17,3,6,20)    =      0.048298    -0.000001    -0.009906     0.038392
	  108 D(18,4,7,21)    =     -0.013788    -0.000000    -0.006358    -0.020146
	  109 R(3,14)         =      3.230671     0.003244     0.001302     3.231973
	 ---------------------------------------------------------------------------
	Successfully symmetrized geometry.
	 Forces used to impose fixed constraints are not included.
	  Forces zeroed: 61 

  ==> Convergence Check <==

  Measures of convergence in internal coordinates in au.
  Criteria marked as inactive (o), active & met (*), and active & unmet ( ).
  --------------------------------------------------------------------------------------------- ~
   Step     Total Energy     Delta E     MAX Force     RMS Force      MAX Disp      RMS Disp    ~
  --------------------------------------------------------------------------------------------- ~
    Convergence Criteria    1.00e-06 *    3.00e-04 *             o    1.20e-03 *             o  ~
  --------------------------------------------------------------------------------------------- ~
      1    -652.86913837   -6.53e+02      1.85e-02      4.81e-03 o    3.30e-02      9.58e-03 o  ~
  ---------------------------------------------------------------------------------------------

	Writing optimization data to binary file.
	Structure for next step:
	Cartesian Geometry (in Angstrom)
	    C    -1.3404943680   0.7622327172  -0.7763048639
	    C    -2.4142650416   1.3338414947  -0.1063616095
	    C     2.0700726820   0.1992910383  -0.8281392271
	    C     0.7027456684  -1.6582965542  -1.4348013103
	    C    -1.4127860948   0.7181396937   1.9914019544
	    C     3.1100683260  -0.4105912501  -1.5122196104
	    C     1.8025369038  -2.1862953395  -2.0928718906
	    C    -0.2949893530   0.1643416240  -0.0783683606
	    C     0.8370492011  -0.4375040514  -0.7868396150
	    C    -2.4496683833   1.3112846995   1.2795236526
	    C    -0.3500629512   0.1536519287   1.3071040369
	    N     3.0021095472  -1.5883033923  -2.1439196499
	    O    -3.5108880001   1.8771897469   1.9139674373
	    F     0.6416301080  -0.4140325673   2.0054161732
	    H    -1.3208449091   0.7843670870  -1.8570502470
	    H    -3.2204658390   1.7943997091  -0.6605683750
	    H     2.2241939611   1.1501529934  -0.3384359917
	    H    -0.2379533929  -2.1907299406  -1.4306900548
	    H    -1.4282526669   0.6931677139   3.0732138300
	    H     4.0857107036   0.0549669819  -1.5641553499
	    H     1.7352418945  -3.1347974617  -2.6091375396
	    H    -3.4000247499   1.7868675385   2.8667389405
			--------------------------
			 OPTKING Finished Execution 
			--------------------------

    Structure for next step:
    Molecular point group: c1
    Full point group: C1

    Geometry (in Angstrom), charge = 0, multiplicity = 1:

    C           -1.338485546065     0.760829495273    -0.774705673448
    C           -2.412256219648     1.332438272755    -0.104762419018
    C            2.072081503902     0.197887816391    -0.826540036598
    C            0.704754490345    -1.659699776151    -1.433202119843
    C           -1.410777272903     0.716736471777     1.993001144844
    C            3.112077147925    -0.411994472048    -1.510620419891
    C            1.804545725677    -2.187698561385    -2.091272700159
    C           -0.292980531127     0.162938402076    -0.076769170157
    C            0.839058023000    -0.438907273276    -0.785240424532
    C           -2.447659561436     1.309881477644     1.281122843071
    C           -0.348054129270     0.152248706749     1.308703227376
    N            3.004118369143    -1.589706614170    -2.142320459462
    O           -3.508879178218     1.875786524998     1.915566627717
    F            0.643638929873    -0.415435789247     2.007015363683
    H           -1.318836087151     0.782963865112    -1.855451056569
    H           -3.218457017095     1.792996487221    -0.658969184500
    H            2.226202782997     1.148749771531    -0.336836801279
    H           -0.235944570997    -2.192133162507    -1.429090864368
    H           -1.426243844988     0.691764492019     3.074813020511
    H            4.087719525541     0.053563760020    -1.562556159483
    H            1.737250716397    -3.136200683588    -2.607538349104
    H           -3.398015927986     1.785464316636     2.868338130999

gradient() will perform analytic gradient computation.

*** tstart() called on gpu-1-14.local
*** at Sat Nov 11 20:29:11 2017

    SCF Algorithm Type (re)set to DF.

*** tstart() called on gpu-1-14.local
*** at Sat Nov 11 20:29:11 2017

   => Loading Basis Set <=

    Name: AUG-CC-PVTZ
    Role: ORBITAL
    Keyword: BASIS
    atoms 1-11  entry C          line   221 file /cbio/jclab/home/chayas/anaconda/envs/py35/share/psi4/basis/aug-cc-pvtz.gbs 
    atoms 12    entry N          line   267 file /cbio/jclab/home/chayas/anaconda/envs/py35/share/psi4/basis/aug-cc-pvtz.gbs 
    atoms 13    entry O          line   313 file /cbio/jclab/home/chayas/anaconda/envs/py35/share/psi4/basis/aug-cc-pvtz.gbs 
    atoms 14    entry F          line   359 file /cbio/jclab/home/chayas/anaconda/envs/py35/share/psi4/basis/aug-cc-pvtz.gbs 
    atoms 15-22 entry H          line    34 file /cbio/jclab/home/chayas/anaconda/envs/py35/share/psi4/basis/aug-cc-pvtz.gbs 


         ---------------------------------------------------------
                                   SCF
            by Justin Turney, Rob Parrish, and Andy Simmonett
                              RHF Reference
                        8 Threads,   4768 MiB Core
         ---------------------------------------------------------

  ==> Geometry <==

    Molecular point group: c1
    Full point group: C1

    Geometry (in Angstrom), charge = 0, multiplicity = 1:

       Center              X                  Y                   Z               Mass       
    ------------   -----------------  -----------------  -----------------  -----------------
           C         -1.338485546065     0.760829495273    -0.774705673448    12.000000000000
           C         -2.412256219648     1.332438272755    -0.104762419018    12.000000000000
           C          2.072081503902     0.197887816391    -0.826540036598    12.000000000000
           C          0.704754490345    -1.659699776151    -1.433202119843    12.000000000000
           C         -1.410777272903     0.716736471777     1.993001144844    12.000000000000
           C          3.112077147925    -0.411994472048    -1.510620419891    12.000000000000
           C          1.804545725677    -2.187698561385    -2.091272700159    12.000000000000
           C         -0.292980531127     0.162938402076    -0.076769170157    12.000000000000
           C          0.839058023000    -0.438907273276    -0.785240424532    12.000000000000
           C         -2.447659561436     1.309881477644     1.281122843071    12.000000000000
           C         -0.348054129270     0.152248706749     1.308703227376    12.000000000000
           N          3.004118369143    -1.589706614170    -2.142320459462    14.003074004780
           O         -3.508879178218     1.875786524998     1.915566627717    15.994914619560
           F          0.643638929873    -0.415435789247     2.007015363683    18.998403224000
           H         -1.318836087151     0.782963865112    -1.855451056569     1.007825032070
           H         -3.218457017095     1.792996487221    -0.658969184500     1.007825032070
           H          2.226202782997     1.148749771531    -0.336836801279     1.007825032070
           H         -0.235944570997    -2.192133162507    -1.429090864368     1.007825032070
           H         -1.426243844988     0.691764492019     3.074813020511     1.007825032070
           H          4.087719525541     0.053563760020    -1.562556159483     1.007825032070
           H          1.737250716397    -3.136200683588    -2.607538349104     1.007825032070
           H         -3.398015927986     1.785464316636     2.868338130999     1.007825032070

  Running in c1 symmetry.

  Rotational constants: A =      0.06438  B =      0.01275  C =      0.01173 [cm^-1]
  Rotational constants: A =   1930.05371  B =    382.28232  C =    351.68992 [MHz]
  Nuclear repulsion =  813.799125407393149

  Charge       = 0
  Multiplicity = 1
  Electrons    = 98
  Nalpha       = 49
  Nbeta        = 49

  ==> Algorithm <==

  SCF Algorithm Type is DF.
  DIIS enabled.
  MOM disabled.
  Fractional occupation disabled.
  Guess Type is READ.
  Energy threshold   = 1.00e-10
  Density threshold  = 1.00e-10
  Integral threshold = 0.00e+00

  ==> Primary Basis <==

  Basis Set: AUG-CC-PVTZ
    Blend: AUG-CC-PVTZ
    Number of shells: 268
    Number of basis function: 828
    Number of Cartesian functions: 970
    Spherical Harmonics?: true
    Max angular momentum: 3

   => Loading Basis Set <=

    Name: (AUG-CC-PVTZ AUX)
    Role: JKFIT
    Keyword: DF_BASIS_SCF
    atoms 1-11  entry C          line   161 file /cbio/jclab/home/chayas/anaconda/envs/py35/share/psi4/basis/aug-cc-pvtz-jkfit.gbs 
    atoms 12    entry N          line   223 file /cbio/jclab/home/chayas/anaconda/envs/py35/share/psi4/basis/aug-cc-pvtz-jkfit.gbs 
    atoms 13    entry O          line   285 file /cbio/jclab/home/chayas/anaconda/envs/py35/share/psi4/basis/aug-cc-pvtz-jkfit.gbs 
    atoms 14    entry F          line   347 file /cbio/jclab/home/chayas/anaconda/envs/py35/share/psi4/basis/aug-cc-pvtz-jkfit.gbs 
    atoms 15-22 entry H          line    69 file /cbio/jclab/home/chayas/anaconda/envs/py35/share/psi4/basis/aug-cc-pvtz-jkfit.gbs 

  Reading orbitals from file 180, no projection.

  ==> Pre-Iterations <==

   -------------------------------------------------------
    Irrep   Nso     Nmo     Nalpha   Nbeta   Ndocc  Nsocc
   -------------------------------------------------------
     A        828     828       0       0       0       0
   -------------------------------------------------------
    Total     828     828      49      49      49       0
   -------------------------------------------------------

  ==> Integral Setup <==

  ==> DFJK: Density-Fitted J/K Matrices <==

    J tasked:                  Yes
    K tasked:                  Yes
    wK tasked:                  No
    OpenMP threads:              8
    Integrals threads:           8
    Memory (MB):              3576
    Algorithm:                Disk
    Integral Cache:           NONE
    Schwarz Cutoff:          1E-12
    Fitting Condition:       1E-12

   => Auxiliary Basis Set <=

  Basis Set: (AUG-CC-PVTZ AUX)
    Blend: AUG-CC-PVTZ-JKFIT
    Number of shells: 532
    Number of basis function: 1824
    Number of Cartesian functions: 2274
    Spherical Harmonics?: true
    Max angular momentum: 4

  Minimum eigenvalue in the overlap matrix is 6.9663701289E-07.
  Using Symmetric Orthogonalization.

  SCF Guess: Orbitals guess was supplied from a previous computation.

  ==> Iterations <==

                           Total Energy        Delta E     RMS |[F,P]|

   @DF-RHF iter   0:  -650.22734714437524   -6.50227e+02   4.81401e-04 
   @DF-RHF iter   1:  -650.17857395891747    4.87732e-02   8.29234e-05 
   @DF-RHF iter   2:  -650.17884256898799   -2.68610e-04   4.90269e-05 DIIS
   @DF-RHF iter   3:  -650.17898053541512   -1.37966e-04   9.17560e-06 DIIS
   @DF-RHF iter   4:  -650.17898613161833   -5.59620e-06   2.57051e-06 DIIS
   @DF-RHF iter   5:  -650.17898784560452   -1.71399e-06   9.46419e-07 DIIS
   @DF-RHF iter   6:  -650.17898821637152   -3.70767e-07   7.63106e-07 DIIS
   @DF-RHF iter   7:  -650.17898835735843   -1.40987e-07   3.57365e-07 DIIS
   @DF-RHF iter   8:  -650.17898839416364   -3.68052e-08   1.11018e-07 DIIS
   @DF-RHF iter   9:  -650.17898839708710   -2.92346e-09   4.47018e-08 DIIS
   @DF-RHF iter  10:  -650.17898839734437   -2.57273e-10   1.06526e-08 DIIS
   @DF-RHF iter  11:  -650.17898839736040   -1.60298e-11   4.17341e-09 DIIS
   @DF-RHF iter  12:  -650.17898839737143   -1.10276e-11   1.50160e-09 DIIS
   @DF-RHF iter  13:  -650.17898839738109   -9.66338e-12   4.30166e-10 DIIS
   @DF-RHF iter  14:  -650.17898839739007   -8.98126e-12   3.23480e-10 DIIS
   @DF-RHF iter  15:  -650.17898839738166    8.41283e-12   1.21984e-10 DIIS
   @DF-RHF iter  16:  -650.17898839738029    1.36424e-12   5.81548e-11 DIIS

  ==> Post-Iterations <==

    Orbital Energies (a.u.)
    -----------------------

    Doubly Occupied:                                                      

       1A    -26.324244     2A    -20.608661     3A    -15.564859  
       4A    -11.345926     5A    -11.324948     6A    -11.273787  
       7A    -11.273334     8A    -11.266764     9A    -11.262368  
      10A    -11.251972    11A    -11.251027    12A    -11.241447  
      13A    -11.239268    14A    -11.238549    15A     -1.643999  
      16A     -1.426361    17A     -1.257157    18A     -1.183353  
      19A     -1.111256    20A     -1.041977    21A     -1.035372  
      22A     -1.022782    23A     -0.891689    24A     -0.874943  
      25A     -0.858644    26A     -0.826409    27A     -0.773624  
      28A     -0.747662    29A     -0.726098    30A     -0.710121  
      31A     -0.695430    32A     -0.667806    33A     -0.660686  
      34A     -0.643701    35A     -0.636655    36A     -0.615115  
      37A     -0.609641    38A     -0.598632    39A     -0.579745  
      40A     -0.545106    41A     -0.536986    42A     -0.531595  
      43A     -0.525191    44A     -0.494768    45A     -0.419822  
      46A     -0.383199    47A     -0.360862    48A     -0.348556  
      49A     -0.331468  

    Virtual:                                                              

      50A      0.021937    51A      0.029673    52A      0.034552  
      53A      0.035790    54A      0.044453    55A      0.048013  
      56A      0.051676    57A      0.053822    58A      0.076376  
      59A      0.083068    60A      0.085751    61A      0.087012  
      62A      0.092462    63A      0.095096    64A      0.098584  
      65A      0.102485    66A      0.105710    67A      0.108040  
      68A      0.109966    69A      0.112504    70A      0.113437  
      71A      0.119768    72A      0.120086    73A      0.124994  
      74A      0.128511    75A      0.131782    76A      0.133118  
      77A      0.135287    78A      0.139830    79A      0.141685  
      80A      0.143762    81A      0.147206    82A      0.151500  
      83A      0.155719    84A      0.156570    85A      0.165962  
      86A      0.169049    87A      0.174271    88A      0.186035  
      89A      0.188248    90A      0.192438    91A      0.196542  
      92A      0.204652    93A      0.211305    94A      0.217047  
      95A      0.226488    96A      0.230185    97A      0.234344  
      98A      0.236821    99A      0.239238   100A      0.241699  
     101A      0.243269   102A      0.252139   103A      0.257407  
     104A      0.258540   105A      0.259859   106A      0.263073  
     107A      0.264464   108A      0.269966   109A      0.275965  
     110A      0.282119   111A      0.283271   112A      0.283573  
     113A      0.291287   114A      0.295067   115A      0.300614  
     116A      0.303898   117A      0.310853   118A      0.312946  
     119A      0.316564   120A      0.318370   121A      0.323879  
     122A      0.328249   123A      0.330197   124A      0.334264  
     125A      0.338298   126A      0.341521   127A      0.344751  
     128A      0.350488   129A      0.354062   130A      0.364159  
     131A      0.368513   132A      0.376934   133A      0.380607  
     134A      0.386363   135A      0.391114   136A      0.395539  
     137A      0.400347   138A      0.405856   139A      0.409423  
     140A      0.411759   141A      0.417031   142A      0.419433  
     143A      0.423469   144A      0.427824   145A      0.432371  
     146A      0.436872   147A      0.438011   148A      0.440113  
     149A      0.449517   150A      0.451017   151A      0.458014  
     152A      0.462680   153A      0.463987   154A      0.470958  
     155A      0.472003   156A      0.476357   157A      0.480401  
     158A      0.482548   159A      0.486769   160A      0.489717  
     161A      0.496877   162A      0.498749   163A      0.502762  
     164A      0.504589   165A      0.506464   166A      0.510063  
     167A      0.514800   168A      0.516959   169A      0.520002  
     170A      0.524074   171A      0.526132   172A      0.529810  
     173A      0.534960   174A      0.542740   175A      0.544449  
     176A      0.550496   177A      0.551311   178A      0.557100  
     179A      0.561254   180A      0.563124   181A      0.572030  
     182A      0.575013   183A      0.582240   184A      0.586774  
     185A      0.588996   186A      0.596718   187A      0.605290  
     188A      0.615273   189A      0.619475   190A      0.625186  
     191A      0.628789   192A      0.634565   193A      0.638433  
     194A      0.639744   195A      0.642115   196A      0.656579  
     197A      0.667957   198A      0.671971   199A      0.678281  
     200A      0.681162   201A      0.690643   202A      0.694508  
     203A      0.697694   204A      0.702740   205A      0.708975  
     206A      0.717641   207A      0.726511   208A      0.729981  
     209A      0.731939   210A      0.732757   211A      0.739778  
     212A      0.746770   213A      0.754429   214A      0.760818  
     215A      0.763804   216A      0.769892   217A      0.777870  
     218A      0.780283   219A      0.784262   220A      0.788395  
     221A      0.789930   222A      0.797452   223A      0.805513  
     224A      0.807479   225A      0.815477   226A      0.823773  
     227A      0.826515   228A      0.836303   229A      0.844194  
     230A      0.845990   231A      0.849309   232A      0.858552  
     233A      0.868142   234A      0.876661   235A      0.883581  
     236A      0.883830   237A      0.889594   238A      0.893663  
     239A      0.898302   240A      0.902426   241A      0.906236  
     242A      0.908819   243A      0.916250   244A      0.919870  
     245A      0.924089   246A      0.931379   247A      0.935811  
     248A      0.936683   249A      0.941292   250A      0.946079  
     251A      0.948478   252A      0.950406   253A      0.958750  
     254A      0.960270   255A      0.963283   256A      0.969917  
     257A      0.975330   258A      0.983493   259A      0.988128  
     260A      0.991772   261A      0.996784   262A      1.002645  
     263A      1.005881   264A      1.008926   265A      1.015695  
     266A      1.019237   267A      1.022825   268A      1.023633  
     269A      1.028581   270A      1.038935   271A      1.044452  
     272A      1.047140   273A      1.047940   274A      1.050640  
     275A      1.061473   276A      1.070301   277A      1.071366  
     278A      1.075725   279A      1.080624   280A      1.085842  
     281A      1.089810   282A      1.091563   283A      1.097541  
     284A      1.100414   285A      1.105753   286A      1.109783  
     287A      1.116531   288A      1.128975   289A      1.133954  
[...]
	 B(1,8,11)        =         2.037350	     116.731562
	 B(2,1,8)         =         2.125820	     121.800492
	 B(2,1,15)        =         2.089725	     119.732440
	 B(2,10,5)        =         2.094394	     119.999908
	 B(2,10,13)       =         2.049404	     117.422207
	 B(3,6,12)        =         2.157561	     123.619158
	 B(3,6,20)        =         2.097336	     120.168523
	 B(3,9,4)         =         2.050019	     117.457412
	 B(3,9,8)         =         2.117157	     121.304168
	 B(4,7,12)        =         2.156808	     123.575969
	 B(4,7,21)        =         2.097528	     120.179514
	 B(4,9,8)         =         2.115012	     121.181257
	 B(5,10,13)       =         2.139387	     122.577818
	 B(5,11,8)        =         2.147487	     123.041948
	 B(5,11,14)       =         2.059562	     118.004200
	 B(6,3,9)         =         2.080453	     119.201169
	 B(6,3,17)        =         2.102704	     120.476064
	 B(6,12,7)        =         2.040517	     116.913028
	 B(7,4,9)         =         2.080974	     119.231006
	 B(7,4,18)        =         2.102767	     120.479675
	 B(8,1,15)        =         2.067639	     118.466986
	 B(8,11,14)       =         2.076110	     118.952339
	 B(9,3,17)        =         2.100028	     120.322715
	 B(9,4,18)        =         2.099430	     120.288474
	 B(9,8,11)        =         2.120795	     121.512591
	 B(10,2,16)       =         2.079598	     119.152182
	 B(10,5,11)       =         2.073404	     118.797311
	 B(10,5,19)       =         2.127492	     121.896337
	 B(10,13,22)      =         1.906934	     109.259281
	 B(11,5,19)       =         2.082288	     119.306317
	 B(12,6,20)       =         2.028279	     116.211829
	 B(12,7,21)       =         2.028850	     116.244516
	 D(1,2,10,5)      =         0.002573	       0.147447
	 D(1,2,10,13)     =        -3.140620	    -179.944249
	 D(1,8,9,3)       =         1.836723	     105.236482
	 D(1,8,9,4)       =        -1.255655	     -71.943733
	 D(1,8,11,5)      =         0.017098	       0.979671
	 D(1,8,11,14)     =        -3.132468	    -179.477168
	 D(2,1,8,9)       =        -3.116471	    -178.560620
	 D(2,1,8,11)      =        -0.014727	      -0.843775
	 D(2,10,5,11)     =        -0.000508	      -0.029116
	 D(2,10,5,19)     =        -3.140884	    -179.959389
	 D(2,10,13,22)    =        -3.140550	    -179.940235
	 D(3,6,12,7)      =        -0.001127	      -0.064588
	 D(3,9,4,7)       =         0.007826	       0.448374
	 D(3,9,4,18)      =        -3.139573	    -179.884271
	 D(3,9,8,11)      =        -1.263122	     -72.371574
	 D(4,7,12,6)      =        -0.001249	      -0.071544
	 D(4,9,3,6)       =        -0.009996	      -0.572701
	 D(4,9,3,17)      =         3.133030	     179.509419
	 D(4,9,8,11)      =         1.927685	     110.448211
	 D(5,10,2,16)     =        -3.132541	    -179.481395
	 D(5,10,13,22)    =        -0.000602	      -0.034474
	 D(5,11,8,9)      =         3.118929	     178.701485
	 D(6,3,9,8)       =        -3.104140	    -177.854109
	 D(6,12,7,21)     =         3.140513	     179.938151
	 D(7,4,9,8)       =         3.102032	     177.733321
	 D(7,12,6,20)     =        -3.138269	    -179.809579
	 D(8,1,2,10)      =         0.005368	       0.307536
	 D(8,1,2,16)      =         3.140344	     179.928484
	 D(8,9,3,17)      =         0.038886	       2.228011
	 D(8,9,4,18)      =        -0.045367	      -2.599324
	 D(8,11,5,10)     =        -0.009793	      -0.561085
	 D(8,11,5,19)     =         3.130615	     179.371028
	 D(9,3,6,12)      =         0.006938	       0.397521
	 D(9,3,6,20)      =        -3.139273	    -179.867109
	 D(9,4,7,12)      =        -0.002255	      -0.129220
	 D(9,4,7,21)      =         3.139162	     179.860721
	 D(9,8,1,15)      =         0.023302	       1.335084
	 D(9,8,11,14)     =        -0.030637	      -1.755354
	 D(10,2,1,15)     =        -3.134382	    -179.586877
	 D(10,5,11,14)    =         3.139702	     179.891671
	 D(11,5,10,13)    =        -3.140415	    -179.932525
	 D(11,8,1,15)     =         3.125046	     179.051929
	 D(12,6,3,17)     =        -3.136090	    -179.684727
	 D(12,7,4,18)     =        -3.138031	    -179.795924
	 D(13,10,2,16)    =         0.007451	       0.426908
	 D(13,10,5,19)    =         0.002395	       0.137202
	 D(14,11,5,19)    =        -0.003076	      -0.176216
	 D(15,1,2,16)     =         0.000595	       0.034071
	 D(17,3,6,20)     =         0.000884	       0.050643
	 D(18,4,7,21)     =         0.003386	       0.194018
	 R(3,14)          =         6.090840	       3.223134

	Current energy   :      -652.8732475321

	Energy change for the previous step:
		Projected    :        -0.0000006261
		Actual       :        -0.0000001131

	Performing BFGS update.
	Previous computed or guess Hessian on step 1.
	Steps to be used in Hessian update: 7 6
	Adding user-defined constraint: Fragment 1; Coordinate 61:
		Value =     1.836723; Fixed value    =     1.832600
		Force =    -0.002783; Force constant =     0.675000
	Removing off-diagonal coupling between coordinate 61 and others.
	Taking RFO optimization step.
	Going to follow RFO solution 1.
	Rejecting RFO root 1 because normalization gives large value.
	Using RFO vector 2.
	Norm of target step-size    0.00823
	Projected energy change by RFO approximation:        -0.0000016328

	Back-transformation to cartesian coordinates...
	Could not converge backtransformation.
	Using first guess instead.

	--- Internal Coordinate Step in ANG or DEG, aJ/ANG or AJ/DEG ---
	 ---------------------------------------------------------------------------
	   Coordinate                Previous        Force       Change         New 
	   ----------                --------       ------       ------       ------
	    1 R(1,2)          =      1.383464    -0.000029    -0.000056     1.383408
	    2 R(1,8)          =      1.393442     0.000299     0.000151     1.393593
	    3 R(1,15)         =      1.079774    -0.000083     0.000002     1.079776
	    4 R(2,10)         =      1.387815     0.000003     0.000075     1.387890
	    5 R(2,16)         =      1.078056     0.000010     0.000024     1.078080
	    6 R(3,6)          =      1.386151    -0.000019    -0.000003     1.386147
	    7 R(3,9)          =      1.389304    -0.000140    -0.000039     1.389265
	    8 R(3,17)         =      1.079521    -0.000062    -0.000004     1.079516
	    9 R(4,7)          =      1.386865    -0.000005     0.000007     1.386872
	   10 R(4,9)          =      1.389116    -0.000353    -0.000063     1.389053
	   11 R(4,18)         =      1.079703    -0.000024     0.000012     1.079715
	   12 R(5,10)         =      1.387300     0.000060    -0.000006     1.387294
	   13 R(5,11)         =      1.380038    -0.000013     0.000032     1.380070
	   14 R(5,19)         =      1.079316    -0.000021    -0.000010     1.079306
	   15 R(6,12)         =      1.335282    -0.000199    -0.000036     1.335246
	   16 R(6,20)         =      1.080918    -0.000055    -0.000016     1.080902
	   17 R(7,12)         =      1.334582    -0.000149    -0.000035     1.334546
	   18 R(7,21)         =      1.080988    -0.000086    -0.000025     1.080963
	   19 R(8,9)          =      1.466877     0.000134    -0.000116     1.466761
	   20 R(8,11)         =      1.384558    -0.000357    -0.000157     1.384402
	   21 R(10,13)        =      1.360510    -0.000242    -0.000055     1.360455
	   22 R(11,14)        =      1.345471     0.000058     0.000143     1.345615
	   23 R(13,22)        =      0.961899    -0.000148    -0.000013     0.961886
	   24 B(1,2,10)       =    119.622129     0.000000     0.005393   119.627522
	   25 B(1,2,16)       =    121.224623    -0.000000     0.007008   121.231630
	   26 B(1,8,9)        =    121.715303    -0.000003    -0.016984   121.698319
	   27 B(1,8,11)       =    116.731562     0.000000    -0.003847   116.727716
	   28 B(2,1,8)        =    121.800492    -0.000001    -0.006329   121.794164
	   29 B(2,1,15)       =    119.732440     0.000000     0.006679   119.739119
	   30 B(2,10,5)       =    119.999908    -0.000000    -0.000154   119.999754
	   31 B(2,10,13)      =    117.422207    -0.000001    -0.008247   117.413960
	   32 B(3,6,12)       =    123.619158     0.000001     0.006686   123.625844
	   33 B(3,6,20)       =    120.168523     0.000001     0.004292   120.172815
	   34 B(3,9,4)        =    117.457412    -0.000001    -0.004414   117.452998
	   35 B(3,9,8)        =    121.304168    -0.000003    -0.018480   121.285688
	   36 B(4,7,12)       =    123.575969     0.000001     0.007132   123.583102
	   37 B(4,7,21)       =    120.179514     0.000001     0.003165   120.182678
	   38 B(4,9,8)        =    121.181257     0.000004     0.017203   121.198460
	   39 B(5,10,13)      =    122.577818     0.000001     0.008388   122.586206
	   40 B(5,11,8)       =    123.041948     0.000001     0.014888   123.056836
	   41 B(5,11,14)      =    118.004200     0.000001    -0.000389   118.003811
	   42 B(6,3,9)        =    119.201169     0.000000     0.000697   119.201866
	   43 B(6,3,17)       =    120.476064    -0.000000     0.001886   120.477950
	   44 B(6,12,7)       =    116.913028    -0.000002    -0.011567   116.901461
	   45 B(7,4,9)        =    119.231006     0.000000     0.000764   119.231770
	   46 B(7,4,18)       =    120.479675    -0.000000     0.002193   120.481869
	   47 B(8,1,15)       =    118.466986     0.000001    -0.000336   118.466650
	   48 B(8,11,14)      =    118.952339    -0.000001    -0.014158   118.938181
	   49 B(9,3,17)       =    120.322715    -0.000000    -0.002622   120.320093
	   50 B(9,4,18)       =    120.288474    -0.000000    -0.002969   120.285505
	   51 B(9,8,11)       =    121.512591     0.000003     0.019424   121.532016
	   52 B(10,2,16)      =    119.152182    -0.000000    -0.012537   119.139644
	   53 B(10,5,11)      =    118.797311    -0.000000    -0.009835   118.787475
	   54 B(10,5,19)      =    121.896337     0.000000     0.020454   121.916790
	   55 B(10,13,22)     =    109.259281    -0.000001    -0.004120   109.255161
	   56 B(11,5,19)      =    119.306317    -0.000000    -0.010631   119.295685
	   57 B(12,6,20)      =    116.211829    -0.000002    -0.011798   116.200030
	   58 B(12,7,21)      =    116.244516    -0.000002    -0.010533   116.233984
	   59 D(1,2,10,5)     =      0.147447    -0.000000    -0.009320     0.138127
	   60 D(1,2,10,13)    =   -179.944249    -0.000000    -0.018240  -179.962489
	   61 D(1,8,9,3)      =    105.236482    -0.000000    -0.005157   105.231325
	   62 D(1,8,9,4)      =    -71.943733    -0.000000     0.131901   -71.811832
	   63 D(1,8,11,5)     =      0.979671     0.000000    -0.016232     0.963439
	   64 D(1,8,11,14)    =   -179.477168     0.000000     0.038728  -179.438441
	   65 D(2,1,8,9)      =   -178.560620     0.000000     0.031283  -178.529336
	   66 D(2,1,8,11)     =     -0.843775    -0.000000    -0.007487    -0.851262
	   67 D(2,10,5,11)    =     -0.029116    -0.000000    -0.013380    -0.042496
	   68 D(2,10,5,19)    =   -179.959389    -0.000000    -0.002055  -179.961444
	   69 D(2,10,13,22)   =   -179.940235     0.000000     0.022951  -179.917283
	   70 D(3,6,12,7)     =     -0.064588    -0.000000    -0.054912    -0.119500
	   71 D(3,9,4,7)      =      0.448374    -0.000000    -0.003175     0.445199
	   72 D(3,9,4,18)     =   -179.884271    -0.000000    -0.005638  -179.889909
	   73 D(3,9,8,11)     =    -72.371574    -0.000000     0.036051   -72.335523
	   74 D(4,7,12,6)     =     -0.071544    -0.000000    -0.039874    -0.111418
	   75 D(4,9,3,6)      =     -0.572701    -0.000000    -0.083462    -0.656163
	   76 D(4,9,3,17)     =    179.509419    -0.000000    -0.056796   179.452622
	   77 D(4,9,8,11)     =    110.448211     0.000000     0.173109   110.621320
	   78 D(5,10,2,16)    =   -179.481395     0.000000     0.013671  -179.467725
	   79 D(5,10,13,22)   =     -0.034474    -0.000000     0.013774    -0.020700
	   80 D(5,11,8,9)     =    178.701485    -0.000000    -0.055824   178.645661
	   81 D(6,3,9,8)      =   -177.854109    -0.000000     0.048037  -177.806072
	   82 D(6,12,7,21)    =    179.938151     0.000001     0.127443   180.065594
	   83 D(7,4,9,8)      =    177.733321    -0.000000    -0.135579   177.597741
	   84 D(7,12,6,20)    =   -179.809579     0.000000     0.106979  -179.702600
	   85 D(8,1,2,10)     =      0.307536     0.000000     0.020121     0.327657
	   86 D(8,1,2,16)     =    179.928484     0.000000    -0.003437   179.925047
	   87 D(8,9,3,17)     =      2.228011     0.000000     0.074703     2.302713
	   88 D(8,9,4,18)     =     -2.599324    -0.000000    -0.138043    -2.737367
	   89 D(8,11,5,10)    =     -0.561085     0.000000     0.026758    -0.534327
	   90 D(8,11,5,19)    =    179.371028     0.000000     0.015758   179.386785
	   91 D(9,3,6,12)     =      0.397521     0.000000     0.118251     0.515772
	   92 D(9,3,6,20)     =   -179.867109    -0.000000    -0.049811  -179.916919
	   93 D(9,4,7,12)     =     -0.129220     0.000000     0.068629    -0.060591
	   94 D(9,4,7,21)     =    179.860721    -0.000000    -0.104994   179.755727
	   95 D(9,8,1,15)     =      1.335084     0.000000     0.040498     1.375581
	   96 D(9,8,11,14)    =     -1.755354    -0.000000    -0.000865    -1.756219
	   97 D(10,2,1,15)    =   -179.586877     0.000000     0.010799  -179.576078
	   98 D(10,5,11,14)   =    179.891671    -0.000000    -0.027657   179.864014
	   99 D(11,5,10,13)   =   -179.932525     0.000000    -0.003965  -179.936491
	  100 D(11,8,1,15)    =    179.051929    -0.000000     0.001727   179.053656
	  101 D(12,6,3,17)    =   -179.684727     0.000000     0.091538  -179.593189
	  102 D(12,7,4,18)    =   -179.795924     0.000000     0.071115  -179.724809
	  103 D(13,10,2,16)   =      0.426908    -0.000000     0.004750     0.431659
	  104 D(13,10,5,19)   =      0.137202     0.000000     0.007359     0.144561
	  105 D(14,11,5,19)   =     -0.176216    -0.000000    -0.038658    -0.214873
	  106 D(15,1,2,16)    =      0.034071    -0.000000    -0.012759     0.021312
	  107 D(17,3,6,20)    =      0.050643    -0.000000    -0.076523    -0.025881
	  108 D(18,4,7,21)    =      0.194018    -0.000000    -0.102508     0.091510
	  109 R(3,14)         =      3.223134    -0.000082    -0.000714     3.222419
	 ---------------------------------------------------------------------------
	Successfully symmetrized geometry.
	 Forces used to impose fixed constraints are not included.
	  Forces zeroed: 61 

  ==> Convergence Check <==

  Measures of convergence in internal coordinates in au.
  Criteria marked as inactive (o), active & met (*), and active & unmet ( ).
  ---------------------------------------------------------------------------------------------
   Step     Total Energy     Delta E     MAX Force     RMS Force      MAX Disp      RMS Disp   
  ---------------------------------------------------------------------------------------------
    Convergence Criteria    1.00e-06 *    3.00e-04 *             o    1.20e-03 *             o
  ---------------------------------------------------------------------------------------------
      8    -652.87324753   -1.13e-07 *    4.73e-05 *    1.53e-05 o    3.02e-03      7.88e-04 o  ~
  ---------------------------------------------------------------------------------------------


  **** Optimization is complete! (in 8 steps) ****

  ==> Optimization Summary <==

  Measures of convergence in internal coordinates in au.
  --------------------------------------------------------------------------------------------------------------- ~
   Step         Total Energy             Delta E       MAX Force       RMS Force        MAX Disp        RMS Disp  ~
  --------------------------------------------------------------------------------------------------------------- ~
      1    -652.869138371800   -652.869138371800      0.01847066      0.00480918      0.03304736      0.00958131  ~
      2    -652.872428173448     -0.003289801648      0.00526254      0.00170739      0.03839829      0.00958083  ~
      3    -652.873177489982     -0.000749316534      0.00215846      0.00035269      0.03103395      0.00527200  ~
      4    -652.873234192901     -0.000056702919      0.00068641      0.00013375      0.02150414      0.00376198  ~
      5    -652.873250064404     -0.000015871503      0.00025154      0.00006344      0.00352549      0.00103116  ~
      6    -652.873248978341      0.000001086063      0.00006855      0.00002100      0.00250351      0.00062834  ~
      7    -652.873247419009      0.000001559332      0.00006157      0.00002189      0.00198165      0.00054301  ~
      8    -652.873247532142     -0.000000113133      0.00004727      0.00001541      0.00302132      0.00078805  ~
  --------------------------------------------------------------------------------------------------------------- ~

	Writing optimization data to binary file.
	Final energy is   -652.8732475321425
	Final (previous) structure:
	Cartesian Geometry (in Angstrom)
	    C    -1.3523273022   0.7163912629  -0.7567407931
	    C    -2.4179018803   1.3049992546  -0.0994248747
	    C     2.0799272253   0.1637500461  -0.7985332377
	    C     0.7189285847  -1.6663105905  -1.4604141547
	    C    -1.4077201142   0.7438624154   2.0078478831
	    C     3.1190254504  -0.4170137701  -1.5087461383
	    C     1.8148247449  -2.1694412587  -2.1454443660
	    C    -0.2987088617   0.1238443686  -0.0635897616
	    C     0.8452968658  -0.4722626105  -0.7618989447
	    C    -2.4459196974   1.3171329959   1.2880538847
	    C    -0.3598040499   0.1678824335   1.3189187281
	    N     3.0049396621  -1.5664243081  -2.1786856573
	    O    -3.5152697298   1.9066287822   1.8880311127
	    F     0.6396027317  -0.3814428557   2.0328661511
	    H    -1.3254245381   0.7118519158  -1.8361698258
	    H    -3.2277072011   1.7618459236  -0.6450544259
	    H     2.2272396942   1.0982694421  -0.2785937192
	    H    -0.2207743830  -2.1980060689  -1.4644624193
	    H    -1.3985299720   0.7355016214   3.0870923799
	    H     4.0866814202   0.0632397381  -1.5459109388
	    H     1.7342467731  -3.0984838398  -2.6921817706
	    H    -3.4145261408   1.8497328570   2.8429468192
	Saving final (previous) structure.
			--------------------------
			 OPTKING Finished Execution 
			--------------------------

    Final optimized geometry and variables:
    Molecular point group: c1
    Full point group: C1

    Geometry (in Angstrom), charge = 0, multiplicity = 1:

    C           -1.352327302162     0.716391262877    -0.756740793091
    C           -2.417901880251     1.304999254600    -0.099424874705
    C            2.079927225315     0.163750046124    -0.798533237710
    C            0.718928584729    -1.666310590456    -1.460414154677
    C           -1.407720114202     0.743862415433     2.007847883067
    C            3.119025450397    -0.417013770123    -1.508746138326
    C            1.814824744920    -2.169441258735    -2.145444366034
    C           -0.298708861669     0.123844368558    -0.063589761634
    C            0.845296865846    -0.472262610467    -0.761898944651
    C           -2.445919697425     1.317132995929     1.288053884702
    C           -0.359804049901     0.167882433493     1.318918728120
    N            3.004939662054    -1.566424308149    -2.178685657324
    O           -3.515269729797     1.906628782197     1.888031112732
    F            0.639602731732    -0.381442855695     2.032866151109
    H           -1.325424538072     0.711851915761    -1.836169825791
    H           -3.227707201099     1.761845923600    -0.645054425887
    H            2.227239694213     1.098269442071    -0.278593719179
    H           -0.220774383040    -2.198006068895    -1.464462419287
    H           -1.398529972048     0.735501621378     3.087092379901
    H            4.086681420227     0.063239738091    -1.545910938849
    H            1.734246773142    -3.098483839764    -2.692181770635
    H           -3.414526140803     1.849732857019     2.842946819207

	Cleaning optimization helper files.

*** Psi4 exiting successfully. Buy a developer a beer!
