
    -----------------------------------------------------------------------
          Psi4: An Open-Source Ab Initio Electronic Structure Package
                               Psi4 1.1 release

                         Git: Rev {HEAD} add49b9 


    R. M. Parrish, L. A. Burns, D. G. A. Smith, A. C. Simmonett,
    A. E. DePrince III, E. G. Hohenstein, U. Bozkaya, A. Yu. Sokolov,
    R. Di Remigio, R. M. Richard, J. F. Gonthier, A. M. James,
    H. R. McAlexander, A. Kumar, M. Saitow, X. Wang, B. P. Pritchard,
    P. Verma, H. F. Schaefer III, K. Patkowski, R. A. King, E. F. Valeev,
    F. A. Evangelista, J. M. Turney, T. D. Crawford, and C. D. Sherrill,
    J. Chem. Theory Comput. in press (2017).
    (doi: 10.1021/acs.jctc.7b00174)

    -----------------------------------------------------------------------


    Psi4 started on: Sunday, 12 November 2017 07:35AM

    Process ID:  15857
    PSIDATADIR: /cbio/jclab/home/chayas/anaconda/envs/py35/share/psi4
    Memory:     500.0 MiB
    Threads:    8
    
  ==> Input File <==

--------------------------------------------------------------------------

memory 5 Gb

molecule phepyrOH_cation {
  symmetry C1
  1 1 
  C      1.885   -1.036   -0.112
  C      2.878   -1.652   2.002
  C      0.807   -0.463   0.561
  C      1.800   -1.079   2.676
  C      4.322   -3.578   0.071
  C      4.835   -1.445   -0.924
  C      5.402   -4.121   -0.611
  C      5.902   -2.042   -1.581
  C      2.921   -1.631   0.608
  C      4.040   -2.225   -0.090
  C      0.764   -0.484   1.955
  N      6.152   -3.347   -1.407
  O      -0.288   0.076   2.612
  H      1.904   -1.012   -1.199
  H      3.678   -2.112   2.578
  H      0.003   -0.001   -0.006
  H      1.772   -1.098   3.762
  H      3.718   -4.211   0.715
  H      4.638   -0.387   -1.068
  H      5.694   -5.160   -0.546
  H      6.571   -1.515   -2.246
  H      6.941   -3.766   -1.898
  H      -0.175   -0.018   3.571
  units Angstrom
}

dih_string = "1 9 10 5 240"
set optking fixed_dihedral = $dih_string

optimize('MP2/aug-cc-PVTZ')
--------------------------------------------------------------------------

  Memory set to   4.657 GiB by Python driver.
gradient() will perform analytic gradient computation.

*** tstart() called on gpu-2-7.local
*** at Sun Nov 12 07:35:22 2017

    SCF Algorithm Type (re)set to DF.

*** tstart() called on gpu-2-7.local
*** at Sun Nov 12 07:35:22 2017

   => Loading Basis Set <=

    Name: AUG-CC-PVTZ
    Role: ORBITAL
    Keyword: BASIS
    atoms 1-11  entry C          line   221 file /cbio/jclab/home/chayas/anaconda/envs/py35/share/psi4/basis/aug-cc-pvtz.gbs 
    atoms 12    entry N          line   267 file /cbio/jclab/home/chayas/anaconda/envs/py35/share/psi4/basis/aug-cc-pvtz.gbs 
    atoms 13    entry O          line   313 file /cbio/jclab/home/chayas/anaconda/envs/py35/share/psi4/basis/aug-cc-pvtz.gbs 
    atoms 14-23 entry H          line    34 file /cbio/jclab/home/chayas/anaconda/envs/py35/share/psi4/basis/aug-cc-pvtz.gbs 


         ---------------------------------------------------------
                                   SCF
            by Justin Turney, Rob Parrish, and Andy Simmonett
                              RHF Reference
                        8 Threads,   4768 MiB Core
         ---------------------------------------------------------

  ==> Geometry <==

    Molecular point group: c1
    Full point group: C1

    Geometry (in Angstrom), charge = 1, multiplicity = 1:

       Center              X                  Y                   Z               Mass       
    ------------   -----------------  -----------------  -----------------  -----------------
           C         -1.271904475084     0.719939946466    -0.579397796739    12.000000000000
           C         -0.278904475084     0.103939946466     1.534602203261    12.000000000000
           C         -2.349904475084     1.292939946466     0.093602203261    12.000000000000
           C         -1.356904475084     0.676939946466     2.208602203261    12.000000000000
           C          1.165095524916    -1.822060053534    -0.396397796739    12.000000000000
           C          1.678095524916     0.310939946466    -1.391397796739    12.000000000000
           C          2.245095524916    -2.365060053534    -1.078397796739    12.000000000000
           C          2.745095524916    -0.286060053534    -2.048397796739    12.000000000000
           C         -0.235904475084     0.124939946466     0.140602203261    12.000000000000
           C          0.883095524916    -0.469060053534    -0.557397796739    12.000000000000
           C         -2.392904475084     1.271939946466     1.487602203261    12.000000000000
           N          2.995095524916    -1.591060053534    -1.874397796739    14.003074004780
           O         -3.444904475084     1.831939946466     2.144602203261    15.994914619560
           H         -1.252904475084     0.743939946466    -1.666397796739     1.007825032070
           H          0.521095524916    -0.356060053534     2.110602203261     1.007825032070
           H         -3.153904475084     1.754939946466    -0.473397796739     1.007825032070
           H         -1.384904475084     0.657939946466     3.294602203261     1.007825032070
           H          0.561095524916    -2.455060053534     0.247602203261     1.007825032070
           H          1.481095524916     1.368939946466    -1.535397796739     1.007825032070
           H          2.537095524916    -3.404060053534    -1.013397796739     1.007825032070
           H          3.414095524916     0.240939946466    -2.713397796739     1.007825032070
           H          3.784095524916    -2.010060053534    -2.365397796739     1.007825032070
           H         -3.331904475084     1.737939946466     3.103602203261     1.007825032070

  Running in c1 symmetry.

  Rotational constants: A =      0.09611  B =      0.01302  C =      0.01220 [cm^-1]
  Rotational constants: A =   2881.18777  B =    390.47790  C =    365.69373 [MHz]
  Nuclear repulsion =  712.197153960717628

  Charge       = 1
  Multiplicity = 1
  Electrons    = 90
  Nalpha       = 45
  Nbeta        = 45

  ==> Algorithm <==

  SCF Algorithm Type is DF.
  DIIS enabled.
  MOM disabled.
  Fractional occupation disabled.
  Guess Type is SAD.
  Energy threshold   = 1.00e-10
  Density threshold  = 1.00e-10
  Integral threshold = 0.00e+00

  ==> Primary Basis <==

  Basis Set: AUG-CC-PVTZ
    Blend: AUG-CC-PVTZ
    Number of shells: 272
    Number of basis function: 828
    Number of Cartesian functions: 965
    Spherical Harmonics?: true
    Max angular momentum: 3

   => Loading Basis Set <=

    Name: (AUG-CC-PVTZ AUX)
    Role: JKFIT
    Keyword: DF_BASIS_SCF
    atoms 1-11  entry C          line   161 file /cbio/jclab/home/chayas/anaconda/envs/py35/share/psi4/basis/aug-cc-pvtz-jkfit.gbs 
    atoms 12    entry N          line   223 file /cbio/jclab/home/chayas/anaconda/envs/py35/share/psi4/basis/aug-cc-pvtz-jkfit.gbs 
    atoms 13    entry O          line   285 file /cbio/jclab/home/chayas/anaconda/envs/py35/share/psi4/basis/aug-cc-pvtz-jkfit.gbs 
    atoms 14-23 entry H          line    69 file /cbio/jclab/home/chayas/anaconda/envs/py35/share/psi4/basis/aug-cc-pvtz-jkfit.gbs 

  ==> Pre-Iterations <==

   -------------------------------------------------------
    Irrep   Nso     Nmo     Nalpha   Nbeta   Ndocc  Nsocc
   -------------------------------------------------------
     A        828     828       0       0       0       0
   -------------------------------------------------------
    Total     828     828      45      45      45       0
   -------------------------------------------------------

  ==> Integral Setup <==

  ==> DFJK: Density-Fitted J/K Matrices <==

    J tasked:                  Yes
    K tasked:                  Yes
    wK tasked:                  No
    OpenMP threads:              8
    Integrals threads:           8
    Memory (MB):              3576
    Algorithm:                Disk
    Integral Cache:           NONE
    Schwarz Cutoff:          1E-12
    Fitting Condition:       1E-12

   => Auxiliary Basis Set <=

  Basis Set: (AUG-CC-PVTZ AUX)
    Blend: AUG-CC-PVTZ-JKFIT
    Number of shells: 530
    Number of basis function: 1812
    Number of Cartesian functions: 2253
    Spherical Harmonics?: true
    Max angular momentum: 4

  Minimum eigenvalue in the overlap matrix is 5.6326145259E-07.
  Using Symmetric Orthogonalization.

  SCF Guess: Superposition of Atomic Densities via on-the-fly atomic UHF.

  ==> Iterations <==

                           Total Energy        Delta E     RMS |[F,P]|

   @DF-RHF iter   0:  -553.94255234519551   -5.53943e+02   2.06136e-02 
   @DF-RHF iter   1:  -551.17924055892558    2.76331e+00   2.41936e-03 
   @DF-RHF iter   2:  -551.55666916079861   -3.77429e-01   1.24118e-03 DIIS
   @DF-RHF iter   3:  -551.64783141469911   -9.11623e-02   4.52861e-04 DIIS
   @DF-RHF iter   4:  -551.66891557979386   -2.10842e-02   1.85013e-04 DIIS
   @DF-RHF iter   5:  -551.67244562045778   -3.53004e-03   5.60778e-05 DIIS
   @DF-RHF iter   6:  -551.67297377469470   -5.28154e-04   2.02481e-05 DIIS
   @DF-RHF iter   7:  -551.67303435550468   -6.05808e-05   7.75546e-06 DIIS
   @DF-RHF iter   8:  -551.67304068974363   -6.33424e-06   2.12663e-06 DIIS
   @DF-RHF iter   9:  -551.67304170498130   -1.01524e-06   1.24083e-06 DIIS
   @DF-RHF iter  10:  -551.67304202223670   -3.17255e-07   5.68492e-07 DIIS
   @DF-RHF iter  11:  -551.67304210009161   -7.78549e-08   1.22926e-07 DIIS
   @DF-RHF iter  12:  -551.67304210802786   -7.93625e-09   7.02343e-08 DIIS
   @DF-RHF iter  13:  -551.67304210883594   -8.08086e-10   2.34234e-08 DIIS
   @DF-RHF iter  14:  -551.67304210892871   -9.27685e-11   8.08389e-09 DIIS
   @DF-RHF iter  15:  -551.67304210895247   -2.37605e-11   3.87246e-09 DIIS
   @DF-RHF iter  16:  -551.67304210895554   -3.06954e-12   1.87663e-09 DIIS
   @DF-RHF iter  17:  -551.67304210896373   -8.18545e-12   8.26392e-10 DIIS
   @DF-RHF iter  18:  -551.67304210893781    2.59206e-11   3.80957e-10 DIIS
   @DF-RHF iter  19:  -551.67304210896032   -2.25100e-11   1.65363e-10 DIIS
   @DF-RHF iter  20:  -551.67304210895315    7.16227e-12   5.99121e-11 DIIS

  ==> Post-Iterations <==

    Orbital Energies (a.u.)
    -----------------------

    Doubly Occupied:                                                      

       1A    -20.695562     2A    -15.841709     3A    -11.488464  
       4A    -11.488383     5A    -11.447474     6A    -11.424464  
       7A    -11.419110     8A    -11.418981     9A    -11.373196  
      10A    -11.371666    11A    -11.367857    12A    -11.352474  
      13A    -11.349024    14A     -1.517201    15A     -1.510906  
      16A     -1.320157    17A     -1.261814    18A     -1.241461  
      19A     -1.152408    20A     -1.144473    21A     -1.070603  
      22A     -1.055299    23A     -0.971131    24A     -0.966787  
      25A     -0.946297    26A     -0.873085    27A     -0.858643  
      28A     -0.849297    29A     -0.821850    30A     -0.800284  
      31A     -0.787634    32A     -0.775281    33A     -0.750503  
      34A     -0.729938    35A     -0.716340    36A     -0.711480  
      37A     -0.697481    38A     -0.682459    39A     -0.648347  
      40A     -0.620483    41A     -0.611275    42A     -0.574120  
      43A     -0.540190    44A     -0.464659    45A     -0.435873  

    Virtual:                                                              

      46A     -0.102804    47A     -0.086910    48A     -0.067378  
      49A     -0.063337    50A     -0.059619    51A     -0.052656  
      52A     -0.042172    53A     -0.039903    54A     -0.038209  
      55A     -0.031242    56A     -0.023725    57A     -0.021469  
      58A     -0.014118    59A     -0.010141    60A     -0.003960  
      61A     -0.002572    62A     -0.001149    63A      0.008287  
      64A      0.009281    65A      0.012336    66A      0.013292  
      67A      0.018433    68A      0.019054    69A      0.026649  
      70A      0.029928    71A      0.032813    72A      0.034221  
      73A      0.037191    74A      0.039779    75A      0.043937  
      76A      0.045873    77A      0.048696    78A      0.053296  
      79A      0.056584    80A      0.062630    81A      0.063246  
      82A      0.071044    83A      0.076047    84A      0.079072  
      85A      0.083939    86A      0.086323    87A      0.092692  
      88A      0.094951    89A      0.097064    90A      0.104871  
      91A      0.107362    92A      0.112226    93A      0.118232  
      94A      0.121834    95A      0.130368    96A      0.131827  
      97A      0.133703    98A      0.134522    99A      0.141117  
     100A      0.143434   101A      0.149962   102A      0.158000  
     103A      0.161681   104A      0.162164   105A      0.166313  
     106A      0.167786   107A      0.170083   108A      0.174938  
     109A      0.175520   110A      0.177298   111A      0.184549  
     112A      0.186604   113A      0.188546   114A      0.195806  
     115A      0.197990   116A      0.203168   117A      0.211030  
     118A      0.212723   119A      0.213379   120A      0.219213  
     121A      0.221817   122A      0.226808   123A      0.227988  
     124A      0.232377   125A      0.234065   126A      0.238881  
     127A      0.243816   128A      0.248218   129A      0.251896  
     130A      0.257519   131A      0.260499   132A      0.264507  
     133A      0.272123   134A      0.279442   135A      0.280870  
     136A      0.282423   137A      0.288661   138A      0.293705  
     139A      0.296297   140A      0.304208   141A      0.311201  
     142A      0.314629   143A      0.316106   144A      0.320416  
     145A      0.323328   146A      0.326089   147A      0.328879  
     148A      0.330566   149A      0.334407   150A      0.341022  
     151A      0.342618   152A      0.345421   153A      0.348132  
     154A      0.350083   155A      0.353761   156A      0.356399  
     157A      0.359452   158A      0.362666   159A      0.370571  
     160A      0.372568   161A      0.373063   162A      0.375470  
     163A      0.379359   164A      0.385493   165A      0.388900  
     166A      0.389977   167A      0.394279   168A      0.399343  
     169A      0.403831   170A      0.405782   171A      0.408448  
     172A      0.413315   173A      0.415746   174A      0.418801  
     175A      0.427638   176A      0.429118   177A      0.430842  
     178A      0.436150   179A      0.439599   180A      0.448294  
     181A      0.452303   182A      0.455037   183A      0.457073  
     184A      0.466854   185A      0.471621   186A      0.480442  
     187A      0.481634   188A      0.484326   189A      0.488518  
     190A      0.492563   191A      0.499276   192A      0.502643  
     193A      0.518231   194A      0.520502   195A      0.523024  
     196A      0.538872   197A      0.541210   198A      0.544955  
     199A      0.557475   200A      0.560059   201A      0.564495  
     202A      0.568461   203A      0.572622   204A      0.577416  
     205A      0.583212   206A      0.590495   207A      0.594723  
     208A      0.598643   209A      0.603013   210A      0.607085  
     211A      0.608879   212A      0.616272   213A      0.620639  
     214A      0.622887   215A      0.626739   216A      0.632597  
     217A      0.635215   218A      0.641007   219A      0.645507  
     220A      0.655879   221A      0.668485   222A      0.676461  
     223A      0.681788   224A      0.688366   225A      0.692570  
     226A      0.698440   227A      0.705770   228A      0.709624  
     229A      0.714507   230A      0.723127   231A      0.726237  
     232A      0.729415   233A      0.740984   234A      0.745000  
     235A      0.749503   236A      0.752918   237A      0.760039  
     238A      0.760216   239A      0.765852   240A      0.771338  
     241A      0.774282   242A      0.777866   243A      0.779860  
     244A      0.787642   245A      0.790432   246A      0.792186  
     247A      0.795745   248A      0.799020   249A      0.804203  
     250A      0.807601   251A      0.808402   252A      0.810366  
     253A      0.820279   254A      0.825364   255A      0.828652  
     256A      0.831968   257A      0.842219   258A      0.846797  
     259A      0.853932   260A      0.854219   261A      0.859663  
     262A      0.864840   263A      0.868763   264A      0.875050  
     265A      0.879403   266A      0.885105   267A      0.892075  
     268A      0.895648   269A      0.898798   270A      0.902443  
     271A      0.915625   272A      0.918007   273A      0.919377  
     274A      0.921865   275A      0.927409   276A      0.937765  
     277A      0.939366   278A      0.942979   279A      0.947495  
     280A      0.951860   281A      0.952165   282A      0.961641  
     283A      0.967185   284A      0.969405   285A      0.975315  
     286A      0.978487   287A      0.982551   288A      0.989583  
     289A      0.990165   290A      0.992691   291A      0.995510  
     292A      0.997771   293A      1.005190   294A      1.007401  
     295A      1.011172   296A      1.016893   297A      1.024513  
     298A      1.027439   299A      1.033281   300A      1.033802  
     301A      1.041854   302A      1.045344   303A      1.053231  
     304A      1.057676   305A      1.062234   306A      1.067106  
     307A      1.072706   308A      1.079497   309A      1.082522  
     310A      1.087096   311A      1.091467   312A      1.094269  
     313A      1.103769   314A      1.106928   315A      1.111802  
     316A      1.115746   317A      1.127286   318A      1.130687  
     319A      1.139214   320A      1.140473   321A      1.142739  
     322A      1.150453   323A      1.154573   324A      1.165313  
     325A      1.169205   326A      1.172263   327A      1.175325  
     328A      1.182171   329A      1.194691   330A      1.197266  
     331A      1.204424   332A      1.206083   333A      1.220036  
     334A      1.227505   335A      1.234168   336A      1.239746  
     337A      1.242991   338A      1.250816   339A      1.261387  
     340A      1.265077   341A      1.270252   342A      1.277156  
     343A      1.281926   344A      1.286784   345A      1.297387  
     346A      1.301614   347A      1.304602   348A      1.320039  
     349A      1.326677   350A      1.329309   351A      1.331360  
     352A      1.344559   353A      1.350523   354A      1.358640  
     355A      1.362351   356A      1.375651   357A      1.383152  
     358A      1.389473   359A      1.391614   360A      1.399523  
     361A      1.402368   362A      1.407893   363A      1.414111  
     364A      1.418551   365A      1.429332   366A      1.437924  
     367A      1.444416   368A      1.454026   369A      1.456018  
     370A      1.461474   371A      1.470541   372A      1.485506  
     373A      1.496355   374A      1.504233   375A      1.506135  
     376A      1.508943   377A      1.515792   378A      1.524494  
     379A      1.531263   380A      1.538882   381A      1.544736  
     382A      1.545319   383A      1.557618   384A      1.560091  
     385A      1.571448   386A      1.587568   387A      1.596902  
     388A      1.602648   389A      1.604405   390A      1.609160  
     391A      1.627309   392A      1.630083   393A      1.635212  
     394A      1.641881   395A      1.660267   396A      1.672123  
     397A      1.682272   398A      1.686551   399A      1.693081  
     400A      1.695064   401A      1.704227   402A      1.707199  
     403A      1.719434   404A      1.730772   405A      1.732565  
     406A      1.743804   407A      1.744802   408A      1.750576  
     409A      1.762878   410A      1.768801   411A      1.776165  
     412A      1.784787   413A      1.798734   414A      1.800049  
     415A      1.810122   416A      1.815252   417A      1.821138  
     418A      1.825367   419A      1.829636   420A      1.837921  
     421A      1.848777   422A      1.856082   423A      1.870165  
     424A      1.874582   425A      1.883293   426A      1.890979  
     427A      1.895694   428A      1.904650   429A      1.908615  
     430A      1.913650   431A      1.921067   432A      1.925500  
     433A      1.940798   434A      1.945228   435A      1.951517  
     436A      1.958338   437A      1.969032   438A      1.980946  
     439A      1.991168   440A      2.002398   441A      2.004079  
     442A      2.016097   443A      2.024257   444A      2.042929  
     445A      2.045876   446A      2.049136   447A      2.051844  
     448A      2.063958   449A      2.068016   450A      2.074082  
     451A      2.080518   452A      2.089005   453A      2.095697  
     454A      2.109993   455A      2.111258   456A      2.125038  
     457A      2.146846   458A      2.154225   459A      2.162811  
     460A      2.167954   461A      2.188841   462A      2.194656  
     463A      2.202469   464A      2.213233   465A      2.219099  
     466A      2.236819   467A      2.246763   468A      2.255358  
     469A      2.256518   470A      2.265963   471A      2.282260  
     472A      2.295711   473A      2.299521   474A      2.304347  
     475A      2.305533   476A      2.321939   477A      2.331514  
     478A      2.345823   479A      2.362046   480A      2.376252  
     481A      2.389262   482A      2.393503   483A      2.401639  
     484A      2.405489   485A      2.411732   486A      2.422768  
     487A      2.438332   488A      2.449293   489A      2.465642  
     490A      2.479057   491A      2.490254   492A      2.499158  
     493A      2.511489   494A      2.525774   495A      2.541183  
     496A      2.547425   497A      2.555261   498A      2.570355  
     499A      2.582318   500A      2.586482   501A      2.599043  
     502A      2.630262   503A      2.635325   504A      2.647912  
     505A      2.685180   506A      2.693234   507A      2.715322  
     508A      2.719171   509A      2.734208   510A      2.761182  
     511A      2.771220   512A      2.787392   513A      2.804545  
     514A      2.832907   515A      2.846391   516A      2.874675  
     517A      2.888435   518A      2.935242   519A      2.946494  
     520A      2.951347   521A      2.975481   522A      2.985514  
     523A      2.997222   524A      3.019164   525A      3.045485  
     526A      3.060597   527A      3.077901   528A      3.095476  
     529A      3.102304   530A      3.118057   531A      3.133808  
     532A      3.144219   533A      3.157670   534A      3.161247  
     535A      3.175060   536A      3.181362   537A      3.194984  
     538A      3.221431   539A      3.234094   540A      3.242997  
     541A      3.243183   542A      3.263974   543A      3.271006  
     544A      3.275692   545A      3.288712   546A      3.296046  
     547A      3.311836   548A      3.316812   549A      3.320494  
     550A      3.335704   551A      3.338053   552A      3.346157  
     553A      3.366630   554A      3.368039   555A      3.378408  
     556A      3.386980   557A      3.393939   558A      3.402281  
     559A      3.413243   560A      3.416680   561A      3.430175  
     562A      3.432607   563A      3.435027   564A      3.444918  
     565A      3.447626   566A      3.472706   567A      3.481944  
     568A      3.484381   569A      3.490838   570A      3.505115  
     571A      3.517039   572A      3.532894   573A      3.537352  
     574A      3.550786   575A      3.557765   576A      3.561326  
     577A      3.572879   578A      3.582161   579A      3.600168  
     580A      3.607092   581A      3.619125   582A      3.626927  
     583A      3.632963   584A      3.643666   585A      3.652505  
     586A      3.661455   587A      3.674212   588A      3.681215  
     589A      3.688942   590A      3.696095   591A      3.703851  
     592A      3.717252   593A      3.723902   594A      3.726176  
     595A      3.738024   596A      3.748715   597A      3.761887  
     598A      3.767846   599A      3.784333   600A      3.797627  
     601A      3.799487   602A      3.802739   603A      3.810808  
     604A      3.813571   605A      3.823365   606A      3.840243  
     607A      3.843351   608A      3.853283   609A      3.862554  
     610A      3.872397   611A      3.882077   612A      3.887426  
     613A      3.893441   614A      3.898958   615A      3.902159  
     616A      3.908420   617A      3.928253   618A      3.937225  
     619A      3.947821   620A      3.956477   621A      3.962317  
     622A      3.970642   623A      3.986734   624A      4.006539  
     625A      4.010655   626A      4.016140   627A      4.023749  
     628A      4.025954   629A      4.034446   630A      4.040169  
     631A      4.046363   632A      4.058039   633A      4.068045  
     634A      4.077174   635A      4.081254   636A      4.093546  
     637A      4.110774   638A      4.115915   639A      4.124798  
     640A      4.131305   641A      4.149104   642A      4.159717  
     643A      4.162753   644A      4.173693   645A      4.179974  
     646A      4.196199   647A      4.206030   648A      4.213535  
     649A      4.224699   650A      4.230503   651A      4.231216  
     652A      4.233344   653A      4.244356   654A      4.254929  
     655A      4.268029   656A      4.270595   657A      4.275880  
     658A      4.294181   659A      4.301043   660A      4.306052  
     661A      4.318083   662A      4.328720   663A      4.335076  
     664A      4.339104   665A      4.343039   666A      4.364541  
     667A      4.367376   668A      4.367637   669A      4.381814  
     670A      4.383344   671A      4.394705   672A      4.409869  
     673A      4.427820   674A      4.432275   675A      4.441094  
     676A      4.456324   677A      4.465015   678A      4.470933  
     679A      4.485176   680A      4.504327   681A      4.526681  
     682A      4.539122   683A      4.571844   684A      4.587896  
     685A      4.588414   686A      4.605547   687A      4.613115  
     688A      4.621441   689A      4.629721   690A      4.642937  
     691A      4.646295   692A      4.675916   693A      4.692280  
     694A      4.708800   695A      4.719534   696A      4.731671  
     697A      4.745716   698A      4.751999   699A      4.762097  
     700A      4.768936   701A      4.804419   702A      4.812480  
     703A      4.816293   704A      4.829893   705A      4.834611  
     706A      4.845731   707A      4.858750   708A      4.860161  
     709A      4.877641   710A      4.895713   711A      4.908921  
     712A      4.912132   713A      4.925651   714A      4.930834  
     715A      4.937824   716A      4.962948   717A      4.971246  
     718A      4.978823   719A      4.991387   720A      5.009506  
     721A      5.011247   722A      5.019501   723A      5.036445  
     724A      5.043765   725A      5.048055   726A      5.060098  
     727A      5.080895   728A      5.082752   729A      5.092840  
     730A      5.113132   731A      5.126021   732A      5.163492  
     733A      5.175301   734A      5.177882   735A      5.193623  
     736A      5.211651   737A      5.215961   738A      5.220717  
     739A      5.228139   740A      5.263058   741A      5.270187  
     742A      5.275206   743A      5.309454   744A      5.320046  
     745A      5.341881   746A      5.348671   747A      5.365573  
     748A      5.372978   749A      5.392798   750A      5.404981  
     751A      5.415887   752A      5.451975   753A      5.485302  
     754A      5.498727   755A      5.536313   756A      5.554617  
     757A      5.576270   758A      5.589341   759A      5.605596  
     760A      5.610145   761A      5.636895   762A      5.653803  
     763A      5.673685   764A      5.694632   765A      5.723711  
     766A      5.731313   767A      5.775225   768A      5.810851  
     769A      5.834455   770A      5.891223   771A      5.926568  
     772A      5.940342   773A      5.977840   774A      5.979952  
     775A      6.020301   776A      6.024868   777A      6.092264  
     778A      6.134599   779A      6.152392   780A      6.199490  
     781A      6.229708   782A      6.237591   783A      6.296867  
     784A      6.340558   785A      6.357848   786A      6.397643  
     787A      6.412436   788A      6.461992   789A      6.470037  
     790A      6.515289   791A      6.561490   792A      6.651928  
     793A      6.658892   794A      6.740754   795A      6.773393  
     796A      6.801273   797A      6.802234   798A      6.835876  
     799A      6.877409   800A      6.908885   801A      6.952834  
     802A      6.975383   803A      6.983423   804A      7.109502  
     805A      7.168228   806A      7.327631   807A      7.339411  
     808A      7.447937   809A      7.540248   810A      7.596968  
     811A      7.609621   812A      7.661934   813A      7.919108  
     814A      8.295718   815A      8.547515   816A     15.986316  
     817A     16.163836   818A     16.450356   819A     16.611085  
     820A     16.902769   821A     18.716617   822A     19.103367  
     823A     19.332365   824A     19.641755   825A     19.931470  
     826A     20.037849   827A     20.212291   828A     21.737789  

    Final Occupation by Irrep:
              A 
    DOCC [    45 ]

  Energy converged.

  @DF-RHF Final Energy:  -551.67304210895315

   => Energetics <=

    Nuclear Repulsion Energy =            712.1971539607176283
    One-Electron Energy =               -2147.4481404075045248
    Two-Electron Energy =                 883.5779443378338556
    DFT Exchange-Correlation Energy =       0.0000000000000000
    Empirical Dispersion Energy =           0.0000000000000000
    PCM Polarization Energy =               0.0000000000000000
    EFP Energy =                            0.0000000000000000
    Total Energy =                       -551.6730421089531546



Properties will be evaluated at   0.000000,   0.000000,   0.000000 Bohr

Properties computed using the SCF density matrix

  Nuclear Dipole Moment: (a.u.)
     X:     2.9512      Y:    -1.5996      Z:    -0.9320

  Electronic Dipole Moment: (a.u.)
     X:     0.5892      Y:    -0.2996      Z:    -0.6785

  Dipole Moment: (a.u.)
     X:     3.5404      Y:    -1.8992      Z:    -1.6105     Total:     4.3284

  Dipole Moment: (Debye)
     X:     8.9988      Y:    -4.8273      Z:    -4.0934     Total:    11.0017


*** tstop() called on gpu-2-7.local at Sun Nov 12 07:42:57 2017
Module time:
	user time   =    1077.42 seconds =      17.96 minutes
	system time =      49.65 seconds =       0.83 minutes
	total time  =        455 seconds =       7.58 minutes
Total time:
	user time   =    1077.43 seconds =      17.96 minutes
	system time =      49.65 seconds =       0.83 minutes
	total time  =        455 seconds =       7.58 minutes

  //>>>>>>>>>>>>>>>>>>>>>>>>>>>>>>>>>>>//
  //               DFMP2               //
  //<<<<<<<<<<<<<<<<<<<<<<<<<<<<<<<<<<<//

   => Loading Basis Set <=

    Name: (AUG-CC-PVTZ AUX)
    Role: RIFIT
    Keyword: DF_BASIS_MP2
    atoms 1-11  entry C          line   147 file /cbio/jclab/home/chayas/anaconda/envs/py35/share/psi4/basis/aug-cc-pvtz-ri.gbs 
    atoms 12    entry N          line   205 file /cbio/jclab/home/chayas/anaconda/envs/py35/share/psi4/basis/aug-cc-pvtz-ri.gbs 
    atoms 13    entry O          line   263 file /cbio/jclab/home/chayas/anaconda/envs/py35/share/psi4/basis/aug-cc-pvtz-ri.gbs 
    atoms 14-23 entry H          line    29 file /cbio/jclab/home/chayas/anaconda/envs/py35/share/psi4/basis/aug-cc-pvtz-ri.gbs 

	 --------------------------------------------------------
	                          DF-MP2                         
	      2nd-Order Density-Fitted Moller-Plesset Theory     
	              RMP2 Wavefunction,   8 Threads             
	                                                         
	        Rob Parrish, Justin Turney, Andy Simmonett,      
	           Ed Hohenstein, and C. David Sherrill          
	 --------------------------------------------------------

   => Auxiliary Basis Set <=

  Basis Set: (AUG-CC-PVTZ AUX)
    Blend: AUG-CC-PVTZ-RI
    Number of shells: 504
    Number of basis function: 1838
    Number of Cartesian functions: 2318
    Spherical Harmonics?: true
    Max angular momentum: 4

	 --------------------------------------------------------
	                 NBF =   828, NAUX =  1838
	 --------------------------------------------------------
	   CLASS    FOCC     OCC    AOCC    AVIR     VIR    FVIR
	   PAIRS       0      45      45     783     783       0
	 --------------------------------------------------------


         ------------------------------------------------------------
                                     CPHF                           
                                  Rob Parrish                       
         ------------------------------------------------------------

  ==> Geometry <==

    Molecular point group: c1
    Full point group: C1

    Geometry (in Angstrom), charge = 1, multiplicity = 1:

       Center              X                  Y                   Z               Mass       
    ------------   -----------------  -----------------  -----------------  -----------------
           C         -1.271904475084     0.719939946466    -0.579397796739    12.000000000000
           C         -0.278904475084     0.103939946466     1.534602203261    12.000000000000
           C         -2.349904475084     1.292939946466     0.093602203261    12.000000000000
           C         -1.356904475084     0.676939946466     2.208602203261    12.000000000000
           C          1.165095524916    -1.822060053534    -0.396397796739    12.000000000000
           C          1.678095524916     0.310939946466    -1.391397796739    12.000000000000
           C          2.245095524916    -2.365060053534    -1.078397796739    12.000000000000
           C          2.745095524916    -0.286060053534    -2.048397796739    12.000000000000
           C         -0.235904475084     0.124939946466     0.140602203261    12.000000000000
           C          0.883095524916    -0.469060053534    -0.557397796739    12.000000000000
           C         -2.392904475084     1.271939946466     1.487602203261    12.000000000000
           N          2.995095524916    -1.591060053534    -1.874397796739    14.003074004780
           O         -3.444904475084     1.831939946466     2.144602203261    15.994914619560
           H         -1.252904475084     0.743939946466    -1.666397796739     1.007825032070
           H          0.521095524916    -0.356060053534     2.110602203261     1.007825032070
           H         -3.153904475084     1.754939946466    -0.473397796739     1.007825032070
           H         -1.384904475084     0.657939946466     3.294602203261     1.007825032070
           H          0.561095524916    -2.455060053534     0.247602203261     1.007825032070
           H          1.481095524916     1.368939946466    -1.535397796739     1.007825032070
           H          2.537095524916    -3.404060053534    -1.013397796739     1.007825032070
           H          3.414095524916     0.240939946466    -2.713397796739     1.007825032070
           H          3.784095524916    -2.010060053534    -2.365397796739     1.007825032070
           H         -3.331904475084     1.737939946466     3.103602203261     1.007825032070

  Nuclear repulsion =  712.197153960717628
  Reference energy  = -551.673042108953155

  ==> Basis Set <==

  Basis Set: AUG-CC-PVTZ
    Blend: AUG-CC-PVTZ
    Number of shells: 272
    Number of basis function: 828
    Number of Cartesian functions: 965
    Spherical Harmonics?: true
    Max angular momentum: 3

  ==> CGRSolver (by Rob Parrish) <==

   Number of roots    =         1
   Preconditioning    =    JACOBI
   Convergence cutoff =     1E-06
   Maximum iterations =       100

  ==> CPHFRHamiltonian (by Rob Parrish) <== 

  ==> DFJK: Density-Fitted J/K Matrices <==

    J tasked:                  Yes
    K tasked:                  Yes
    wK tasked:                  No
    OpenMP threads:              8
    Integrals threads:           8
    Memory (MB):              3576
    Algorithm:                Disk
    Integral Cache:           NONE
    Schwarz Cutoff:          1E-12
    Fitting Condition:       1E-12

   => Auxiliary Basis Set <=

  Basis Set: (AUG-CC-PVTZ AUX)
    Blend: AUG-CC-PVTZ-JKFIT
    Number of shells: 530
    Number of basis function: 1812
    Number of Cartesian functions: 2253
    Spherical Harmonics?: true
    Max angular momentum: 4

  ==> CPHF Iterations <==

  => Iterations <=

             Iter  Converged  Remaining    Residual
  CGR           1          0          1   1.060E-01
  CGR           2          0          1   4.753E-02
  CGR           3          0          1   2.788E-02
  CGR           4          0          1   8.814E-03
  CGR           5          0          1   3.614E-03
  CGR           6          0          1   1.720E-03
  CGR           7          0          1   5.443E-04
  CGR           8          0          1   2.227E-04
  CGR           9          0          1   1.102E-04
  CGR          10          0          1   4.134E-05
  CGR          11          0          1   1.482E-05
  CGR          12          0          1   5.425E-06
  CGR          13          0          1   1.766E-06
  CGR          14          1          0   6.126E-07

    CGRSolver converged.

  ==> DFCorrGrad: Density-Fitted Correlated Gradients <==

    OpenMP threads:              8
    Integrals threads:           8
    Memory (MB):              3576
    Schwarz Cutoff:          0E+00
    Fitting Condition:       1E-12

   => Auxiliary Basis Set <=

  Basis Set: (AUG-CC-PVTZ AUX)
    Blend: AUG-CC-PVTZ-JKFIT
    Number of shells: 530
    Number of basis function: 1812
    Number of Cartesian functions: 2253
    Spherical Harmonics?: true
    Max angular momentum: 4

	-----------------------------------------------------------
	 ==================> DF-MP2 Energies <==================== 
	-----------------------------------------------------------
	 Reference Energy          =    -551.6730421089531546 [Eh]
	 Singles Energy            =      -0.0000000000000002 [Eh]
	 Same-Spin Energy          =      -0.5961488711455704 [Eh]
	 Opposite-Spin Energy      =      -1.8247716389944184 [Eh]
	 Correlation Energy        =      -2.4209205101399887 [Eh]
	 Total Energy              =    -554.0939626190931904 [Eh]
	-----------------------------------------------------------
	 ================> DF-SCS-MP2 Energies <================== 
	-----------------------------------------------------------
	 SCS Same-Spin Scale       =       0.3333333333333333 [-]
	 SCS Opposite-Spin Scale   =       1.2000000000000000 [-]
	 SCS Same-Spin Energy      =      -0.1987162903818568 [Eh]
	 SCS Opposite-Spin Energy  =      -2.1897259667933020 [Eh]
	 SCS Correlation Energy    =      -2.3884422571751589 [Eh]
	 SCS Total Energy          =    -554.0614843661282976 [Eh]
	-----------------------------------------------------------


  -Total Gradient:
     Atom            X                  Y                   Z
    ------   -----------------  -----------------  -----------------
       1        0.005432006607    -0.008677740505    -0.004894248603
       2        0.008065887304     0.001763290101    -0.006982954144
       3        0.000764125644    -0.000289086477     0.004665555664
       4       -0.009216439864     0.004470923533     0.006695120943
       5       -0.015686323129     0.006817382490     0.005346860262
       6       -0.011475561714     0.007710624463     0.011510061883
       7        0.005892215836     0.007297167946    -0.008072920821
       8        0.002890196489    -0.011248929592     0.002308202407
       9        0.004845128649    -0.002733755017    -0.003518631686
      10        0.006251229908    -0.003145590270    -0.004049954704
      11        0.001290748643    -0.000269086028    -0.013660701734
      12        0.000967297132    -0.000575156240    -0.000497474975
      13       -0.003616099752     0.001866742414     0.007655204540
      14       -0.000178257286     0.000832934341    -0.005083073781
      15        0.002977721861    -0.002336260083     0.003635243256
      16       -0.002913064506     0.002388371671    -0.004926688192
      17       -0.000086482295    -0.000689537285     0.004389875074
      18       -0.002808431450    -0.003881237912     0.004101679141
      19       -0.001037209165     0.005553467235    -0.001502462757
      20        0.001792454381    -0.002098768704    -0.000290398005
      21        0.001635614516    -0.000189066027    -0.001773086163
      22        0.004708010237    -0.002487815496    -0.002871728494
      23       -0.000494768038    -0.000078874555     0.007816520893


*** tstop() called on gpu-2-7.local at Sun Nov 12 08:17:45 2017
Module time:
	user time   =    5350.07 seconds =      89.17 minutes
	system time =     110.96 seconds =       1.85 minutes
	total time  =       2543 seconds =      42.38 minutes
Total time:
	user time   =    5350.08 seconds =      89.17 minutes
	system time =     110.96 seconds =       1.85 minutes
	total time  =       2543 seconds =      42.38 minutes

			-----------------------------------------
			 OPTKING 2.0: for geometry optimizations 
			  - R.A. King,  Bethel University        
			-----------------------------------------

	Internal coordinates to be generated automatically.
	Detected frag 1 with atoms:  1 2 3 4 5 6 7 8 9 10 11 12 13 14 15 16 17 18 19 20
	 21 22 23
	---Fragment 1 Bond Connectivity---
	 1 : 3 9 14
	 2 : 4 9 15
	 3 : 1 11 16
	 4 : 2 11 17
	 5 : 7 10 18
	 6 : 8 10 19
	 7 : 5 12 20
	 8 : 6 12 21
	 9 : 1 2 10
	 10 : 5 6 9
	 11 : 3 4 13
	 12 : 7 8 22
	 13 : 11 23
	 14 : 1
	 15 : 2
	 16 : 3
	 17 : 4
	 18 : 5
	 19 : 6
	 20 : 7
	 21 : 8
	 22 : 12
	 23 : 13

	Assuming in current code that numbering for constraints corresponds to unified fragment.
	Fixed dihedral atom list: 
	     1     9    10     5
	---Fragment 1 Geometry and Gradient---
	 C          -2.4035511251        1.3604893309       -1.0949031578
	 C          -0.5270530751        0.1964180331        2.8999778871
	 C          -4.4406758964        2.4433024051        0.1768825296
	 C          -2.5641778464        1.2792311072        4.1736533007
	 C           2.2017114607       -3.4431944989       -0.7490832755
	 C           3.1711409669        0.5875913426       -2.6293607777
	 C           4.2426156843       -4.4693157890       -2.0378764981
	 C           5.1874787507       -0.5405751587       -3.8709108470
	 C          -0.4457948514        0.2361022819        0.2656996578
	 C           1.6688086913       -0.8863950411       -1.0533291829
	 C          -4.5219341201        2.4036181563        2.8111607588
	 N           5.6599102839       -3.0066677622       -3.5420984999
	 O          -6.5099260119        3.4618647907        4.0527108281
	 H          -2.3676463286        1.4058427581       -3.1490354643
	 H           0.9847278312       -0.6728559880        3.9884601396
	 H          -5.9600157072        3.3163558785       -0.8945921877
	 H          -2.6170901781        1.2433263107        6.2258958810
	 H           1.0603168765       -4.6393911410        0.4679003541
	 H           2.7988649187        2.5869215912       -2.9014813409
	 H           4.7944157151       -6.4327412411       -1.9150442995
	 H           6.4517055336        0.4553105133       -5.1275787254
	 H           7.1509042028       -3.7984630118       -4.4699540312
	 H          -6.2963869588        3.2842305342        5.8649581896
	             0.0054320066       -0.0086777405       -0.0048942486
	             0.0080658873        0.0017632901       -0.0069829541
	             0.0007641256       -0.0002890865        0.0046655557
	            -0.0092164399        0.0044709235        0.0066951209
	            -0.0156863231        0.0068173825        0.0053468603
	            -0.0114755617        0.0077106245        0.0115100619
	             0.0058922158        0.0072971679       -0.0080729208
	             0.0028901965       -0.0112489296        0.0023082024
	             0.0048451286       -0.0027337550       -0.0035186317
	             0.0062512299       -0.0031455903       -0.0040499547
	             0.0012907486       -0.0002690860       -0.0136607017
	             0.0009672971       -0.0005751562       -0.0004974750
	            -0.0036160998        0.0018667424        0.0076552045
	            -0.0001782573        0.0008329343       -0.0050830738
	             0.0029777219       -0.0023362601        0.0036352433
	            -0.0029130645        0.0023883717       -0.0049266882
	            -0.0000864823       -0.0006895373        0.0043898751
	            -0.0028084315       -0.0038812379        0.0041016791
	            -0.0010372092        0.0055534672       -0.0015024628
	             0.0017924544       -0.0020987687       -0.0002903980
	             0.0016356145       -0.0001890660       -0.0017730862
	             0.0047080102       -0.0024878155       -0.0028717285
	            -0.0004947680       -0.0000788746        0.0078165209

	Previous optimization step data not found.  Starting new optimization.

	---Fragment 1 Intrafragment Coordinates---
	 - Coordinate -           - BOHR/RAD -       - ANG/DEG -
	 R(1,3)           =         2.634350	       1.394038
	 R(1,9)           =         2.635962	       1.394891
	 R(1,14)          =         2.054947	       1.087431
	 R(2,4)           =         2.635263	       1.394521
	 R(2,9)           =         2.635830	       1.394821
	 R(2,15)          =         2.055702	       1.087831
	 R(3,11)          =         2.635830	       1.394821
	 R(3,16)          =         2.053941	       1.086899
	 R(4,11)          =         2.636938	       1.395407
	 R(4,17)          =         2.053239	       1.086527
	 R(5,7)           =         2.622823	       1.387938
	 R(5,10)          =         2.629406	       1.391422
	 R(5,18)          =         2.052978	       1.086389
	 R(6,8)           =         2.622942	       1.388001
	 R(6,10)          =         2.629356	       1.391395
	 R(6,19)          =         2.051819	       1.085776
	 R(7,12)          =         2.531945	       1.339848
	 R(7,20)          =         2.043186	       1.081208
	 R(8,12)          =         2.532375	       1.340075
	 R(8,21)          =         2.041879	       1.080516
	 R(9,10)          =         2.733384	       1.446444
	 R(11,13)         =         2.571662	       1.360865
	 R(12,22)         =         1.926374	       1.019393
	 R(13,23)         =         1.833410	       0.970199
	 B(1,3,11)        =         2.094553	     120.009056
	 B(1,3,16)        =         2.088505	     119.662516
	 B(1,9,2)         =         2.093692	     119.959722
	 B(1,9,10)        =         2.095161	     120.043881
	 B(2,4,11)        =         2.093699	     119.960108
	 B(2,4,17)        =         2.089577	     119.723926
	 B(2,9,10)        =         2.094332	     119.996376
	 B(3,1,9)         =         2.094940	     120.031219
	 B(3,1,14)        =         2.079469	     119.144799
	 B(3,11,4)        =         2.094306	     119.994870
	 B(3,11,13)       =         2.094549	     120.008801
	 B(4,2,9)         =         2.095181	     120.045019
	 B(4,2,15)        =         2.078675	     119.099297
	 B(4,11,13)       =         2.094331	     119.996326
	 B(5,7,12)        =         2.096120	     120.098843
	 B(5,7,20)        =         2.161040	     123.818481
	 B(5,10,6)        =         2.092854	     119.911711
	 B(5,10,9)        =         2.094714	     120.018250
	 B(6,8,12)        =         2.095329	     120.053518
	 B(6,8,21)        =         2.162163	     123.882815
	 B(6,10,9)        =         2.095617	     120.070015
	 B(7,5,10)        =         2.072902	     118.768543
	 B(7,5,18)        =         2.089721	     119.732207
	 B(7,12,8)        =         2.135623	     122.362171
	 B(7,12,22)       =         2.073690	     118.813663
	 B(8,6,10)        =         2.073541	     118.805155
	 B(8,6,19)        =         2.089566	     119.723291
	 B(8,12,22)       =         2.073873	     118.824164
	 B(9,1,14)        =         2.108776	     120.823969
	 B(9,2,15)        =         2.109330	     120.855683
	 B(10,5,18)       =         2.120562	     121.499248
	 B(10,6,19)       =         2.120078	     121.471527
	 B(11,3,16)       =         2.100127	     120.328425
	 B(11,4,17)       =         2.099910	     120.315955
	 B(11,13,23)      =         1.925489	     110.322421
	 B(12,7,20)       =         2.026025	     116.082671
	 B(12,8,21)       =         2.025693	     116.063660
	 D(1,3,11,4)      =        -0.000325	      -0.018609
	 D(1,3,11,13)     =         3.140978	     179.964785
	 D(1,9,2,4)       =         0.000325	       0.018608
	 D(1,9,2,15)      =        -3.141497	    -179.994534
	 D(1,9,10,5)      =        -2.094078	    -119.981829
	 D(1,9,10,6)      =         1.046513	      59.960782
	 D(2,4,11,3)      =         0.000301	       0.017261
	 D(2,4,11,13)     =        -3.141002	    -179.966135
	 D(2,9,1,3)       =        -0.000348	      -0.019945
	 D(2,9,1,14)      =        -3.141221	    -179.978731
	 D(2,9,10,5)      =         1.048431	      60.070675
	 D(2,9,10,6)      =        -2.094163	    -119.986715
	 D(3,1,9,10)      =        -3.141025	    -179.967461
	 D(3,11,4,17)     =         3.141223	     179.978848
	 D(3,11,13,23)    =         3.140828	     179.956172
	 D(4,2,9,10)      =         3.141002	     179.966149
	 D(4,11,3,16)     =         3.141593	     180.000000
	 D(4,11,13,23)    =        -0.001055	      -0.060434
	 D(5,7,12,8)      =        -0.001077	      -0.061686
	 D(5,7,12,22)     =         3.140735	     179.950885
	 D(5,10,6,8)      =        -0.000973	      -0.055720
	 D(5,10,6,19)     =        -3.141512	    -179.995355
	 D(6,8,12,7)      =         0.001208	       0.069205
	 D(6,8,12,22)     =        -3.140604	    -179.943367
	 D(6,10,5,7)      =         0.001099	       0.062963
	 D(6,10,5,18)     =        -3.140797	    -179.954437
	 D(7,5,10,9)      =        -3.141494	    -179.994335
	 D(7,12,8,21)     =        -3.140877	    -179.958970
	 D(8,6,10,9)      =        -3.141565	    -179.998393
	 D(8,12,7,20)     =         3.140129	     179.916130
	 D(9,1,3,11)      =         0.000348	       0.019955
	 D(9,1,3,16)      =        -3.141571	    -179.998735
	 D(9,2,4,11)      =        -0.000301	      -0.017270
	 D(9,2,4,17)      =        -3.141228	    -179.979086
	 D(9,10,5,18)     =        -0.000205	      -0.011735
	 D(9,10,6,19)     =         0.001082	       0.061973
	 D(10,5,7,12)     =        -0.000097	      -0.005550
	 D(10,5,7,20)     =        -3.141271	    -179.981568
	 D(10,6,8,12)     =        -0.000161	      -0.009225
	 D(10,6,8,21)     =        -3.141222	    -179.978738
	 D(10,9,1,14)     =         0.001287	       0.073752
	 D(10,9,2,15)     =        -0.000820	      -0.046992
	 D(11,3,1,14)     =         3.141234	     179.979432
	 D(11,4,2,15)     =         3.141517	     179.995641
	 D(12,7,5,18)     =        -3.141391	    -179.988465
	 D(12,8,6,19)     =         3.140397	     179.931489
	 D(13,11,3,16)    =        -0.000286	      -0.016400
	 D(13,11,4,17)    =        -0.000079	      -0.004548
	 D(14,1,3,16)     =        -0.000685	      -0.039257
	 D(15,2,4,17)     =         0.000590	       0.033826
	 D(18,5,7,20)     =         0.000620	       0.035518
	 D(19,6,8,21)     =        -0.000664	      -0.038024
	 D(20,7,12,22)    =        -0.001244	      -0.071300
	 D(21,8,12,22)    =         0.000497	       0.028458

	Current energy   :      -554.0939626191

	Generating empirical Hessian (Schlegel '84) for each fragment.
	Adding user-defined constraint: Fragment 1; Coordinate 66:
		Value =    -2.094078; Fixed value    =    -2.094395
		Force =    -0.000159; Force constant =     0.500000
	Removing off-diagonal coupling between coordinate 66 and others.
	Taking RFO optimization step.
	Going to follow RFO solution 1.
	Using RFO vector 1.

	Determining step-restricting scale parameter for RS-RFO.
	Maximum step size allowed    0.10000

	 Iter      |step|        alpha        rfo_root  
	------------------------------------------------
	    0     0.25418       1.00000           1
	    1     0.17650       3.99769           1
	    2     0.13566       9.76220           1
	    3     0.11319      18.84110           1
	    4     0.10265      26.91183           1
	    5     0.10014      29.41942           1
	    6     0.10000      29.56274           1
	------------------------------------------------
	Norm of target step-size    0.10000
	Projected energy change by RFO approximation:        -0.0038852133

	Back-transformation to cartesian coordinates...
	Could not converge backtransformation.
	Using first guess instead.

	--- Internal Coordinate Step in ANG or DEG, aJ/ANG or AJ/DEG ---
	 ---------------------------------------------------------------------------
	   Coordinate                Previous        Force       Change         New 
	   ----------                --------       ------       ------       ------
	    1 R(1,3)          =      1.394038    -0.083254    -0.009232     1.384806
	    2 R(1,9)          =      1.394891    -0.007767    -0.000783     1.394108
	    3 R(1,14)         =      1.087431    -0.041987    -0.005765     1.081666
	    4 R(2,4)          =      1.394521    -0.082989    -0.009110     1.385412
	    5 R(2,9)          =      1.394821    -0.018191    -0.001848     1.392973
	    6 R(2,15)         =      1.087831    -0.042039    -0.005773     1.082058
	    7 R(3,11)         =      1.394821    -0.060120    -0.006733     1.388088
	    8 R(3,16)         =      1.086899    -0.047291    -0.006456     1.080443
	    9 R(4,11)         =      1.395407    -0.011500    -0.001310     1.394097
	   10 R(4,17)         =      1.086527    -0.036267    -0.004964     1.081563
	   11 R(5,7)          =      1.387938    -0.095506    -0.010297     1.377641
	   12 R(5,10)         =      1.391422     0.034826     0.003883     1.395305
	   13 R(5,18)         =      1.086389    -0.051528    -0.007052     1.079337
	   14 R(6,8)          =      1.388001    -0.096266    -0.010377     1.377625
	   15 R(6,10)         =      1.391395     0.034677     0.003921     1.395317
	   16 R(6,19)         =      1.085776    -0.047775    -0.006541     1.079235
	   17 R(7,12)         =      1.339848     0.018287     0.001801     1.341648
	   18 R(7,20)         =      1.081208    -0.020461    -0.002762     1.078446
	   19 R(8,12)         =      1.340075     0.017501     0.001667     1.341742
	   20 R(8,21)         =      1.080516    -0.016574    -0.002186     1.078330
	   21 R(9,10)         =      1.446444     0.073218     0.009353     1.455797
	   22 R(11,13)        =      1.360865    -0.093781    -0.008514     1.352351
	   23 R(12,22)        =      1.019393    -0.049842    -0.005691     1.013702
	   24 R(13,23)        =      0.970199    -0.063244    -0.005945     0.964254
	   25 B(1,3,11)       =    120.009056    -0.000052    -0.152157   119.856899
	   26 B(1,3,16)       =    119.662516     0.000204     0.565854   120.228370
	   27 B(1,9,2)        =    119.959722    -0.000183    -0.353499   119.606223
	   28 B(1,9,10)       =    120.043881     0.000087     0.169673   120.213554
	   29 B(2,4,11)       =    119.960108     0.000065     0.142395   120.102503
	   30 B(2,4,17)       =    119.723926    -0.000007    -0.003391   119.720535
	   31 B(2,9,10)       =    119.996376     0.000096     0.182774   120.179150
	   32 B(3,1,9)        =    120.031219     0.000171     0.375109   120.406328
	   33 B(3,1,14)       =    119.144799    -0.000040    -0.063732   119.081067
	   34 B(3,11,4)       =    119.994870     0.000023     0.016273   120.011143
	   35 B(3,11,13)      =    120.008801    -0.001018    -2.092503   117.916299
	   36 B(4,2,9)        =    120.045019    -0.000024    -0.029171   120.015849
	   37 B(4,2,15)       =    119.099297     0.000099     0.253387   119.352684
	   38 B(4,11,13)      =    119.996326     0.000995     2.076221   122.072547
	   39 B(5,7,12)       =    120.098843    -0.000315    -0.720111   119.378732
	   40 B(5,7,20)       =    123.818481     0.000066     0.111922   123.930403
	   41 B(5,10,6)       =    119.911711    -0.000538    -1.123234   118.788477
	   42 B(5,10,9)       =    120.018250     0.000286     0.594562   120.612812
	   43 B(6,8,12)       =    120.053518    -0.000301    -0.696613   119.356906
	   44 B(6,8,21)       =    123.882815     0.000052     0.079948   123.962763
	   45 B(6,10,9)       =    120.070015     0.000252     0.526874   120.596889
	   46 B(7,5,10)       =    118.768543     0.000423     0.931906   119.700449
	   47 B(7,5,18)       =    119.732207    -0.000174    -0.364675   119.367532
	   48 B(7,12,8)       =    122.362171     0.000315     0.692365   123.054536
	   49 B(7,12,22)      =    118.813663    -0.000157    -0.341095   118.472568
	   50 B(8,6,10)       =    118.805155     0.000415     0.915190   119.720344
	   51 B(8,6,19)       =    119.723291    -0.000172    -0.362015   119.361276
	   52 B(8,12,22)      =    118.824164    -0.000159    -0.351296   118.472868
	   53 B(9,1,14)       =    120.823969    -0.000131    -0.312010   120.511959
	   54 B(9,2,15)       =    120.855683    -0.000076    -0.224897   120.630786
	   55 B(10,5,18)      =    121.499248    -0.000249    -0.567279   120.931969
	   56 B(10,6,19)      =    121.471527    -0.000244    -0.553375   120.918152
	   57 B(11,3,16)      =    120.328425    -0.000153    -0.413695   119.914730
	   58 B(11,4,17)      =    120.315955    -0.000057    -0.138994   120.176961
	   59 B(11,13,23)     =    110.322421    -0.000217    -0.595598   109.726823
	   60 B(12,7,20)      =    116.082671     0.000249     0.607844   116.690516
	   61 B(12,8,21)      =    116.063660     0.000249     0.616521   116.680181
	   62 D(1,3,11,4)     =     -0.018609    -0.000006    -0.164608    -0.183216
	   63 D(1,3,11,13)    =    179.964785    -0.000005    -0.110058   179.854727
	   64 D(1,9,2,4)      =      0.018608    -0.000010    -0.335438    -0.316830
	   65 D(1,9,2,15)     =   -179.994534     0.000003    -0.019995  -180.014529
	   66 D(1,9,10,5)     =   -119.981829    -0.000036    -0.377250  -120.359079
	   67 D(1,9,10,6)     =     59.960782    -0.000046    -0.816886    59.143897
	   68 D(2,4,11,3)     =      0.017261    -0.000005    -0.094586    -0.077325
	   69 D(2,4,11,13)    =   -179.966135    -0.000005    -0.150757  -180.116892
	   70 D(2,9,1,3)      =     -0.019945    -0.000001     0.076154     0.056209
	   71 D(2,9,1,14)     =   -179.978731     0.000010     0.329916  -179.648815
	   72 D(2,9,10,5)     =     60.070675    -0.000045    -0.807970    59.262705
	   73 D(2,9,10,6)     =   -119.986715    -0.000055    -1.247605  -121.234320
	   74 D(3,1,9,10)     =   -179.967461    -0.000010    -0.352379  -180.319840
	   75 D(3,11,4,17)    =    179.978848    -0.000003    -0.040726   179.938122
	   76 D(3,11,13,23)   =    179.956172     0.000001     0.009176   179.965348
	   77 D(4,2,9,10)     =    179.966149    -0.000001     0.092938   180.059088
	   78 D(4,11,3,16)    =    180.000000    -0.000006    -0.168971   179.831029
	   79 D(4,11,13,23)   =     -0.060434     0.000002     0.064557     0.004122
	   80 D(5,7,12,8)     =     -0.061686     0.000001     0.009514    -0.052172
	   81 D(5,7,12,22)    =    179.950885     0.000002     0.057720   180.008605
	   82 D(5,10,6,8)     =     -0.055720    -0.000002    -0.149720    -0.205440
	   83 D(5,10,6,19)    =   -179.995355     0.000002    -0.035524  -180.030879
	   84 D(6,8,12,7)     =      0.069205     0.000002     0.053067     0.122272
	   85 D(6,8,12,22)    =   -179.943367     0.000001     0.004862  -179.938505
	   86 D(6,10,5,7)     =      0.062963     0.000005     0.211524     0.274487
	   87 D(6,10,5,18)    =   -179.954437     0.000010     0.310583  -179.643854
	   88 D(7,5,10,9)     =   -179.994335    -0.000004    -0.219337  -180.213671
	   89 D(7,12,8,21)    =   -179.958970    -0.000004    -0.054287  -180.013257
	   90 D(8,6,10,9)     =   -179.998393     0.000007     0.281030  -179.717362
	   91 D(8,12,7,20)    =    179.916130    -0.000006    -0.174680   179.741449
	   92 D(9,1,3,11)     =      0.019955     0.000009     0.173437     0.193392
	   93 D(9,1,3,16)     =   -179.998735     0.000008     0.177836  -179.820899
	   94 D(9,2,4,11)     =     -0.017270     0.000012     0.345069     0.327799
	   95 D(9,2,4,17)     =   -179.979086     0.000011     0.291508  -179.687578
	   96 D(9,10,5,18)    =     -0.011735     0.000000    -0.120277    -0.132012
	   97 D(9,10,6,19)    =      0.061973     0.000011     0.395226     0.457199
	   98 D(10,5,7,12)    =     -0.005550    -0.000005    -0.144393    -0.149944
	   99 D(10,5,7,20)    =   -179.981568     0.000003     0.053854  -179.927713
	  100 D(10,6,8,12)    =     -0.009225    -0.000001     0.020481     0.011257
	  101 D(10,6,8,21)    =   -179.978738     0.000005     0.136002  -179.842736
	  102 D(10,9,1,14)    =      0.073752     0.000001    -0.098616    -0.024864
	  103 D(10,9,2,15)    =     -0.046992     0.000012     0.408380     0.361388
	  104 D(11,3,1,14)    =    179.979432    -0.000002    -0.076828   179.902604
	  105 D(11,4,2,15)    =    179.995641     0.000000     0.033725   180.029366
	  106 D(12,7,5,18)    =   -179.988465    -0.000009    -0.241853  -180.230318
	  107 D(12,8,6,19)    =    179.931489    -0.000005    -0.092061   179.839428
	  108 D(13,11,3,16)   =     -0.016400    -0.000005    -0.114627    -0.131027
	  109 D(13,11,4,17)   =     -0.004548    -0.000004    -0.096897    -0.101445
	  110 D(14,1,3,16)    =     -0.039257    -0.000002    -0.072430    -0.111687
	  111 D(15,2,4,17)    =      0.033826    -0.000001    -0.019836     0.013989
	  112 D(18,5,7,20)    =      0.035518    -0.000001    -0.043606    -0.008088
	  113 D(19,6,8,21)    =     -0.038024     0.000000     0.023459    -0.014565
	  114 D(20,7,12,22)   =     -0.071300    -0.000005    -0.126474    -0.197773
	  115 D(21,8,12,22)   =      0.028458    -0.000005    -0.102492    -0.074034
	 ---------------------------------------------------------------------------
	Successfully symmetrized geometry.
	 Forces used to impose fixed constraints are not included.
	  Forces zeroed: 66 

  ==> Convergence Check <==

  Measures of convergence in internal coordinates in au.
  Criteria marked as inactive (o), active & met (*), and active & unmet ( ).
  --------------------------------------------------------------------------------------------- ~
   Step     Total Energy     Delta E     MAX Force     RMS Force      MAX Disp      RMS Disp    ~
  --------------------------------------------------------------------------------------------- ~
    Convergence Criteria    1.00e-06 *    3.00e-04 *             o    1.20e-03 *             o  ~
  --------------------------------------------------------------------------------------------- ~
      1    -554.09396262   -5.54e+02      1.34e-02      3.89e-03 o    3.65e-02      9.31e-03 o  ~
  ---------------------------------------------------------------------------------------------

	Writing optimization data to binary file.
	Structure for next step:
	Cartesian Geometry (in Angstrom)
	    C    -1.2700547891   0.7323179774  -0.5582248788
	    C    -0.2842681769   0.0998924907   1.5467611517
	    C    -2.3443676450   1.2972111571   0.1084355739
	    C    -1.3561222301   0.6696246514   2.2145179938
	    C     1.1849297081  -1.8225663666  -0.3966515112
	    C     1.6858482251   0.3012124350  -1.4004373751
	    C     2.2503961176  -2.3706219524  -1.0765868686
	    C     2.7414601713  -0.2852174027  -2.0634855091
	    C    -0.2339606879   0.1312479657   0.1550500831
	    C     0.8900302711  -0.4674655711  -0.5503099072
	    C    -2.3892012918   1.2690300829   1.4955130526
	    N     2.9888785270  -1.5912813330  -1.8811316790
	    O    -3.4549601849   1.8348148579   2.1061665162
	    H    -1.2487239040   0.7599276817  -1.6393276422
	    H     0.5106951195  -0.3625300199   2.1168916981
	    H    -3.1471952089   1.7597493135  -0.4473373034
	    H    -1.3878292279   0.6470320595   3.2953805147
	    H     0.5886752082  -2.4505271112   0.2476424884
	    H     1.4883637045   1.3523247285  -1.5450425198
	    H     2.5382618725  -3.4077522105  -1.0092075726
	    H     3.4006925597   0.2435586019  -2.7332647197
	    H     3.7695499207  -2.0088105504  -2.3749069571
	    H    -3.3659009855   1.7484472834   3.0624060463
			--------------------------
			 OPTKING Finished Execution 
			--------------------------

    Structure for next step:
    Molecular point group: c1
    Full point group: C1

    Geometry (in Angstrom), charge = 1, multiplicity = 1:

    C           -1.271560989640     0.732382866304    -0.558262703321
    C           -0.285774377451     0.099957379563     1.546723327172
    C           -2.345873845469     1.297276046024     0.108397749388
    C           -1.357628430642     0.669689540291     2.214480169305
    C            1.183423507563    -1.822501477731    -0.396689335742
    C            1.684342024611     0.301277323907    -1.400475199684
    C            2.248889917094    -2.370557063534    -1.076624693149
    C            2.739953970824    -0.285152513858    -2.063523333637
    C           -0.235466888405     0.131312854573     0.155012258558
    C            0.888524070560    -0.467400682271    -0.550347731755
    C           -2.390707492321     1.269094971743     1.495475228029
    N            2.987372326449    -1.591216444156    -1.881169503578
    O           -3.456466385462     1.834879746824     2.106128691678
    H           -1.250230104547     0.759992570557    -1.639365466761
    H            0.509188918969    -0.362465131053     2.116853873564
    H           -3.148701409394     1.759814202354    -0.447375127917
    H           -1.389335428433     0.647096948425     3.295342690151
    H            0.587169007653    -2.450462222337     0.247604663871
    H            1.486857503984     1.352389617376    -1.545080344347
    H            2.536755671949    -3.407687321655    -1.009245397092
    H            3.399186359196     0.243623490728    -2.733302544213
    H            3.768043720135    -2.008745661530    -2.374944781608
    H           -3.367407186061     1.748512172325     3.062368221738

gradient() will perform analytic gradient computation.

*** tstart() called on gpu-2-7.local
*** at Sun Nov 12 08:17:46 2017

    SCF Algorithm Type (re)set to DF.

*** tstart() called on gpu-2-7.local
*** at Sun Nov 12 08:17:46 2017

   => Loading Basis Set <=

    Name: AUG-CC-PVTZ
    Role: ORBITAL
    Keyword: BASIS
    atoms 1-11  entry C          line   221 file /cbio/jclab/home/chayas/anaconda/envs/py35/share/psi4/basis/aug-cc-pvtz.gbs 
    atoms 12    entry N          line   267 file /cbio/jclab/home/chayas/anaconda/envs/py35/share/psi4/basis/aug-cc-pvtz.gbs 
    atoms 13    entry O          line   313 file /cbio/jclab/home/chayas/anaconda/envs/py35/share/psi4/basis/aug-cc-pvtz.gbs 
    atoms 14-23 entry H          line    34 file /cbio/jclab/home/chayas/anaconda/envs/py35/share/psi4/basis/aug-cc-pvtz.gbs 


         ---------------------------------------------------------
                                   SCF
            by Justin Turney, Rob Parrish, and Andy Simmonett
                              RHF Reference
                        8 Threads,   4768 MiB Core
         ---------------------------------------------------------

  ==> Geometry <==

    Molecular point group: c1
    Full point group: C1

    Geometry (in Angstrom), charge = 1, multiplicity = 1:

       Center              X                  Y                   Z               Mass       
    ------------   -----------------  -----------------  -----------------  -----------------
           C         -1.271560989640     0.732382866304    -0.558262703321    12.000000000000
           C         -0.285774377451     0.099957379563     1.546723327172    12.000000000000
           C         -2.345873845469     1.297276046024     0.108397749388    12.000000000000
           C         -1.357628430642     0.669689540291     2.214480169305    12.000000000000
           C          1.183423507563    -1.822501477731    -0.396689335742    12.000000000000
           C          1.684342024611     0.301277323907    -1.400475199684    12.000000000000
           C          2.248889917094    -2.370557063534    -1.076624693149    12.000000000000
           C          2.739953970824    -0.285152513858    -2.063523333637    12.000000000000
           C         -0.235466888405     0.131312854573     0.155012258558    12.000000000000
           C          0.888524070560    -0.467400682271    -0.550347731755    12.000000000000
           C         -2.390707492321     1.269094971743     1.495475228029    12.000000000000
           N          2.987372326449    -1.591216444156    -1.881169503578    14.003074004780
           O         -3.456466385462     1.834879746824     2.106128691678    15.994914619560
           H         -1.250230104547     0.759992570557    -1.639365466761     1.007825032070
           H          0.509188918969    -0.362465131053     2.116853873564     1.007825032070
           H         -3.148701409394     1.759814202354    -0.447375127917     1.007825032070
           H         -1.389335428433     0.647096948425     3.295342690151     1.007825032070
           H          0.587169007653    -2.450462222337     0.247604663871     1.007825032070
           H          1.486857503984     1.352389617376    -1.545080344347     1.007825032070
           H          2.536755671949    -3.407687321655    -1.009245397092     1.007825032070
           H          3.399186359196     0.243623490728    -2.733302544213     1.007825032070
           H          3.768043720135    -2.008745661530    -2.374944781608     1.007825032070
           H         -3.367407186061     1.748512172325     3.062368221738     1.007825032070

  Running in c1 symmetry.

  Rotational constants: A =      0.09640  B =      0.01302  C =      0.01218 [cm^-1]
  Rotational constants: A =   2890.10548  B =    390.33453  C =    365.13146 [MHz]
  Nuclear repulsion =  712.971222807019558

  Charge       = 1
  Multiplicity = 1
  Electrons    = 90
  Nalpha       = 45
  Nbeta        = 45

  ==> Algorithm <==

  SCF Algorithm Type is DF.
  DIIS enabled.
  MOM disabled.
  Fractional occupation disabled.
  Guess Type is READ.
  Energy threshold   = 1.00e-10
  Density threshold  = 1.00e-10
  Integral threshold = 0.00e+00

  ==> Primary Basis <==

  Basis Set: AUG-CC-PVTZ
    Blend: AUG-CC-PVTZ
    Number of shells: 272
    Number of basis function: 828
    Number of Cartesian functions: 965
    Spherical Harmonics?: true
    Max angular momentum: 3

   => Loading Basis Set <=

    Name: (AUG-CC-PVTZ AUX)
    Role: JKFIT
    Keyword: DF_BASIS_SCF
    atoms 1-11  entry C          line   161 file /cbio/jclab/home/chayas/anaconda/envs/py35/share/psi4/basis/aug-cc-pvtz-jkfit.gbs 
    atoms 12    entry N          line   223 file /cbio/jclab/home/chayas/anaconda/envs/py35/share/psi4/basis/aug-cc-pvtz-jkfit.gbs 
    atoms 13    entry O          line   285 file /cbio/jclab/home/chayas/anaconda/envs/py35/share/psi4/basis/aug-cc-pvtz-jkfit.gbs 
    atoms 14-23 entry H          line    69 file /cbio/jclab/home/chayas/anaconda/envs/py35/share/psi4/basis/aug-cc-pvtz-jkfit.gbs 

  Reading orbitals from file 180, no projection.

  ==> Pre-Iterations <==

   -------------------------------------------------------
    Irrep   Nso     Nmo     Nalpha   Nbeta   Ndocc  Nsocc
   -------------------------------------------------------
     A        828     828       0       0       0       0
   -------------------------------------------------------
    Total     828     828      45      45      45       0
   -------------------------------------------------------

  ==> Integral Setup <==

  ==> DFJK: Density-Fitted J/K Matrices <==

    J tasked:                  Yes
    K tasked:                  Yes
    wK tasked:                  No
    OpenMP threads:              8
    Integrals threads:           8
    Memory (MB):              3576
    Algorithm:                Disk
    Integral Cache:           NONE
    Schwarz Cutoff:          1E-12
    Fitting Condition:       1E-12

   => Auxiliary Basis Set <=

  Basis Set: (AUG-CC-PVTZ AUX)
    Blend: AUG-CC-PVTZ-JKFIT
    Number of shells: 530
    Number of basis function: 1812
    Number of Cartesian functions: 2253
    Spherical Harmonics?: true
    Max angular momentum: 4

  Minimum eigenvalue in the overlap matrix is 5.4391766107E-07.
  Using Symmetric Orthogonalization.

  SCF Guess: Orbitals guess was supplied from a previous computation.

  ==> Iterations <==

                           Total Energy        Delta E     RMS |[F,P]|

   @DF-RHF iter   0:  -551.75202737166194   -5.51752e+02   3.75957e-04 
   @DF-RHF iter   1:  -551.67710499681107    7.49224e-02   7.16842e-05 
   @DF-RHF iter   2:  -551.67736238044040   -2.57384e-04   4.57826e-05 DIIS
   @DF-RHF iter   3:  -551.67749398533124   -1.31605e-04   9.72637e-06 DIIS
   @DF-RHF iter   4:  -551.67750172169531   -7.73636e-06   3.99259e-06 DIIS
   @DF-RHF iter   5:  -551.67750353178019   -1.81008e-06   1.06873e-06 DIIS
   @DF-RHF iter   6:  -551.67750376251490   -2.30735e-07   4.21362e-07 DIIS
   @DF-RHF iter   7:  -551.67750382561917   -6.31043e-08   2.43649e-07 DIIS
   @DF-RHF iter   8:  -551.67750384551186   -1.98927e-08   7.37285e-08 DIIS
   @DF-RHF iter   9:  -551.67750384946225   -3.95039e-09   4.49755e-08 DIIS
   @DF-RHF iter  10:  -551.67750384995463   -4.92378e-10   1.71668e-08 DIIS
   @DF-RHF iter  11:  -551.67750385002068   -6.60521e-11   4.13604e-09 DIIS
   @DF-RHF iter  12:  -551.67750385001841    2.27374e-12   1.75616e-09 DIIS
   @DF-RHF iter  13:  -551.67750385003285   -1.44382e-11   6.44051e-10 DIIS
   @DF-RHF iter  14:  -551.67750385001546    1.73941e-11   2.87443e-10 DIIS
   @DF-RHF iter  15:  -551.67750385001477    6.82121e-13   1.50927e-10 DIIS
   @DF-RHF iter  16:  -551.67750385002853   -1.37561e-11   5.73434e-11 DIIS

  ==> Post-Iterations <==

    Orbital Energies (a.u.)
    -----------------------

    Doubly Occupied:                                                      

       1A    -20.697147     2A    -15.839349     3A    -11.486713  
       4A    -11.486616     5A    -11.449819     6A    -11.422942  
       7A    -11.416517     8A    -11.416337     9A    -11.371753  
      10A    -11.369517    11A    -11.367951    12A    -11.350720  
      13A    -11.344631    14A     -1.517672    15A     -1.515895  
      16A     -1.318579    17A     -1.264451    18A     -1.243799  
      19A     -1.153351    20A     -1.147514    21A     -1.068738  
      22A     -1.057269    23A     -0.973642    24A     -0.967359  
      25A     -0.947538    26A     -0.873354    27A     -0.859966  
      28A     -0.851930    29A     -0.821310    30A     -0.803502  
      31A     -0.788614    32A     -0.775824    33A     -0.751784  
      34A     -0.730398    35A     -0.716358    36A     -0.711181  
      37A     -0.701268    38A     -0.685136    39A     -0.650636  
      40A     -0.621743    41A     -0.612373    42A     -0.573639  
      43A     -0.542281    44A     -0.466608    45A     -0.435665  

    Virtual:                                                              

      46A     -0.103854    47A     -0.086274    48A     -0.064757  
      49A     -0.063148    50A     -0.059272    51A     -0.052561  
      52A     -0.042186    53A     -0.039679    54A     -0.038060  
      55A     -0.031031    56A     -0.023667    57A     -0.021294  
      58A     -0.014058    59A     -0.009866    60A     -0.003260  
      61A     -0.002287    62A     -0.000587    63A      0.008481  
      64A      0.009403    65A      0.012506    66A      0.013416  
      67A      0.018709    68A      0.019337    69A      0.026672  
      70A      0.029702    71A      0.032963    72A      0.034387  
      73A      0.037347    74A      0.039791    75A      0.044376  
      76A      0.046277    77A      0.048937    78A      0.053529  
      79A      0.056632    80A      0.062958    81A      0.063411  
      82A      0.071100    83A      0.076593    84A      0.079254  
      85A      0.083794    86A      0.086413    87A      0.092866  
      88A      0.094823    89A      0.096827    90A      0.104962  
      91A      0.107709    92A      0.113126    93A      0.118729  
      94A      0.122147    95A      0.130408    96A      0.131972  
      97A      0.133758    98A      0.134711    99A      0.141272  
     100A      0.143758   101A      0.150472   102A      0.158204  
     103A      0.161339   104A      0.162399   105A      0.166745  
     106A      0.167548   107A      0.170737   108A      0.175178  
     109A      0.175705   110A      0.177429   111A      0.184501  
     112A      0.186867   113A      0.189560   114A      0.196493  
     115A      0.198234   116A      0.204125   117A      0.211252  
     118A      0.213484   119A      0.214645   120A      0.220081  
     121A      0.222043   122A      0.227580   123A      0.228858  
     124A      0.232521   125A      0.235161   126A      0.240753  
     127A      0.243655   128A      0.248327   129A      0.252532  
     130A      0.257846   131A      0.260442   132A      0.264400  
     133A      0.272154   134A      0.280025   135A      0.281277  
     136A      0.283523   137A      0.289163   138A      0.294016  
     139A      0.296908   140A      0.304445   141A      0.311473  
     142A      0.315242   143A      0.317531   144A      0.319837  
     145A      0.324281   146A      0.325446   147A      0.329433  
     148A      0.331008   149A      0.334513   150A      0.341377  
     151A      0.343121   152A      0.346350   153A      0.348515  
     154A      0.350526   155A      0.354055   156A      0.356874  
     157A      0.359846   158A      0.363330   159A      0.370480  
     160A      0.373542   161A      0.373885   162A      0.375096  
     163A      0.379175   164A      0.385600   165A      0.389937  
     166A      0.390828   167A      0.395276   168A      0.400868  
     169A      0.403912   170A      0.407730   171A      0.408653  
     172A      0.412816   173A      0.416036   174A      0.419549  
     175A      0.427249   176A      0.429958   177A      0.431041  
     178A      0.437668   179A      0.441250   180A      0.448404  
     181A      0.452429   182A      0.456075   183A      0.457614  
     184A      0.467235   185A      0.471693   186A      0.480419  
     187A      0.481531   188A      0.483793   189A      0.488036  
     190A      0.492603   191A      0.499853   192A      0.503595  
     193A      0.519514   194A      0.521685   195A      0.523921  
     196A      0.539424   197A      0.542912   198A      0.545846  
     199A      0.557943   200A      0.561214   201A      0.565638  
     202A      0.568866   203A      0.573977   204A      0.577551  
     205A      0.582797   206A      0.590927   207A      0.595993  
     208A      0.599358   209A      0.603914   210A      0.607018  
     211A      0.609839   212A      0.616763   213A      0.620352  
     214A      0.622996   215A      0.627700   216A      0.632750  
     217A      0.636440   218A      0.643873   219A      0.647454  
     220A      0.656846   221A      0.669389   222A      0.677651  
     223A      0.683035   224A      0.688930   225A      0.691965  
     226A      0.699784   227A      0.706545   228A      0.710843  
     229A      0.714843   230A      0.723083   231A      0.725577  
     232A      0.730294   233A      0.740214   234A      0.746057  
     235A      0.749102   236A      0.753414   237A      0.760630  
     238A      0.762547   239A      0.765741   240A      0.771733  
     241A      0.774106   242A      0.778449   243A      0.780992  
     244A      0.788117   245A      0.790379   246A      0.793956  
     247A      0.796979   248A      0.798079   249A      0.805456  
     250A      0.807881   251A      0.809809   252A      0.811346  
[...]
	 D(2,9,1,3)       =         0.035136	       2.013128
	 D(2,9,1,14)      =        -3.086042	    -176.817154
	 D(2,9,10,5)      =         0.909191	      52.092835
	 D(2,9,10,6)      =        -2.336293	    -133.859755
	 D(3,1,9,10)      =         3.049058	     174.698178
	 D(3,11,4,17)     =        -3.139574	    -179.884320
	 D(3,11,13,23)    =         3.138891	     179.845186
	 D(4,2,9,10)      =        -3.071134	    -175.962988
	 D(4,11,3,16)     =         3.111573	     178.279977
	 D(4,11,13,23)    =         0.005777	       0.330992
	 D(5,7,12,8)      =        -0.004486	      -0.257024
	 D(5,7,12,22)     =        -3.136649	    -179.716755
	 D(5,10,6,8)      =        -0.034702	      -1.988290
	 D(5,10,6,19)     =         3.127015	     179.164748
	 D(6,8,12,7)      =         0.009522	       0.545565
	 D(6,8,12,22)     =        -3.141500	    -179.994708
	 D(6,10,5,7)      =         0.039727	       2.276174
	 D(6,10,5,18)     =        -3.094977	    -177.329140
	 D(7,5,10,9)      =         3.080875	     176.521144
	 D(7,12,8,21)     =        -3.139560	    -179.883548
	 D(8,6,10,9)      =        -3.075974	    -176.240315
	 D(8,12,7,20)     =         3.117208	     178.602858
	 D(9,1,3,11)      =         0.004655	       0.266714
	 D(9,1,3,16)      =        -3.128604	    -179.255819
	 D(9,2,4,11)      =         0.041485	       2.376930
	 D(9,2,4,17)      =        -3.103281	    -177.804891
	 D(9,10,5,18)     =        -0.053829	      -3.084170
	 D(9,10,6,19)     =         0.085743	       4.912722
	 D(10,5,7,12)     =        -0.020967	      -1.201308
	 D(10,5,7,20)     =        -3.141183	    -179.976553
	 D(10,6,8,12)     =         0.010902	       0.624641
	 D(10,6,8,21)     =        -3.122642	    -178.914212
	 D(10,9,1,14)     =        -0.072119	      -4.132105
	 D(10,9,2,15)     =         0.110499	       6.331098
	 D(11,3,1,14)     =         3.125955	     179.104040
	 D(11,4,2,15)     =        -3.139888	    -179.902311
	 D(12,7,5,18)     =         3.113815	     178.408474
	 D(12,8,6,19)     =         3.132593	     179.484385
	 D(13,11,3,16)    =        -0.021849	      -1.251877
	 D(13,11,4,17)    =        -0.006719	      -0.384969
	 D(14,1,3,16)     =        -0.007304	      -0.418493
	 D(15,2,4,17)     =        -0.001468	      -0.084131
	 D(18,5,7,20)     =        -0.006401	      -0.366771
	 D(19,6,8,21)     =        -0.000951	      -0.054467
	 D(20,7,12,22)    =        -0.014955	      -0.856873
	 D(21,8,12,22)    =        -0.007397	      -0.423822

	Current energy   :      -554.0976554827

	Energy change for the previous step:
		Projected    :        -0.0000003574
		Actual       :         0.0000015500

	Performing BFGS update.
	Previous computed or guess Hessian on step 1.
	Steps to be used in Hessian update: 18 17
	Adding user-defined constraint: Fragment 1; Coordinate 66:
		Value =    -2.103017; Fixed value    =    -2.094400
		Force =     0.008186; Force constant =     0.950000
	Removing off-diagonal coupling between coordinate 66 and others.
	Taking RFO optimization step.
	Going to follow RFO solution 1.
	Rejecting RFO root 1 because normalization gives large value.
	Rejecting RFO root 2 because normalization gives large value.
	Rejecting RFO root 3 because normalization gives large value.
	Using RFO vector 4.
	Norm of target step-size    0.00405
	Projected energy change by RFO approximation:         0.0000002005

	Back-transformation to cartesian coordinates...
	Successfully converged to displaced geometry.

	--- Internal Coordinate Step in ANG or DEG, aJ/ANG or AJ/DEG ---
	 ---------------------------------------------------------------------------
	   Coordinate                Previous        Force       Change         New 
	   ----------                --------       ------       ------       ------
	    1 R(1,3)          =      1.379650    -0.000252    -0.000002     1.379648
	    2 R(1,9)          =      1.396927    -0.000220     0.000012     1.396938
	    3 R(1,14)         =      1.080489    -0.000194    -0.000015     1.080475
	    4 R(2,4)          =      1.382274    -0.000363    -0.000009     1.382265
	    5 R(2,9)          =      1.394563    -0.000488    -0.000019     1.394544
	    6 R(2,15)         =      1.080503    -0.000089    -0.000016     1.080487
	    7 R(3,11)         =      1.392305    -0.000312    -0.000050     1.392255
	    8 R(3,16)         =      1.078568    -0.000085    -0.000020     1.078548
	    9 R(4,11)         =      1.392517     0.000225     0.000002     1.392519
	   10 R(4,17)         =      1.080390    -0.000248    -0.000015     1.080374
	   11 R(5,7)          =      1.374061    -0.000366    -0.000016     1.374045
	   12 R(5,10)         =      1.398036    -0.000081     0.000020     1.398056
	   13 R(5,18)         =      1.078181    -0.000257    -0.000015     1.078166
	   14 R(6,8)          =      1.373951    -0.000325    -0.000011     1.373939
	   15 R(6,10)         =      1.398283    -0.000584    -0.000024     1.398259
	   16 R(6,19)         =      1.078267    -0.000206    -0.000020     1.078247
	   17 R(7,12)         =      1.343011    -0.000319    -0.000033     1.342978
	   18 R(7,20)         =      1.077238    -0.000094    -0.000021     1.077217
	   19 R(8,12)         =      1.342819    -0.000060    -0.000040     1.342779
	   20 R(8,21)         =      1.077319    -0.000268    -0.000013     1.077307
	   21 R(9,10)         =      1.450662     0.000473     0.000128     1.450789
	   22 R(11,13)        =      1.346224    -0.000207    -0.000039     1.346184
	   23 R(12,22)        =      1.012285    -0.000387    -0.000041     1.012244
	   24 R(13,23)        =      0.963441    -0.000242    -0.000007     0.963433
	   25 B(1,3,11)       =    120.015145    -0.000001    -0.000075   120.015070
	   26 B(1,3,16)       =    121.158536    -0.000000    -0.001703   121.156834
	   27 B(1,9,2)        =    119.253615     0.000008     0.001235   119.254850
	   28 B(1,9,10)       =    119.760697    -0.000005     0.000386   119.761083
	   29 B(2,4,11)       =    119.955361    -0.000001    -0.000157   119.955205
	   30 B(2,4,17)       =    119.967029     0.000000     0.001505   119.968533
	   31 B(2,9,10)       =    120.574595    -0.000003     0.003317   120.577912
	   32 B(3,1,9)        =    120.407428    -0.000004    -0.000172   120.407255
	   33 B(3,1,14)       =    119.489024     0.000002     0.002258   119.491282
	   34 B(3,11,4)       =    119.918429     0.000003     0.001648   119.920077
	   35 B(3,11,13)      =    116.719506    -0.000000     0.001845   116.721352
	   36 B(4,2,9)        =    120.373107    -0.000005    -0.000332   120.372776
	   37 B(4,2,15)       =    119.469086     0.000003     0.005292   119.474378
	   38 B(4,11,13)      =    123.360292    -0.000003    -0.003027   123.357265
	   39 B(5,7,12)       =    119.205851    -0.000000     0.000197   119.206048
	   40 B(5,7,20)       =    123.883193    -0.000000    -0.000709   123.882484
	   41 B(5,10,6)       =    117.587794     0.000007    -0.001086   117.586708
	   42 B(5,10,9)       =    121.136217    -0.000003    -0.001128   121.135090
	   43 B(6,8,12)       =    119.178354     0.000001     0.000895   119.179249
	   44 B(6,8,21)       =    123.918172    -0.000000     0.000409   123.918581
	   45 B(6,10,9)       =    121.020004    -0.000003    -0.002178   121.017826
	   46 B(7,5,10)       =    120.504512    -0.000004    -0.001004   120.503508
	   47 B(7,5,18)       =    119.176374     0.000002     0.003151   119.179526
	   48 B(7,12,8)       =    122.946831     0.000001     0.000740   122.947571
	   49 B(7,12,22)      =    118.525048    -0.000001    -0.000075   118.524973
	   50 B(8,6,10)       =    120.539125    -0.000004    -0.000384   120.538741
	   51 B(8,6,19)       =    119.166315     0.000002     0.002978   119.169293
	   52 B(8,12,22)      =    118.525984    -0.000000    -0.000517   118.525466
	   53 B(9,1,14)       =    120.093312     0.000002    -0.002915   120.090397
	   54 B(9,2,15)       =    120.118437     0.000002    -0.004219   120.114219
	   55 B(10,5,18)      =    120.317956     0.000002    -0.002176   120.315779
	   56 B(10,6,19)      =    120.284678     0.000002    -0.002297   120.282381
	   57 B(11,3,16)      =    118.824636     0.000001     0.001629   118.826265
	   58 B(11,4,17)      =    120.077360     0.000001    -0.001444   120.075916
	   59 B(11,13,23)     =    110.454374    -0.000001    -0.002480   110.451894
	   60 B(12,7,20)      =    116.900319     0.000000    -0.000655   116.899665
	   61 B(12,8,21)      =    116.901966    -0.000000    -0.000941   116.901025
	   62 D(1,3,11,4)     =     -1.253653     0.000001     0.034359    -1.219294
	   63 D(1,3,11,13)    =    179.214493     0.000000    -0.031881   179.182612
	   64 D(1,9,2,4)      =     -3.338925     0.000000     0.047678    -3.291247
	   65 D(1,9,2,15)     =    178.955162     0.000001     0.025862   178.981023
	   66 D(1,9,10,5)     =   -120.493984    -0.000002     0.004629  -120.489355
	   67 D(1,9,10,6)     =     53.553426    -0.000000    -0.046131    53.507295
	   68 D(2,4,11,3)     =     -0.066343    -0.000001    -0.047809    -0.114151
	   69 D(2,4,11,13)    =    179.433008    -0.000000     0.023052   179.456060
	   70 D(2,9,1,3)      =      2.013128    -0.000001    -0.061208     1.951921
	   71 D(2,9,1,14)     =   -176.817154    -0.000001    -0.014765  -176.831920
	   72 D(2,9,10,5)     =     52.092835    -0.000001     0.049160    52.141995
	   73 D(2,9,10,6)     =   -133.859755     0.000001    -0.001600  -133.861355
	   74 D(3,1,9,10)     =    174.698178     0.000000    -0.017111   174.681067
	   75 D(3,11,4,17)    =   -179.884320    -0.000000    -0.015852  -179.900171
	   76 D(3,11,13,23)   =    179.845186     0.000000     0.054993   179.900179
	   77 D(4,2,9,10)     =   -175.962988    -0.000000     0.003433  -175.959555
	   78 D(4,11,3,16)    =    178.279977     0.000000     0.014216   178.294194
	   79 D(4,11,13,23)   =      0.330992    -0.000000    -0.013767     0.317225
	   80 D(5,7,12,8)     =     -0.257024     0.000001     0.045533    -0.211491
	   81 D(5,7,12,22)    =   -179.716755     0.000000     0.026528  -179.690227
	   82 D(5,10,6,8)     =     -1.988290     0.000001    -0.020520    -2.008810
	   83 D(5,10,6,19)    =    179.164748     0.000000    -0.038023   179.126725
	   84 D(6,8,12,7)     =      0.545565    -0.000001    -0.037549     0.508016
	   85 D(6,8,12,22)    =   -179.994708    -0.000000    -0.018542  -180.013250
	   86 D(6,10,5,7)     =      2.276174    -0.000001     0.028461     2.304635
	   87 D(6,10,5,18)    =   -177.329140    -0.000000     0.033379  -177.295761
	   88 D(7,5,10,9)     =    176.521144     0.000001    -0.020677   176.500467
	   89 D(7,12,8,21)    =   -179.883548    -0.000000     0.017651  -179.865898
	   90 D(8,6,10,9)     =   -176.240315    -0.000001     0.028494  -176.211821
	   91 D(8,12,7,20)    =    178.602858     0.000000    -0.015345   178.587513
	   92 D(9,1,3,11)     =      0.266714    -0.000000     0.020427     0.287142
	   93 D(9,1,3,16)     =   -179.255819     0.000000     0.041032  -179.214787
	   94 D(9,2,4,11)     =      2.376930     0.000000     0.006503     2.383433
	   95 D(9,2,4,17)     =   -177.804891    -0.000000    -0.025425  -177.830316
	   96 D(9,10,5,18)    =     -3.084170     0.000001    -0.015760    -3.099929
	   97 D(9,10,6,19)    =      4.912722    -0.000001     0.010991     4.923713
	   98 D(10,5,7,12)    =     -1.201308    -0.000000    -0.040483    -1.241791
	   99 D(10,5,7,20)    =   -179.976553     0.000001     0.024913  -179.951641
	  100 D(10,6,8,12)    =      0.624641     0.000000     0.024600     0.649241
	  101 D(10,6,8,21)    =   -178.914212    -0.000001    -0.034715  -178.948927
	  102 D(10,9,1,14)    =     -4.132105     0.000000     0.029331    -4.102774
	  103 D(10,9,2,15)    =      6.331098    -0.000000    -0.018383     6.312716
	  104 D(11,3,1,14)    =    179.104040     0.000000    -0.025798   179.078242
	  105 D(11,4,2,15)    =   -179.902311     0.000000     0.027963  -179.874348
	  106 D(12,7,5,18)    =    178.408474    -0.000000    -0.045365   178.363109
	  107 D(12,8,6,19)    =    179.484385     0.000000     0.041850   179.526235
	  108 D(13,11,3,16)   =     -1.251877    -0.000000    -0.052023    -1.303900
	  109 D(13,11,4,17)   =     -0.384969     0.000000     0.055009    -0.329960
	  110 D(14,1,3,16)    =     -0.418493     0.000000    -0.005193    -0.423687
	  111 D(15,2,4,17)    =     -0.084131    -0.000000    -0.003965    -0.088096
	  112 D(18,5,7,20)    =     -0.366771     0.000000     0.020030    -0.346741
	  113 D(19,6,8,21)    =     -0.054467    -0.000001    -0.017466    -0.071933
	  114 D(20,7,12,22)   =     -0.856873    -0.000000    -0.034350    -0.891223
	  115 D(21,8,12,22)   =     -0.423822     0.000000     0.036658    -0.387164
	 ---------------------------------------------------------------------------
	Successfully symmetrized geometry.
	 Forces used to impose fixed constraints are not included.
	  Forces zeroed: 66 

  ==> Convergence Check <==

  Measures of convergence in internal coordinates in au.
  Criteria marked as inactive (o), active & met (*), and active & unmet ( ).
  ---------------------------------------------------------------------------------------------
   Step     Total Energy     Delta E     MAX Force     RMS Force      MAX Disp      RMS Disp   
  ---------------------------------------------------------------------------------------------
    Convergence Criteria    1.00e-06 *    3.00e-04 *             o    1.20e-03 *             o
  ---------------------------------------------------------------------------------------------
     19    -554.09765548    1.55e-06      1.10e-04 *    3.32e-05 o    1.07e-03 *    3.77e-04 o  ~
  ---------------------------------------------------------------------------------------------


  **** Optimization is complete! (in 19 steps) ****

  ==> Optimization Summary <==

  Measures of convergence in internal coordinates in au.
  --------------------------------------------------------------------------------------------------------------- ~
   Step         Total Energy             Delta E       MAX Force       RMS Force        MAX Disp        RMS Disp  ~
  --------------------------------------------------------------------------------------------------------------- ~
      1    -554.093962619093   -554.093962619093      0.01337903      0.00389469      0.03652106      0.00930533  ~
      2    -554.096513430663     -0.002550811570      0.00454644      0.00116214      0.05335725      0.00931387  ~
      3    -554.097189846020     -0.000676415357      0.00199769      0.00042994      0.05999031      0.00932446  ~
      4    -554.097516604933     -0.000326758913      0.00124365      0.00024210      0.06053491      0.00932897  ~
      5    -554.097738028912     -0.000221423979      0.00121584      0.00023369      0.04504773      0.00718669  ~
      6    -554.097808977936     -0.000070949024      0.00161805      0.00024573      0.00752820      0.00118940  ~
      7    -554.097767576020      0.000041401916      0.00107447      0.00016534      0.01118335      0.00201067  ~
      8    -554.097765114753      0.000002461268      0.00108622      0.00015869      0.00162546      0.00028476  ~
      9    -554.097752601397      0.000012513355      0.00099584      0.00014571      0.00286332      0.00077945  ~
     10    -554.097750776239      0.000001825158      0.00112940      0.00016582      0.00933408      0.00240494  ~
     11    -554.097738259525      0.000012516714      0.00107779      0.00016804      0.01259909      0.00317393  ~
     12    -554.097727257982      0.000011001543      0.00096612      0.00014761      0.03023378      0.00932154  ~
     13    -554.097548112913      0.000179145068      0.00174477      0.00049226      0.02830128      0.00935976  ~
     14    -554.097389964712      0.000158148201      0.00210311      0.00065157      0.03463833      0.00929968  ~
     15    -554.097647158434     -0.000257193722      0.00042609      0.00010971      0.01254599      0.00348637  ~
     16    -554.097682746149     -0.000035587714      0.00035894      0.00006300      0.00509279      0.00165341  ~
     17    -554.097651261840      0.000031484309      0.00037770      0.00006828      0.00269411      0.00086892  ~
     18    -554.097657032762     -0.000005770923      0.00015562      0.00003504      0.00196926      0.00065963  ~
     19    -554.097655482713      0.000001550049      0.00011144      0.00003475      0.00106827      0.00037730  ~
  --------------------------------------------------------------------------------------------------------------- ~

	Writing optimization data to binary file.
	Final energy is   -554.0976554827133
	Final (previous) structure:
	Cartesian Geometry (in Angstrom)
	    C    -1.1888186955   0.8203298029  -0.5331762552
	    C    -0.3007135739   0.0866230048   1.5818032652
	    C    -2.3032865738   1.3221974197   0.1067641374
	    C    -1.4035441302   0.6129694429   2.2278728855
	    C     1.2306842778  -1.7676011703  -0.3250096239
	    C     1.6879102610   0.2947356350  -1.4466255371
	    C     2.2403664749  -2.3625578669  -1.0423738979
	    C     2.6875041039  -0.3291939956  -2.1532122317
	    C    -0.1649429574   0.2155747155   0.1998680285
	    C     0.9450825504  -0.4095272900  -0.4940414891
	    C    -2.4103119152   1.2327333201   1.4920640229
	    N     2.9354421789  -1.6294457841  -1.9273006632
	    O    -3.5176670032   1.7582095153   2.0488020709
	    H    -1.1211910121   0.8812133910  -1.6098271316
	    H     0.4750633521  -0.3939838073   2.1603133765
	    H    -3.1063300539   1.7808206581  -0.4482991613
	    H    -1.4848495586   0.5404646191   3.3027561240
	    H     0.6559617540  -2.3626887987   0.3663942284
	    H     1.4945511717   1.3409023915  -1.6221432142
	    H     2.5063173579  -3.4028384398  -0.9556126735
	    H     3.3037132477   0.1643582891  -2.8862262992
	    H     3.6741632286  -2.0792279488  -2.4533303957
	    H    -3.4996629239   1.6451787045   3.0054199919
	Saving final (previous) structure.
			--------------------------
			 OPTKING Finished Execution 
			--------------------------

    Final optimized geometry and variables:
    Molecular point group: c1
    Full point group: C1

    Geometry (in Angstrom), charge = 1, multiplicity = 1:

    C           -1.188818695506     0.820329802858    -0.533176255189
    C           -0.300713573862     0.086623004773     1.581803265200
    C           -2.303286573809     1.322197419670     0.106764137443
    C           -1.403544130234     0.612969442875     2.227872885545
    C            1.230684277809    -1.767601170337    -0.325009623894
    C            1.687910261010     0.294735634992    -1.446625537126
    C            2.240366474917    -2.362557866902    -1.042373897860
    C            2.687504103903    -0.329193995586    -2.153212231711
    C           -0.164942957432     0.215574715466     0.199868028549
    C            0.945082550366    -0.409527289980    -0.494041489144
    C           -2.410311915223     1.232733320071     1.492064022852
    N            2.935442178934    -1.629445784123    -1.927300663225
    O           -3.517667003226     1.758209515346     2.048802070872
    H           -1.121191012070     0.881213391024    -1.609827131626
    H            0.475063352129    -0.393983807340     2.160313376492
    H           -3.106330053937     1.780820658105    -0.448299161266
    H           -1.484849558584     0.540464619082     3.302756123966
    H            0.655961753963    -2.362688798742     0.366394228354
    H            1.494551171655     1.340902391538    -1.622143214201
    H            2.506317357882    -3.402838439793    -0.955612673506
    H            3.303713247677     0.164358289129    -2.886226299183
    H            3.674163228611    -2.079227948846    -2.453330395652
    H           -3.499662923882     1.645178704468     3.005419991938

	Cleaning optimization helper files.

*** Psi4 exiting successfully. Buy a developer a beer!
