
    -----------------------------------------------------------------------
          Psi4: An Open-Source Ab Initio Electronic Structure Package
                               Psi4 1.1 release

                         Git: Rev {HEAD} add49b9 


    R. M. Parrish, L. A. Burns, D. G. A. Smith, A. C. Simmonett,
    A. E. DePrince III, E. G. Hohenstein, U. Bozkaya, A. Yu. Sokolov,
    R. Di Remigio, R. M. Richard, J. F. Gonthier, A. M. James,
    H. R. McAlexander, A. Kumar, M. Saitow, X. Wang, B. P. Pritchard,
    P. Verma, H. F. Schaefer III, K. Patkowski, R. A. King, E. F. Valeev,
    F. A. Evangelista, J. M. Turney, T. D. Crawford, and C. D. Sherrill,
    J. Chem. Theory Comput. in press (2017).
    (doi: 10.1021/acs.jctc.7b00174)

    -----------------------------------------------------------------------


    Psi4 started on: Saturday, 11 November 2017 11:42PM

    Process ID:  26972
    PSIDATADIR: /cbio/jclab/home/chayas/anaconda/envs/py35/share/psi4
    Memory:     500.0 MiB
    Threads:    8
    
  ==> Input File <==

--------------------------------------------------------------------------

memory 5 Gb

molecule phepyrFOH_neutral {
  symmetry C1
  0 1 
  C      1.885   -1.036   -0.112
  C      0.807   -0.463   0.561
  C      3.825   -3.269   -0.988
  C      5.328   -1.753   0.119
  C      1.800   -1.079   2.676
  C      4.927   -3.802   -1.637
  C      6.363   -2.354   -0.579
  C      2.921   -1.631   0.608
  C      4.038   -2.225   -0.095
  C      0.764   -0.484   1.955
  C      2.878   -1.652   2.002
  N      6.195   -3.370   -1.455
  O      -0.289   0.076   2.612
  F      3.866   -2.220   2.709
  H      1.904   -1.012   -1.199
  H      0.002   -0.002   -0.006
  H      2.833   -3.663   -1.183
  H      5.532   -0.940   0.809
  H      1.772   -1.099   3.762
  H      4.814   -4.616   -2.345
  H      7.387   -2.023   -0.446
  H      -0.074   0.196   3.551
  units Angstrom
}

dih_string = "2 10 13 22 195"
set optking fixed_dihedral = $dih_string

optimize('MP2/aug-cc-PVTZ')
--------------------------------------------------------------------------

  Memory set to   4.657 GiB by Python driver.
gradient() will perform analytic gradient computation.

*** tstart() called on gpu-1-6.local
*** at Sat Nov 11 23:42:04 2017

    SCF Algorithm Type (re)set to DF.

*** tstart() called on gpu-1-6.local
*** at Sat Nov 11 23:42:04 2017

   => Loading Basis Set <=

    Name: AUG-CC-PVTZ
    Role: ORBITAL
    Keyword: BASIS
    atoms 1-11  entry C          line   221 file /cbio/jclab/home/chayas/anaconda/envs/py35/share/psi4/basis/aug-cc-pvtz.gbs 
    atoms 12    entry N          line   267 file /cbio/jclab/home/chayas/anaconda/envs/py35/share/psi4/basis/aug-cc-pvtz.gbs 
    atoms 13    entry O          line   313 file /cbio/jclab/home/chayas/anaconda/envs/py35/share/psi4/basis/aug-cc-pvtz.gbs 
    atoms 14    entry F          line   359 file /cbio/jclab/home/chayas/anaconda/envs/py35/share/psi4/basis/aug-cc-pvtz.gbs 
    atoms 15-22 entry H          line    34 file /cbio/jclab/home/chayas/anaconda/envs/py35/share/psi4/basis/aug-cc-pvtz.gbs 


         ---------------------------------------------------------
                                   SCF
            by Justin Turney, Rob Parrish, and Andy Simmonett
                              RHF Reference
                        8 Threads,   4768 MiB Core
         ---------------------------------------------------------

  ==> Geometry <==

    Molecular point group: c1
    Full point group: C1

    Geometry (in Angstrom), charge = 0, multiplicity = 1:

       Center              X                  Y                   Z               Mass       
    ------------   -----------------  -----------------  -----------------  -----------------
           C         -1.322281834483     0.753860227603    -0.799388345117    12.000000000000
           C         -2.400281834483     1.326860227603    -0.126388345117    12.000000000000
           C          0.617718165517    -1.479139772397    -1.675388345117    12.000000000000
           C          2.120718165517     0.036860227603    -0.568388345117    12.000000000000
           C         -1.407281834483     0.710860227603     1.988611654883    12.000000000000
           C          1.719718165517    -2.012139772397    -2.324388345117    12.000000000000
           C          3.155718165517    -0.564139772397    -1.266388345117    12.000000000000
           C         -0.286281834483     0.158860227603    -0.079388345117    12.000000000000
           C          0.830718165517    -0.435139772397    -0.782388345117    12.000000000000
           C         -2.443281834483     1.305860227603     1.267611654883    12.000000000000
           C         -0.329281834483     0.137860227603     1.314611654883    12.000000000000
           N          2.987718165517    -1.580139772397    -2.142388345117    14.003074004780
           O         -3.496281834483     1.865860227603     1.924611654883    15.994914619560
           F          0.658718165517    -0.430139772397     2.021611654883    18.998403224000
           H         -1.303281834483     0.777860227603    -1.886388345117     1.007825032070
           H         -3.205281834483     1.787860227603    -0.693388345117     1.007825032070
           H         -0.374281834483    -1.873139772397    -1.870388345117     1.007825032070
           H          2.324718165517     0.849860227603     0.121611654883     1.007825032070
           H         -1.435281834483     0.690860227603     3.074611654883     1.007825032070
           H          1.606718165517    -2.826139772397    -3.032388345117     1.007825032070
           H          4.179718165517    -0.233139772397    -1.133388345117     1.007825032070
           H         -3.281281834483     1.985860227603     2.863611654883     1.007825032070

  Running in c1 symmetry.

  Rotational constants: A =      0.06326  B =      0.01307  C =      0.01165 [cm^-1]
  Rotational constants: A =   1896.56854  B =    391.96653  C =    349.22915 [MHz]
  Nuclear repulsion =  814.010904562858173

  Charge       = 0
  Multiplicity = 1
  Electrons    = 98
  Nalpha       = 49
  Nbeta        = 49

  ==> Algorithm <==

  SCF Algorithm Type is DF.
  DIIS enabled.
  MOM disabled.
  Fractional occupation disabled.
  Guess Type is SAD.
  Energy threshold   = 1.00e-10
  Density threshold  = 1.00e-10
  Integral threshold = 0.00e+00

  ==> Primary Basis <==

  Basis Set: AUG-CC-PVTZ
    Blend: AUG-CC-PVTZ
    Number of shells: 268
    Number of basis function: 828
    Number of Cartesian functions: 970
    Spherical Harmonics?: true
    Max angular momentum: 3

   => Loading Basis Set <=

    Name: (AUG-CC-PVTZ AUX)
    Role: JKFIT
    Keyword: DF_BASIS_SCF
    atoms 1-11  entry C          line   161 file /cbio/jclab/home/chayas/anaconda/envs/py35/share/psi4/basis/aug-cc-pvtz-jkfit.gbs 
    atoms 12    entry N          line   223 file /cbio/jclab/home/chayas/anaconda/envs/py35/share/psi4/basis/aug-cc-pvtz-jkfit.gbs 
    atoms 13    entry O          line   285 file /cbio/jclab/home/chayas/anaconda/envs/py35/share/psi4/basis/aug-cc-pvtz-jkfit.gbs 
    atoms 14    entry F          line   347 file /cbio/jclab/home/chayas/anaconda/envs/py35/share/psi4/basis/aug-cc-pvtz-jkfit.gbs 
    atoms 15-22 entry H          line    69 file /cbio/jclab/home/chayas/anaconda/envs/py35/share/psi4/basis/aug-cc-pvtz-jkfit.gbs 

  ==> Pre-Iterations <==

   -------------------------------------------------------
    Irrep   Nso     Nmo     Nalpha   Nbeta   Ndocc  Nsocc
   -------------------------------------------------------
     A        828     828       0       0       0       0
   -------------------------------------------------------
    Total     828     828      49      49      49       0
   -------------------------------------------------------

  ==> Integral Setup <==

  ==> DFJK: Density-Fitted J/K Matrices <==

    J tasked:                  Yes
    K tasked:                  Yes
    wK tasked:                  No
    OpenMP threads:              8
    Integrals threads:           8
    Memory (MB):              3576
    Algorithm:                Disk
    Integral Cache:           NONE
    Schwarz Cutoff:          1E-12
    Fitting Condition:       1E-12

   => Auxiliary Basis Set <=

  Basis Set: (AUG-CC-PVTZ AUX)
    Blend: AUG-CC-PVTZ-JKFIT
    Number of shells: 532
    Number of basis function: 1824
    Number of Cartesian functions: 2274
    Spherical Harmonics?: true
    Max angular momentum: 4

  Minimum eigenvalue in the overlap matrix is 7.3925772016E-07.
  Using Symmetric Orthogonalization.

  SCF Guess: Superposition of Atomic Densities via on-the-fly atomic UHF.

  ==> Iterations <==

                           Total Energy        Delta E     RMS |[F,P]|

   @DF-RHF iter   0:  -659.19089989769111   -6.59191e+02   2.42098e-02 
   @DF-RHF iter   1:  -649.83933891432855    9.35156e+00   2.20331e-03 
   @DF-RHF iter   2:  -650.10794003188846   -2.68601e-01   9.51900e-04 DIIS
   @DF-RHF iter   3:  -650.15611151028645   -4.81715e-02   4.29582e-04 DIIS
   @DF-RHF iter   4:  -650.17062383539508   -1.45123e-02   1.42631e-04 DIIS
   @DF-RHF iter   5:  -650.17286708777306   -2.24325e-03   5.55978e-05 DIIS
   @DF-RHF iter   6:  -650.17321501789161   -3.47930e-04   2.02053e-05 DIIS
   @DF-RHF iter   7:  -650.17327378516870   -5.87673e-05   7.39777e-06 DIIS
   @DF-RHF iter   8:  -650.17328185538759   -8.07022e-06   3.09631e-06 DIIS
   @DF-RHF iter   9:  -650.17328453810092   -2.68271e-06   1.70900e-06 DIIS
   @DF-RHF iter  10:  -650.17328536224591   -8.24145e-07   6.07863e-07 DIIS
   @DF-RHF iter  11:  -650.17328544729344   -8.50475e-08   2.15200e-07 DIIS
   @DF-RHF iter  12:  -650.17328545525152   -7.95808e-09   5.63306e-08 DIIS
   @DF-RHF iter  13:  -650.17328545576083   -5.09317e-10   2.69951e-08 DIIS
   @DF-RHF iter  14:  -650.17328545588202   -1.21190e-10   8.34792e-09 DIIS
   @DF-RHF iter  15:  -650.17328545590203   -2.00089e-11   4.87558e-09 DIIS
   @DF-RHF iter  16:  -650.17328545590738   -5.34328e-12   2.56566e-09 DIIS
   @DF-RHF iter  17:  -650.17328545589942    7.95808e-12   1.02647e-09 DIIS
   @DF-RHF iter  18:  -650.17328545590271   -3.29692e-12   4.73112e-10 DIIS
   @DF-RHF iter  19:  -650.17328545590158    1.13687e-12   1.70249e-10 DIIS
   @DF-RHF iter  20:  -650.17328545590090    6.82121e-13   7.08310e-11 DIIS

  ==> Post-Iterations <==

    Orbital Energies (a.u.)
    -----------------------

    Doubly Occupied:                                                      

       1A    -26.327555     2A    -20.608434     3A    -15.565435  
       4A    -11.349505     5A    -11.327313     6A    -11.275014  
       7A    -11.274283     8A    -11.265479     9A    -11.265065  
      10A    -11.254190    11A    -11.253158    12A    -11.245949  
      13A    -11.239710    14A    -11.238501    15A     -1.645755  
      16A     -1.423173    17A     -1.250580    18A     -1.181818  
      19A     -1.110282    20A     -1.041364    21A     -1.034581  
      22A     -1.019526    23A     -0.891773    24A     -0.876769  
      25A     -0.853834    26A     -0.824837    27A     -0.772967  
      28A     -0.746865    29A     -0.725191    30A     -0.711957  
      31A     -0.697450    32A     -0.664730    33A     -0.661295  
      34A     -0.641668    35A     -0.635752    36A     -0.618018  
      37A     -0.606925    38A     -0.599221    39A     -0.574769  
      40A     -0.543687    41A     -0.533360    42A     -0.532778  
      43A     -0.522364    44A     -0.494590    45A     -0.419532  
      46A     -0.387287    47A     -0.359955    48A     -0.349306  
      49A     -0.324952  

    Virtual:                                                              

      50A      0.021826    51A      0.029170    52A      0.034375  
      53A      0.036774    54A      0.044381    55A      0.047146  
      56A      0.051840    57A      0.055179    58A      0.076065  
      59A      0.082303    60A      0.083029    61A      0.085762  
      62A      0.091917    63A      0.095414    64A      0.097155  
      65A      0.101215    66A      0.104417    67A      0.108545  
      68A      0.108929    69A      0.112859    70A      0.113900  
      71A      0.118579    72A      0.120114    73A      0.125879  
      74A      0.129535    75A      0.131439    76A      0.133612  
      77A      0.135908    78A      0.141601    79A      0.142593  
      80A      0.145783    81A      0.151148    82A      0.154686  
      83A      0.155622    84A      0.155964    85A      0.166567  
      86A      0.172138    87A      0.173518    88A      0.180299  
      89A      0.185872    90A      0.194582    91A      0.200923  
      92A      0.208751    93A      0.213559    94A      0.219983  
      95A      0.220984    96A      0.228670    97A      0.235135  
      98A      0.235655    99A      0.239742   100A      0.242122  
     101A      0.243843   102A      0.249330   103A      0.254137  
     104A      0.258227   105A      0.259298   106A      0.264434  
     107A      0.266073   108A      0.268821   109A      0.273645  
     110A      0.278123   111A      0.281534   112A      0.284996  
     113A      0.291633   114A      0.293395   115A      0.299732  
     116A      0.302232   117A      0.309591   118A      0.313580  
     119A      0.315314   120A      0.318944   121A      0.323036  
     122A      0.325937   123A      0.328131   124A      0.332388  
     125A      0.336858   126A      0.346094   127A      0.347952  
     128A      0.350148   129A      0.353915   130A      0.360174  
     131A      0.368596   132A      0.376137   133A      0.381718  
     134A      0.386537   135A      0.389000   136A      0.394793  
     137A      0.402351   138A      0.404387   139A      0.407164  
     140A      0.413562   141A      0.413945   142A      0.417811  
     143A      0.425863   144A      0.426300   145A      0.432598  
     146A      0.438588   147A      0.441169   148A      0.445642  
     149A      0.447518   150A      0.450903   151A      0.459554  
     152A      0.464222   153A      0.467710   154A      0.470136  
     155A      0.473769   156A      0.475331   157A      0.479175  
     158A      0.482237   159A      0.486291   160A      0.488079  
     161A      0.492691   162A      0.497291   163A      0.497918  
     164A      0.502061   165A      0.509132   166A      0.510395  
     167A      0.511119   168A      0.513088   169A      0.521792  
     170A      0.523507   171A      0.525324   172A      0.529254  
     173A      0.535188   174A      0.539556   175A      0.543248  
     176A      0.546888   177A      0.550473   178A      0.554806  
     179A      0.559511   180A      0.562834   181A      0.573533  
     182A      0.576146   183A      0.581049   184A      0.583882  
     185A      0.587575   186A      0.593855   187A      0.603543  
     188A      0.612329   189A      0.622427   190A      0.627265  
     191A      0.628434   192A      0.637176   193A      0.639771  
     194A      0.644747   195A      0.648371   196A      0.655398  
     197A      0.658899   198A      0.669939   199A      0.676616  
     200A      0.681402   201A      0.690871   202A      0.695812  
     203A      0.702271   204A      0.704777   205A      0.707311  
     206A      0.717700   207A      0.719009   208A      0.728774  
     209A      0.731277   210A      0.734360   211A      0.737694  
     212A      0.739844   213A      0.747243   214A      0.757578  
     215A      0.763809   216A      0.768189   217A      0.773772  
     218A      0.782783   219A      0.789426   220A      0.793046  
     221A      0.794276   222A      0.804742   223A      0.808676  
     224A      0.820620   225A      0.823567   226A      0.828767  
     227A      0.835746   228A      0.846386   229A      0.849032  
     230A      0.854403   231A      0.857870   232A      0.860990  
     233A      0.863266   234A      0.871817   235A      0.875496  
     236A      0.882622   237A      0.886013   238A      0.889067  
     239A      0.891216   240A      0.898045   241A      0.903783  
     242A      0.909303   243A      0.912906   244A      0.924084  
     245A      0.928797   246A      0.931057   247A      0.932411  
     248A      0.935251   249A      0.942406   250A      0.945981  
     251A      0.948943   252A      0.956497   253A      0.957250  
     254A      0.962321   255A      0.965374   256A      0.971248  
     257A      0.974114   258A      0.987154   259A      0.989997  
     260A      0.991801   261A      0.997601   262A      1.002731  
     263A      1.005693   264A      1.012797   265A      1.018486  
     266A      1.020810   267A      1.025261   268A      1.027224  
     269A      1.032369   270A      1.034729   271A      1.043314  
     272A      1.048771   273A      1.049455   274A      1.053397  
     275A      1.062236   276A      1.064958   277A      1.069255  
     278A      1.074080   279A      1.079029   280A      1.085483  
     281A      1.088156   282A      1.091707   283A      1.098047  
     284A      1.104540   285A      1.111378   286A      1.112692  
     287A      1.117000   288A      1.126261   289A      1.128779  
     290A      1.133297   291A      1.134862   292A      1.145229  
     293A      1.148988   294A      1.153352   295A      1.155797  
     296A      1.158369   297A      1.162920   298A      1.165193  
     299A      1.172642   300A      1.180572   301A      1.182705  
     302A      1.188464   303A      1.197621   304A      1.200281  
     305A      1.208156   306A      1.211860   307A      1.216526  
     308A      1.220969   309A      1.229900   310A      1.232813  
     311A      1.241097   312A      1.243765   313A      1.252618  
     314A      1.257837   315A      1.263793   316A      1.266655  
     317A      1.274980   318A      1.277921   319A      1.288855  
     320A      1.298070   321A      1.302368   322A      1.306594  
     323A      1.307872   324A      1.316264   325A      1.323943  
     326A      1.331216   327A      1.334692   328A      1.347312  
     329A      1.353031   330A      1.357083   331A      1.365574  
     332A      1.370574   333A      1.377766   334A      1.381213  
     335A      1.392050   336A      1.401804   337A      1.405852  
     338A      1.408244   339A      1.412100   340A      1.425463  
     341A      1.435251   342A      1.441656   343A      1.444902  
     344A      1.452776   345A      1.462776   346A      1.472536  
     347A      1.483191   348A      1.485834   349A      1.490580  
     350A      1.510725   351A      1.513547   352A      1.524357  
     353A      1.532520   354A      1.536118   355A      1.553103  
     356A      1.557158   357A      1.564114   358A      1.569723  
     359A      1.572506   360A      1.584113   361A      1.586748  
     362A      1.595761   363A      1.603669   364A      1.612770  
     365A      1.626667   366A      1.632380   367A      1.635319  
     368A      1.644824   369A      1.652910   370A      1.655481  
     371A      1.664809   372A      1.667846   373A      1.673787  
     374A      1.682726   375A      1.685442   376A      1.695052  
     377A      1.699922   378A      1.714985   379A      1.726818  
     380A      1.730815   381A      1.733282   382A      1.740399  
     383A      1.745470   384A      1.755037   385A      1.760082  
     386A      1.769592   387A      1.776219   388A      1.780868  
     389A      1.785478   390A      1.798082   391A      1.808847  
     392A      1.813000   393A      1.820050   394A      1.825481  
     395A      1.838534   396A      1.849240   397A      1.852028  
     398A      1.871705   399A      1.880826   400A      1.883157  
     401A      1.892256   402A      1.894403   403A      1.897757  
     404A      1.905840   405A      1.913273   406A      1.923635  
     407A      1.928425   408A      1.935017   409A      1.945661  
     410A      1.950960   411A      1.957294   412A      1.962194  
     413A      1.977114   414A      1.984914   415A      1.991301  
     416A      1.996376   417A      2.010549   418A      2.011365  
     419A      2.020640   420A      2.027792   421A      2.039795  
     422A      2.050430   423A      2.052813   424A      2.057708  
     425A      2.072978   426A      2.083002   427A      2.086450  
     428A      2.089640   429A      2.094355   430A      2.102820  
     431A      2.112647   432A      2.118544   433A      2.123844  
     434A      2.132479   435A      2.133936   436A      2.145560  
     437A      2.154888   438A      2.172096   439A      2.176982  
     440A      2.190176   441A      2.192561   442A      2.196743  
     443A      2.216028   444A      2.218132   445A      2.233558  
     446A      2.238074   447A      2.245795   448A      2.255079  
     449A      2.268169   450A      2.270418   451A      2.276416  
     452A      2.282847   453A      2.298436   454A      2.301727  
     455A      2.315635   456A      2.324297   457A      2.334412  
     458A      2.338828   459A      2.355717   460A      2.362568  
     461A      2.377655   462A      2.384922   463A      2.411963  
     464A      2.417510   465A      2.418988   466A      2.428804  
     467A      2.439935   468A      2.451527   469A      2.460366  
     470A      2.471120   471A      2.474730   472A      2.487101  
     473A      2.525308   474A      2.533467   475A      2.551704  
     476A      2.560477   477A      2.563979   478A      2.578106  
     479A      2.581676   480A      2.586062   481A      2.598193  
     482A      2.609270   483A      2.621303   484A      2.626476  
     485A      2.638083   486A      2.675050   487A      2.677811  
     488A      2.692858   489A      2.717355   490A      2.722807  
     491A      2.742646   492A      2.750930   493A      2.763108  
     494A      2.789108   495A      2.794255   496A      2.814753  
     497A      2.817951   498A      2.834989   499A      2.837068  
     500A      2.851330   501A      2.875941   502A      2.913719  
     503A      2.922911   504A      2.948145   505A      2.967060  
     506A      2.980267   507A      3.027014   508A      3.032831  
     509A      3.052425   510A      3.057319   511A      3.059403  
     512A      3.081370   513A      3.112101   514A      3.114236  
     515A      3.130902   516A      3.151840   517A      3.158006  
     518A      3.179840   519A      3.181737   520A      3.191721  
     521A      3.199835   522A      3.209634   523A      3.235786  
     524A      3.249435   525A      3.260727   526A      3.265967  
     527A      3.280458   528A      3.289141   529A      3.305182  
     530A      3.320114   531A      3.330480   532A      3.339491  
     533A      3.356218   534A      3.368790   535A      3.381722  
     536A      3.395132   537A      3.398117   538A      3.415054  
     539A      3.425405   540A      3.427547   541A      3.437478  
     542A      3.443824   543A      3.444024   544A      3.450307  
     545A      3.456328   546A      3.476828   547A      3.483471  
     548A      3.490788   549A      3.495420   550A      3.507050  
     551A      3.524601   552A      3.539741   553A      3.547059  
     554A      3.549206   555A      3.556968   556A      3.560637  
     557A      3.565930   558A      3.573095   559A      3.581730  
     560A      3.589697   561A      3.598465   562A      3.607601  
     563A      3.618122   564A      3.628019   565A      3.631857  
     566A      3.639599   567A      3.653305   568A      3.656358  
     569A      3.666466   570A      3.678489   571A      3.688085  
     572A      3.705744   573A      3.711217   574A      3.716101  
     575A      3.730073   576A      3.737081   577A      3.746222  
     578A      3.752209   579A      3.763428   580A      3.779834  
     581A      3.781259   582A      3.791048   583A      3.803498  
     584A      3.805178   585A      3.819657   586A      3.823043  
     587A      3.827179   588A      3.845217   589A      3.851043  
     590A      3.866510   591A      3.876015   592A      3.882445  
     593A      3.890381   594A      3.898146   595A      3.903391  
     596A      3.913063   597A      3.922906   598A      3.927340  
     599A      3.937096   600A      3.943134   601A      3.946223  
     602A      3.953808   603A      3.965580   604A      3.971757  
     605A      3.981466   606A      3.985610   607A      4.002208  
     608A      4.017819   609A      4.025005   610A      4.026231  
     611A      4.038623   612A      4.043117   613A      4.059081  
     614A      4.067199   615A      4.070596   616A      4.082040  
     617A      4.083022   618A      4.107342   619A      4.109498  
     620A      4.115345   621A      4.124601   622A      4.139011  
     623A      4.146043   624A      4.157022   625A      4.160279  
     626A      4.176887   627A      4.180888   628A      4.195379  
     629A      4.205749   630A      4.209657   631A      4.218956  
     632A      4.228483   633A      4.236149   634A      4.241683  
     635A      4.251209   636A      4.263498   637A      4.287188  
     638A      4.292897   639A      4.301935   640A      4.307625  
     641A      4.317313   642A      4.320988   643A      4.325703  
     644A      4.343587   645A      4.348055   646A      4.356774  
     647A      4.366311   648A      4.369424   649A      4.380684  
     650A      4.393887   651A      4.412518   652A      4.420287  
     653A      4.421918   654A      4.429581   655A      4.439389  
     656A      4.446549   657A      4.458678   658A      4.464433  
     659A      4.466682   660A      4.477907   661A      4.490280  
     662A      4.511112   663A      4.517768   664A      4.524213  
     665A      4.532976   666A      4.551091   667A      4.572471  
     668A      4.581382   669A      4.584221   670A      4.599459  
     671A      4.607713   672A      4.614033   673A      4.622361  
     674A      4.638413   675A      4.658809   676A      4.682675  
     677A      4.689190   678A      4.717852   679A      4.721590  
     680A      4.723966   681A      4.743719   682A      4.747527  
     683A      4.765231   684A      4.775188   685A      4.792167  
     686A      4.808579   687A      4.814435   688A      4.845280  
     689A      4.857134   690A      4.861534   691A      4.890134  
     692A      4.909335   693A      4.915686   694A      4.933047  
     695A      4.952502   696A      4.967955   697A      4.968969  
     698A      4.972992   699A      4.982800   700A      5.010823  
     701A      5.017438   702A      5.025962   703A      5.034921  
     704A      5.037078   705A      5.043009   706A      5.057599  
     707A      5.069889   708A      5.095201   709A      5.100709  
     710A      5.111686   711A      5.122530   712A      5.134864  
     713A      5.139942   714A      5.160255   715A      5.172569  
     716A      5.179120   717A      5.183994   718A      5.189795  
     719A      5.190461   720A      5.205053   721A      5.232892  
     722A      5.272926   723A      5.277223   724A      5.301773  
     725A      5.307724   726A      5.321146   727A      5.333560  
     728A      5.352802   729A      5.367041   730A      5.380420  
     731A      5.398439   732A      5.434539   733A      5.441444  
     734A      5.455819   735A      5.460629   736A      5.469090  
     737A      5.473086   738A      5.495304   739A      5.527420  
     740A      5.553896   741A      5.563000   742A      5.573285  
     743A      5.604597   744A      5.614550   745A      5.639330  
     746A      5.687456   747A      5.709712   748A      5.744491  
     749A      5.746353   750A      5.765002   751A      5.796891  
     752A      5.802885   753A      5.834002   754A      5.847853  
     755A      5.875975   756A      5.882110   757A      5.909512  
     758A      5.958150   759A      6.014684   760A      6.040299  
     761A      6.081326   762A      6.112493   763A      6.127899  
     764A      6.179637   765A      6.231406   766A      6.257556  
     767A      6.285086   768A      6.304144   769A      6.316951  
     770A      6.359056   771A      6.375565   772A      6.460714  
     773A      6.492397   774A      6.513448   775A      6.523753  
     776A      6.571249   777A      6.684649   778A      6.695659  
     779A      6.704509   780A      6.715977   781A      6.738517  
     782A      6.829713   783A      6.871634   784A      6.895838  
     785A      6.927157   786A      6.955541   787A      6.982335  
     788A      7.052529   789A      7.065191   790A      7.083394  
     791A      7.189093   792A      7.263188   793A      7.379448  
     794A      7.417342   795A      7.436491   796A      7.478642  
     797A      7.663924   798A      7.691202   799A      7.742620  
     800A      7.969307   801A      8.363229   802A      8.608658  
     803A      9.002298   804A      9.045531   805A      9.268266  
     806A      9.287549   807A      9.403919   808A      9.517812  
     809A      9.538286   810A      9.591349   811A      9.639527  
     812A      9.713649   813A     10.030014   814A     10.075051  
     815A     15.528944   816A     16.142629   817A     16.550480  
     818A     16.585039   819A     16.678027   820A     16.813707  
     821A     18.458040   822A     18.694891   823A     19.189351  
     824A     19.671759   825A     20.151616   826A     20.190024  
     827A     20.412210   828A     21.794078  

    Final Occupation by Irrep:
              A 
    DOCC [    49 ]

  Energy converged.

  @DF-RHF Final Energy:  -650.17328545590090

   => Energetics <=

    Nuclear Repulsion Energy =            814.0109045628581725
    One-Electron Energy =               -2502.8313734420371475
    Two-Electron Energy =                1038.6471834232779656
    DFT Exchange-Correlation Energy =       0.0000000000000000
    Empirical Dispersion Energy =           0.0000000000000000
    PCM Polarization Energy =               0.0000000000000000
    EFP Energy =                            0.0000000000000000
    Total Energy =                       -650.1732854559008956



Properties will be evaluated at   0.000000,   0.000000,   0.000000 Bohr

Properties computed using the SCF density matrix

  Nuclear Dipole Moment: (a.u.)
     X:    -2.0421      Y:     1.5067      Z:    -4.2879

  Electronic Dipole Moment: (a.u.)
     X:     1.1186      Y:    -0.8388      Z:     4.9048

  Dipole Moment: (a.u.)
     X:    -0.9235      Y:     0.6678      Z:     0.6169     Total:     1.2959

  Dipole Moment: (Debye)
     X:    -2.3473      Y:     1.6975      Z:     1.5680     Total:     3.2939


*** tstop() called on gpu-1-6.local at Sat Nov 11 23:50:00 2017
Module time:
	user time   =    1121.22 seconds =      18.69 minutes
	system time =      49.75 seconds =       0.83 minutes
	total time  =        476 seconds =       7.93 minutes
Total time:
	user time   =    1121.22 seconds =      18.69 minutes
	system time =      49.75 seconds =       0.83 minutes
	total time  =        476 seconds =       7.93 minutes

  //>>>>>>>>>>>>>>>>>>>>>>>>>>>>>>>>>>>//
  //               DFMP2               //
  //<<<<<<<<<<<<<<<<<<<<<<<<<<<<<<<<<<<//

   => Loading Basis Set <=

    Name: (AUG-CC-PVTZ AUX)
    Role: RIFIT
    Keyword: DF_BASIS_MP2
    atoms 1-11  entry C          line   147 file /cbio/jclab/home/chayas/anaconda/envs/py35/share/psi4/basis/aug-cc-pvtz-ri.gbs 
    atoms 12    entry N          line   205 file /cbio/jclab/home/chayas/anaconda/envs/py35/share/psi4/basis/aug-cc-pvtz-ri.gbs 
    atoms 13    entry O          line   263 file /cbio/jclab/home/chayas/anaconda/envs/py35/share/psi4/basis/aug-cc-pvtz-ri.gbs 
    atoms 14    entry F          line   321 file /cbio/jclab/home/chayas/anaconda/envs/py35/share/psi4/basis/aug-cc-pvtz-ri.gbs 
    atoms 15-22 entry H          line    29 file /cbio/jclab/home/chayas/anaconda/envs/py35/share/psi4/basis/aug-cc-pvtz-ri.gbs 

	 --------------------------------------------------------
	                          DF-MP2                         
	      2nd-Order Density-Fitted Moller-Plesset Theory     
	              RMP2 Wavefunction,   8 Threads             
	                                                         
	        Rob Parrish, Justin Turney, Andy Simmonett,      
	           Ed Hohenstein, and C. David Sherrill          
	 --------------------------------------------------------

   => Auxiliary Basis Set <=

  Basis Set: (AUG-CC-PVTZ AUX)
    Blend: AUG-CC-PVTZ-RI
    Number of shells: 504
    Number of basis function: 1852
    Number of Cartesian functions: 2344
    Spherical Harmonics?: true
    Max angular momentum: 4

	 --------------------------------------------------------
	                 NBF =   828, NAUX =  1852
	 --------------------------------------------------------
	   CLASS    FOCC     OCC    AOCC    AVIR     VIR    FVIR
	   PAIRS       0      49      49     779     779       0
	 --------------------------------------------------------


         ------------------------------------------------------------
                                     CPHF                           
                                  Rob Parrish                       
         ------------------------------------------------------------

  ==> Geometry <==

    Molecular point group: c1
    Full point group: C1

    Geometry (in Angstrom), charge = 0, multiplicity = 1:

       Center              X                  Y                   Z               Mass       
    ------------   -----------------  -----------------  -----------------  -----------------
           C         -1.322281834483     0.753860227603    -0.799388345117    12.000000000000
           C         -2.400281834483     1.326860227603    -0.126388345117    12.000000000000
           C          0.617718165517    -1.479139772397    -1.675388345117    12.000000000000
           C          2.120718165517     0.036860227603    -0.568388345117    12.000000000000
           C         -1.407281834483     0.710860227603     1.988611654883    12.000000000000
           C          1.719718165517    -2.012139772397    -2.324388345117    12.000000000000
           C          3.155718165517    -0.564139772397    -1.266388345117    12.000000000000
           C         -0.286281834483     0.158860227603    -0.079388345117    12.000000000000
           C          0.830718165517    -0.435139772397    -0.782388345117    12.000000000000
           C         -2.443281834483     1.305860227603     1.267611654883    12.000000000000
           C         -0.329281834483     0.137860227603     1.314611654883    12.000000000000
           N          2.987718165517    -1.580139772397    -2.142388345117    14.003074004780
           O         -3.496281834483     1.865860227603     1.924611654883    15.994914619560
           F          0.658718165517    -0.430139772397     2.021611654883    18.998403224000
           H         -1.303281834483     0.777860227603    -1.886388345117     1.007825032070
           H         -3.205281834483     1.787860227603    -0.693388345117     1.007825032070
           H         -0.374281834483    -1.873139772397    -1.870388345117     1.007825032070
           H          2.324718165517     0.849860227603     0.121611654883     1.007825032070
           H         -1.435281834483     0.690860227603     3.074611654883     1.007825032070
           H          1.606718165517    -2.826139772397    -3.032388345117     1.007825032070
           H          4.179718165517    -0.233139772397    -1.133388345117     1.007825032070
           H         -3.281281834483     1.985860227603     2.863611654883     1.007825032070

  Nuclear repulsion =  814.010904562858173
  Reference energy  = -650.173285455900896

  ==> Basis Set <==

  Basis Set: AUG-CC-PVTZ
    Blend: AUG-CC-PVTZ
    Number of shells: 268
    Number of basis function: 828
    Number of Cartesian functions: 970
    Spherical Harmonics?: true
    Max angular momentum: 3

  ==> CGRSolver (by Rob Parrish) <==

   Number of roots    =         1
   Preconditioning    =    JACOBI
   Convergence cutoff =     1E-06
   Maximum iterations =       100

  ==> CPHFRHamiltonian (by Rob Parrish) <== 

  ==> DFJK: Density-Fitted J/K Matrices <==

    J tasked:                  Yes
    K tasked:                  Yes
    wK tasked:                  No
    OpenMP threads:              8
    Integrals threads:           8
    Memory (MB):              3576
    Algorithm:                Disk
    Integral Cache:           NONE
    Schwarz Cutoff:          1E-12
    Fitting Condition:       1E-12

   => Auxiliary Basis Set <=

  Basis Set: (AUG-CC-PVTZ AUX)
    Blend: AUG-CC-PVTZ-JKFIT
    Number of shells: 532
    Number of basis function: 1824
    Number of Cartesian functions: 2274
    Spherical Harmonics?: true
    Max angular momentum: 4

  ==> CPHF Iterations <==

  => Iterations <=

             Iter  Converged  Remaining    Residual
  CGR           1          0          1   1.023E-01
  CGR           2          0          1   3.412E-02
  CGR           3          0          1   2.244E-02
  CGR           4          0          1   9.801E-03
  CGR           5          0          1   4.069E-03
  CGR           6          0          1   1.520E-03
  CGR           7          0          1   4.461E-04
  CGR           8          0          1   1.479E-04
  CGR           9          0          1   4.714E-05
  CGR          10          0          1   1.316E-05
  CGR          11          0          1   5.277E-06
  CGR          12          0          1   1.572E-06
  CGR          13          1          0   7.176E-07

    CGRSolver converged.

  ==> DFCorrGrad: Density-Fitted Correlated Gradients <==

    OpenMP threads:              8
    Integrals threads:           8
    Memory (MB):              3576
    Schwarz Cutoff:          0E+00
    Fitting Condition:       1E-12

   => Auxiliary Basis Set <=

  Basis Set: (AUG-CC-PVTZ AUX)
    Blend: AUG-CC-PVTZ-JKFIT
    Number of shells: 532
    Number of basis function: 1824
    Number of Cartesian functions: 2274
    Spherical Harmonics?: true
    Max angular momentum: 4

	-----------------------------------------------------------
	 ==================> DF-MP2 Energies <==================== 
	-----------------------------------------------------------
	 Reference Energy          =    -650.1732854559008956 [Eh]
	 Singles Energy            =      -0.0000000000000001 [Eh]
	 Same-Spin Energy          =      -0.6774999924356462 [Eh]
	 Opposite-Spin Energy      =      -2.0193648010218492 [Eh]
	 Correlation Energy        =      -2.6968647934574954 [Eh]
	 Total Energy              =    -652.8701502493584030 [Eh]
	-----------------------------------------------------------
	 ================> DF-SCS-MP2 Energies <================== 
	-----------------------------------------------------------
	 SCS Same-Spin Scale       =       0.3333333333333333 [-]
	 SCS Opposite-Spin Scale   =       1.2000000000000000 [-]
	 SCS Same-Spin Energy      =      -0.2258333308118821 [Eh]
	 SCS Opposite-Spin Energy  =      -2.4232377612262188 [Eh]
	 SCS Correlation Energy    =      -2.6490710920381009 [Eh]
	 SCS Total Energy          =    -652.8223565479389663 [Eh]
	-----------------------------------------------------------


  -Total Gradient:
     Atom            X                  Y                   Z
    ------   -----------------  -----------------  -----------------
       1        0.010752728418    -0.001907126127    -0.014144471129
       2        0.004216301440    -0.000937300629     0.003293486216
       3       -0.007212232113    -0.001000400631     0.003027021616
       4       -0.003845339695     0.005917219887     0.003755512976
       5       -0.008171050088     0.004191170459     0.000956463286
       6       -0.014030720659    -0.001027631770     0.002626183851
       7       -0.003144281656     0.009510056663     0.008705000432
       8       -0.001139238994     0.000750176795    -0.002671850916
       9       -0.001636033898     0.001041340875    -0.000939330642
      10       -0.010203614063     0.003474940418    -0.003810917975
      11        0.020940294648    -0.015165404476     0.005455102690
      12        0.013514188788    -0.006731440049    -0.008453917028
      13        0.002210262194    -0.004504706974    -0.000358735908
      14        0.001587046838    -0.000305003966     0.002206582898
      15       -0.002849277130     0.001241163511    -0.006267404890
      16       -0.003432558502     0.001410415037    -0.005423059347
      17       -0.003127880531    -0.002585707028    -0.002780324533
      18        0.002886339306     0.003647248241     0.002812933474
      19       -0.000700937678     0.000862448273     0.004481281227
      20        0.000393122752    -0.001768439574    -0.001986782343
      21        0.002491193463     0.000169967028     0.000090781867
      22        0.000501687142     0.003717014040     0.009426444183


*** tstop() called on gpu-1-6.local at Sun Nov 12 00:28:12 2017
Module time:
	user time   =    5749.99 seconds =      95.83 minutes
	system time =     110.77 seconds =       1.85 minutes
	total time  =       2768 seconds =      46.13 minutes
Total time:
	user time   =    5749.99 seconds =      95.83 minutes
	system time =     110.77 seconds =       1.85 minutes
	total time  =       2768 seconds =      46.13 minutes

			-----------------------------------------
			 OPTKING 2.0: for geometry optimizations 
			  - R.A. King,  Bethel University        
			-----------------------------------------

	Internal coordinates to be generated automatically.
	Detected frag 1 with atoms:  1 2 3 4 5 6 7 8 9 10 11 12 13 14 15 16 17 18 19 20
	 21 22
	---Fragment 1 Bond Connectivity---
	 1 : 2 8 15
	 2 : 1 10 16
	 3 : 6 9 17
	 4 : 7 9 18
	 5 : 10 11 19
	 6 : 3 12 20
	 7 : 4 12 21
	 8 : 1 9 11
	 9 : 3 4 8
	 10 : 2 5 13
	 11 : 5 8 14
	 12 : 6 7
	 13 : 10 22
	 14 : 11
	 15 : 1
	 16 : 2
	 17 : 3
	 18 : 4
	 19 : 5
	 20 : 6
	 21 : 7
	 22 : 13

	Assuming in current code that numbering for constraints corresponds to unified fragment.
	Fixed dihedral atom list: 
	     2    10    13    22
	---Fragment 1 Geometry and Gradient---
	 C          -2.4987505377        1.4245893726       -1.5106250461
	 C          -4.5358753089        2.5074024468       -0.2388393587
	 C           1.1673181601       -2.7951690821       -3.1660251385
	 C           4.0075765379        0.0696557354       -1.0740983094
	 C          -2.6593772590        1.3433311489        3.7579314124
	 C           3.2497963586       -3.8023931109       -4.3924573987
	 C           5.9634430854       -1.0660696705       -2.3931271501
	 C          -0.5409942640        0.3002023236       -0.1500222304
	 C           1.5698298264       -0.8222949994       -1.4784997018
	 C          -4.6171335326        2.4677181980        2.3954388706
	 C          -0.6222524877        0.2605180748        2.4842559988
	 N           5.6459690951       -2.9860314215       -4.0485272426
	 O          -6.6070151506        3.5259648324        3.6369889399
	 F           1.2447969316       -0.8128463687        3.8202923748
	 H          -2.4628457411        1.4699427998       -3.5647573525
	 H          -6.0571048459        3.3785661940       -1.3103140760
	 H          -0.7072901637       -3.5397211784       -3.5345217344
	 H           4.3930806690        1.6060030814        0.2298127223
	 H          -2.7122895907        1.3055366263        5.8101739927
	 H           3.0362573056       -5.3406301831       -5.7303835008
	 H           7.8985226455       -0.4405703205       -2.1417935745
	 H          -6.2007240320        3.7527319684        5.4114417787
	             0.0107527284       -0.0019071261       -0.0141444711
	             0.0042163014       -0.0009373006        0.0032934862
	            -0.0072122321       -0.0010004006        0.0030270216
	            -0.0038453397        0.0059172199        0.0037555130
	            -0.0081710501        0.0041911705        0.0009564633
	            -0.0140307207       -0.0010276318        0.0026261839
	            -0.0031442817        0.0095100567        0.0087050004
	            -0.0011392390        0.0007501768       -0.0026718509
	            -0.0016360339        0.0010413409       -0.0009393306
	            -0.0102036141        0.0034749404       -0.0038109180
	             0.0209402946       -0.0151654045        0.0054551027
	             0.0135141888       -0.0067314400       -0.0084539170
	             0.0022102622       -0.0045047070       -0.0003587359
	             0.0015870468       -0.0003050040        0.0022065829
	            -0.0028492771        0.0012411635       -0.0062674049
	            -0.0034325585        0.0014104150       -0.0054230593
	            -0.0031278805       -0.0025857070       -0.0027803245
	             0.0028863393        0.0036472482        0.0028129335
	            -0.0007009377        0.0008624483        0.0044812812
	             0.0003931228       -0.0017684396       -0.0019867823
	             0.0024911935        0.0001699670        0.0000907819
	             0.0005016871        0.0037170140        0.0094264442

	Previous optimization step data not found.  Starting new optimization.

	---Fragment 1 Intrafragment Coordinates---
	 - Coordinate -           - BOHR/RAD -       - ANG/DEG -
	 R(1,2)           =         2.634350	       1.394038
	 R(1,8)           =         2.635962	       1.394891
	 R(1,15)          =         2.054947	       1.087431
	 R(2,10)          =         2.635830	       1.394821
	 R(2,16)          =         2.054537	       1.087214
	 R(3,6)           =         2.618273	       1.385530
	 R(3,9)           =         2.627164	       1.390235
	 R(3,17)          =         2.050440	       1.085046
	 R(4,7)           =         2.618229	       1.385507
	 R(4,9)           =         2.627114	       1.390209
	 R(4,18)          =         2.051624	       1.085673
	 R(5,10)          =         2.636938	       1.395407
	 R(5,11)          =         2.635263	       1.394521
	 R(5,19)          =         2.053272	       1.086545
	 R(6,12)          =         2.554678	       1.351877
	 R(6,20)          =         2.049834	       1.084725
	 R(7,12)          =         2.554876	       1.351982
	 R(7,21)          =         2.049134	       1.084355
	 R(8,9)           =         2.735038	       1.447320
	 R(8,11)          =         2.635830	       1.394821
	 R(10,13)         =         2.573123	       1.361638
	 R(11,14)         =         2.534359	       1.341125
	 R(13,22)         =         1.834442	       0.970745
	 B(1,2,10)        =         2.094553	     120.009056
	 B(1,2,16)        =         2.088723	     119.675016
	 B(1,8,9)         =         2.091569	     119.838095
	 B(1,8,11)        =         2.093692	     119.959722
	 B(2,1,8)         =         2.094940	     120.031219
	 B(2,1,15)        =         2.079469	     119.144799
	 B(2,10,5)        =         2.094306	     119.994870
	 B(2,10,13)       =         2.094247	     119.991510
	 B(3,6,12)        =         2.165211	     124.057445
	 B(3,6,20)        =         2.107791	     120.767548
	 B(3,9,4)         =         2.089790	     119.736135
	 B(3,9,8)         =         2.096656	     120.129524
	 B(4,7,12)        =         2.164668	     124.026364
	 B(4,7,21)        =         2.107421	     120.746344
	 B(4,9,8)         =         2.096739	     120.134309
	 B(5,10,13)       =         2.094633	     120.013619
	 B(5,11,8)        =         2.095181	     120.045019
	 B(5,11,14)       =         2.081414	     119.256220
	 B(6,3,9)         =         2.057714	     117.898335
	 B(6,3,17)        =         2.098197	     120.217854
	 B(6,12,7)        =         2.030771	     116.354583
	 B(7,4,9)         =         2.058217	     117.927126
	 B(7,4,18)        =         2.099769	     120.307895
	 B(8,1,15)        =         2.108776	     120.823969
	 B(8,11,14)       =         2.106591	     120.698759
	 B(9,3,17)        =         2.127271	     121.883627
	 B(9,4,18)        =         2.125200	     121.764971
	 B(9,8,11)        =         2.097924	     120.202184
	 B(10,2,16)       =         2.099909	     120.315896
	 B(10,5,11)       =         2.093699	     119.960108
	 B(10,5,19)       =         2.100355	     120.341451
	 B(10,13,22)      =         1.924410	     110.260595
	 B(11,5,19)       =         2.089132	     119.698439
	 B(12,6,20)       =         2.010181	     115.174900
	 B(12,7,21)       =         2.011095	     115.227270
	 D(1,2,10,5)      =        -0.000325	      -0.018609
	 D(1,2,10,13)     =         3.141388	     179.988267
	 D(1,8,9,3)       =        -1.047732	     -60.030615
	 D(1,8,9,4)       =         2.092736	     119.904915
	 D(1,8,11,5)      =         0.000325	       0.018608
	 D(1,8,11,14)     =        -3.141528	    -179.996269
	 D(2,1,8,9)       =         3.141277	     179.981897
	 D(2,1,8,11)      =        -0.000348	      -0.019945
	 D(2,10,5,11)     =         0.000301	       0.017261
	 D(2,10,5,19)     =        -3.141029	    -179.967685
	 D(2,10,13,22)    =        -2.880331	    -165.030837
	 D(3,6,12,7)      =         0.000000	       0.000000
	 D(3,9,4,7)       =        -0.000043	      -0.002444
	 D(3,9,4,18)      =        -3.141070	    -179.970061
	 D(3,9,8,11)      =         2.093893	     119.971231
	 D(4,7,12,6)      =        -0.000490	      -0.028079
	 D(4,9,3,6)       =        -0.000394	      -0.022595
	 D(4,9,3,17)      =        -3.139269	    -179.866889
	 D(4,9,8,11)      =        -1.048825	     -60.093239
	 D(5,10,2,16)     =         3.140149	     179.917291
	 D(5,10,13,22)    =         0.261381	      14.976040
	 D(5,11,8,9)      =        -3.141300	    -179.983240
	 D(6,3,9,8)       =         3.140078	     179.913192
	 D(6,12,7,21)     =         3.140154	     179.917593
	 D(7,4,9,8)       =        -3.140515	    -179.938228
	 D(7,12,6,20)     =         3.139530	     179.881843
	 D(8,1,2,10)      =         0.000348	       0.019955
	 D(8,1,2,16)      =        -3.140133	    -179.916358
	 D(8,9,3,17)      =         0.001202	       0.068898
	 D(8,9,4,18)      =         0.001643	       0.094154
	 D(8,11,5,10)     =        -0.000301	      -0.017270
	 D(8,11,5,19)     =         3.141030	     179.967774
	 D(9,3,6,12)      =         0.000430	       0.024638
	 D(9,3,6,20)      =        -3.138988	    -179.850775
	 D(9,4,7,12)      =         0.000513	       0.029399
	 D(9,4,7,21)      =        -3.140081	    -179.913416
	 D(9,8,1,15)      =         0.000403	       0.023110
	 D(9,8,11,14)     =         0.000033	       0.001883
	 D(10,2,1,15)     =         3.141234	     179.979432
	 D(10,5,11,14)    =         3.141547	     179.997392
	 D(11,5,10,13)    =        -3.141411	    -179.989616
	 D(11,8,1,15)     =        -3.141221	    -179.978731
	 D(12,6,3,17)     =         3.139352	     179.871634
	 D(12,7,4,18)     =         3.141549	     179.997508
	 D(13,10,2,16)    =        -0.001324	      -0.075833
	 D(13,10,5,19)    =         0.000444	       0.025437
	 D(14,11,5,19)    =        -0.000307	      -0.017564
	 D(15,1,2,16)     =         0.000753	       0.043120
	 D(17,3,6,20)     =        -0.000066	      -0.003779
	 D(18,4,7,21)     =         0.000955	       0.054693
	 R(4,14)          =         5.689185	       3.010587

	Current energy   :      -652.8701502494

	Generating empirical Hessian (Schlegel '84) for each fragment.
	Adding user-defined constraint: Fragment 1; Coordinate 69:
		Value =    -2.880331; Fixed value    =    -2.879793
		Force =     0.000269; Force constant =     0.500000
	Removing off-diagonal coupling between coordinate 69 and others.
	Taking RFO optimization step.
	Going to follow RFO solution 1.
	Using RFO vector 1.

	Determining step-restricting scale parameter for RS-RFO.
	Maximum step size allowed    0.10000

	 Iter      |step|        alpha        rfo_root  
	------------------------------------------------
	    0     0.22095       1.00000           1
	    1     0.16644       4.16364           1
	    2     0.13247      12.17219           1
	    3     0.11066      25.36953           1
	    4     0.10160      34.52715           1
	    5     0.10004      36.42394           1
	    6     0.10000      36.48000           1
	------------------------------------------------
	Norm of target step-size    0.10000
	Projected energy change by RFO approximation:        -0.0049495523

	Back-transformation to cartesian coordinates...
	Could not converge backtransformation.
	Using first guess instead.

	--- Internal Coordinate Step in ANG or DEG, aJ/ANG or AJ/DEG ---
	 ---------------------------------------------------------------------------
	   Coordinate                Previous        Force       Change         New 
	   ----------                --------       ------       ------       ------
	    1 R(1,2)          =      1.394038    -0.055518    -0.005550     1.388488
	    2 R(1,8)          =      1.394891    -0.028231    -0.002580     1.392311
	    3 R(1,15)         =      1.087431    -0.051431    -0.006301     1.081130
	    4 R(2,10)         =      1.394821    -0.081221    -0.008170     1.386652
	    5 R(2,16)         =      1.087214    -0.049167    -0.005961     1.081253
	    6 R(3,6)          =      1.385530     0.006186     0.000601     1.386131
	    7 R(3,9)          =      1.390235    -0.017664    -0.001323     1.388912
	    8 R(3,17)         =      1.085046    -0.035412    -0.004313     1.080733
	    9 R(4,7)          =      1.385507     0.002059     0.000183     1.385690
	   10 R(4,9)          =      1.390209    -0.017663    -0.001236     1.388972
	   11 R(4,18)         =      1.085673    -0.041699    -0.005086     1.080587
	   12 R(5,10)         =      1.395407    -0.046735    -0.004728     1.390679
	   13 R(5,11)         =      1.394521    -0.105593    -0.010551     1.383970
	   14 R(5,19)         =      1.086545    -0.036919    -0.004439     1.082106
	   15 R(6,12)         =      1.351877    -0.121110    -0.011079     1.340798
	   16 R(6,20)         =      1.084725    -0.021279    -0.002588     1.082137
	   17 R(7,12)         =      1.351982    -0.117044    -0.010730     1.341252
	   18 R(7,21)         =      1.084355    -0.019901    -0.002414     1.081941
	   19 R(8,9)          =      1.447320     0.131712     0.015356     1.462675
	   20 R(8,11)         =      1.394821    -0.077932    -0.007506     1.387315
	   21 R(10,13)        =      1.361638    -0.016099    -0.001272     1.360366
	   22 R(11,14)        =      1.341125    -0.021867    -0.001827     1.339298
	   23 R(13,22)        =      0.970745    -0.079822    -0.007259     0.963486
	   24 B(1,2,10)       =    120.009056    -0.000170    -0.315034   119.694022
	   25 B(1,2,16)       =    119.675016     0.000295     0.635894   120.310910
	   26 B(1,8,9)        =    119.838095     0.000653     1.110473   120.948567
	   27 B(1,8,11)       =    119.959722    -0.000920    -1.670515   118.289207
	   28 B(2,1,8)        =    120.031219     0.000520     1.021963   121.053182
	   29 B(2,1,15)       =    119.144799    -0.000016     0.042647   119.187446
	   30 B(2,10,5)       =    119.994870    -0.000013    -0.022910   119.971960
	   31 B(2,10,13)      =    119.991510    -0.000721    -1.286828   118.704683
	   32 B(3,6,12)       =    124.057445    -0.000032    -0.119810   123.937636
	   33 B(3,6,20)       =    120.767548    -0.000039    -0.064667   120.702881
	   34 B(3,9,4)        =    119.736135    -0.000830    -1.399596   118.336539
	   35 B(3,9,8)        =    120.129524     0.000412     0.659370   120.788894
	   36 B(4,7,12)       =    124.026364    -0.000012    -0.083384   123.942980
	   37 B(4,7,21)       =    120.746344    -0.000040    -0.062987   120.683357
	   38 B(4,9,8)        =    120.134309     0.000419     0.740196   120.874506
	   39 B(5,10,13)      =    120.013619     0.000734     1.309733   121.323352
	   40 B(5,11,8)       =    120.045019     0.000788     1.385165   121.430185
	   41 B(5,11,14)      =    119.256220    -0.000186    -0.372012   118.884208
	   42 B(6,3,9)        =    117.898335     0.000367     0.759604   118.657940
	   43 B(6,3,17)       =    120.217854    -0.000005     0.023409   120.241263
	   44 B(6,12,7)       =    116.354583     0.000152     0.109236   116.463819
	   45 B(7,4,9)        =    117.927126     0.000355     0.733906   118.661032
	   46 B(7,4,18)       =    120.307895    -0.000023    -0.016810   120.291085
	   47 B(8,1,15)       =    120.823969    -0.000504    -1.064675   119.759294
	   48 B(8,11,14)      =    120.698759    -0.000602    -1.013373   119.685386
	   49 B(9,3,17)       =    121.883627    -0.000361    -0.782901   121.100726
	   50 B(9,4,18)       =    121.764971    -0.000332    -0.717093   121.047878
	   51 B(9,8,11)       =    120.202184     0.000267     0.560042   120.762225
	   52 B(10,2,16)      =    120.315896    -0.000125    -0.320855   119.995041
	   53 B(10,5,11)      =    119.960108    -0.000204    -0.398844   119.561264
	   54 B(10,5,19)      =    120.341451     0.000178     0.370528   120.711980
	   55 B(10,13,22)     =    110.260595    -0.000347    -0.784786   109.475809
	   56 B(11,5,19)      =    119.698439     0.000026     0.028297   119.726736
	   57 B(12,6,20)      =    115.174900     0.000071     0.184582   115.359482
	   58 B(12,7,21)      =    115.227270     0.000052     0.146394   115.373663
	   59 D(1,2,10,5)     =     -0.018609     0.000004     0.078506     0.059897
	   60 D(1,2,10,13)    =    179.988267     0.000007     0.099033   180.087300
	   61 D(1,8,9,3)      =    -60.030615     0.000033     0.567603   -59.463012
	   62 D(1,8,9,4)      =    119.904915     0.000033     0.540376   120.445290
	   63 D(1,8,11,5)     =      0.018608     0.000005     0.085681     0.104289
	   64 D(1,8,11,14)    =   -179.996269    -0.000003    -0.072426  -180.068696
	   65 D(2,1,8,9)      =    179.981897     0.000002     0.038074   180.019970
	   66 D(2,1,8,11)     =     -0.019945     0.000002     0.038056     0.018111
	   67 D(2,10,5,11)    =      0.017261     0.000003     0.042129     0.059391
	   68 D(2,10,5,19)    =   -179.967685     0.000005     0.078824  -179.888862
	   69 D(2,10,13,22)   =   -165.030837    -0.000010    -0.062626  -165.093463
	   70 D(3,6,12,7)     =      0.000000    -0.000001    -0.019370    -0.019370
	   71 D(3,9,4,7)      =     -0.002444     0.000004     0.048789     0.046345
	   72 D(3,9,4,18)     =   -179.970061     0.000000    -0.008520  -179.978582
	   73 D(3,9,8,11)     =    119.971231     0.000033     0.567663   120.538893
	   74 D(4,7,12,6)     =     -0.028079     0.000000     0.003178    -0.024900
	   75 D(4,9,3,6)      =     -0.022595    -0.000004    -0.063760    -0.086355
	   76 D(4,9,3,17)     =   -179.866889    -0.000008    -0.122576  -179.989465
	   77 D(4,9,8,11)     =    -60.093239     0.000033     0.540435   -59.552804
	   78 D(5,10,2,16)    =    179.917291     0.000004     0.084065   180.001357
	   79 D(5,10,13,22)   =     14.976040    -0.000006    -0.041715    14.934326
	   80 D(5,11,8,9)     =   -179.983240     0.000005     0.085674  -179.897567
	   81 D(6,3,9,8)      =    179.913192    -0.000005    -0.088965   179.824227
	   82 D(6,12,7,21)    =    179.917593     0.000003     0.052184   179.969777
	   83 D(7,4,9,8)      =   -179.938228     0.000004     0.074071  -179.864157
	   84 D(7,12,6,20)    =    179.881843     0.000005     0.084499   179.966343
	   85 D(8,1,2,10)     =      0.019955    -0.000006    -0.119372    -0.099418
	   86 D(8,1,2,16)     =   -179.916358    -0.000007    -0.124331  -180.040689
	   87 D(8,9,3,17)     =      0.068898    -0.000008    -0.147781    -0.078883
	   88 D(8,9,4,18)     =      0.094154     0.000000     0.016762     0.110916
	   89 D(8,11,5,10)    =     -0.017270    -0.000007    -0.126319    -0.143589
	   90 D(8,11,5,19)    =    179.967774    -0.000009    -0.162595   179.805179
	   91 D(9,3,6,12)     =      0.024638     0.000003     0.051212     0.075850
	   92 D(9,3,6,20)     =   -179.850775    -0.000003    -0.058360  -179.909135
	   93 D(9,4,7,12)     =      0.029399    -0.000001    -0.018693     0.010706
	   94 D(9,4,7,21)     =   -179.913416    -0.000004    -0.070286  -179.983702
	   95 D(9,8,1,15)     =      0.023110    -0.000006    -0.104963    -0.081853
	   96 D(9,8,11,14)    =      0.001883    -0.000003    -0.072434    -0.070551
	   97 D(10,2,1,15)    =    179.979432     0.000002     0.022400   180.001833
	   98 D(10,5,11,14)   =    179.997392     0.000001     0.030652   180.028044
	   99 D(11,5,10,13)   =   -179.989616    -0.000000     0.020870  -179.968746
	  100 D(11,8,1,15)    =   -179.978731    -0.000006    -0.104981  -180.083712
	  101 D(12,6,3,17)    =    179.871634     0.000006     0.108185   179.979818
	  102 D(12,7,4,18)    =    179.997508     0.000002     0.037930   180.035438
	  103 D(13,10,2,16)   =     -0.075833     0.000008     0.104592     0.028760
	  104 D(13,10,5,19)   =      0.025437     0.000002     0.057565     0.083002
	  105 D(14,11,5,19)   =     -0.017564    -0.000001    -0.005624    -0.023188
	  106 D(15,1,2,16)    =      0.043120     0.000001     0.017442     0.060561
	  107 D(17,3,6,20)    =     -0.003779     0.000000    -0.001388    -0.005167
	  108 D(18,4,7,21)    =      0.054693    -0.000001    -0.013663     0.041030
	  109 R(4,14)         =      3.010587     0.009827     0.002822     3.013409
	 ---------------------------------------------------------------------------
	Successfully symmetrized geometry.
	 Forces used to impose fixed constraints are not included.
	  Forces zeroed: 69 

  ==> Convergence Check <==

  Measures of convergence in internal coordinates in au.
  Criteria marked as inactive (o), active & met (*), and active & unmet ( ).
  --------------------------------------------------------------------------------------------- ~
   Step     Total Energy     Delta E     MAX Force     RMS Force      MAX Disp      RMS Disp    ~
  --------------------------------------------------------------------------------------------- ~
    Convergence Criteria    1.00e-06 *    3.00e-04 *             o    1.20e-03 *             o  ~
  --------------------------------------------------------------------------------------------- ~
      1    -652.87015025   -6.53e+02      1.60e-02      4.70e-03 o    2.92e-02      9.58e-03 o  ~
  ---------------------------------------------------------------------------------------------

	Writing optimization data to binary file.
	Structure for next step:
	Cartesian Geometry (in Angstrom)
	    C    -1.3416814390   0.7577443616  -0.7758409716
	    C    -2.4152290524   1.3294145904  -0.1060739654
	    C     0.6398938493  -1.4781735393  -1.6845575353
	    C     2.1316678960   0.0182480831  -0.5777591899
	    C    -1.4114814410   0.7185020761   1.9922161004
	    C     1.7418139809  -2.0126892042  -2.3337289714
	    C     3.1676431121  -0.5825614937  -1.2748389901
	    C    -0.2937653259   0.1634605137  -0.0778233606
	    C     0.8362477647  -0.4377015359  -0.7857032648
	    C    -2.4498472770   1.3088611442   1.2799929967
	    C    -0.3480169899   0.1556307350   1.3084087121
	    N     2.9995695248  -1.5871027511  -2.1475390326
	    O    -3.5120508423   1.8731919473   1.9154844864
	    F     0.6443601672  -0.4097905643   2.0078412598
	    H    -1.3230487845   0.7784062612  -1.8566127646
	    H    -3.2223473487   1.7883388091  -0.6602005892
	    H    -0.3490532052  -1.8675468344  -1.8804063185
	    H     2.3345680670   0.8250239518   0.1118866957
	    H    -1.4271142976   0.6941529145   3.0739349385
	    H     1.6267231283  -2.8230140293  -3.0416475311
	    H     4.1891802015  -0.2535123085  -1.1377789903
	    H    -3.3002320469   1.9970418801   2.8472026931
			--------------------------
			 OPTKING Finished Execution 
			--------------------------

    Structure for next step:
    Molecular point group: c1
    Full point group: C1

    Geometry (in Angstrom), charge = 0, multiplicity = 1:

    C           -1.339957947584     0.755689485099    -0.774357908624
    C           -2.413505560973     1.327359713855    -0.104590902409
    C            0.641617340732    -1.480228415797    -1.683074472383
    C            2.133391387484     0.016193206623    -0.576276126951
    C           -1.409757949509     0.716447199636     1.993699163374
    C            1.743537472336    -2.014744080663    -2.332245908397
    C            3.169366603599    -0.584616370150    -1.273355927121
    C           -0.292041834418     0.161405637172    -0.076340297591
    C            0.837971256202    -0.439756412389    -0.784220201856
    C           -2.448123785570     1.306806267669     1.281476059671
    C           -0.346293498453     0.153575858487     1.309891775093
    N            3.001293016230    -1.589157627617    -2.146055969595
    O           -3.510327350879     1.871137070762     1.916967549348
    F            0.646083658709    -0.411845440813     2.009324322778
    H           -1.321325293026     0.776351384675    -1.855129701592
    H           -3.220623857248     1.786283932596    -0.658717526213
    H           -0.347329713706    -1.869601710929    -1.878923255531
    H            2.336291558470     0.822969075299     0.113369758635
    H           -1.425390806106     0.692098038029     3.075418001460
    H            1.628446619729    -2.825068905763    -3.040164468163
    H            4.190903693001    -0.255567184992    -1.136295927343
    H           -3.298508555430     1.994987003554     2.848685756053

gradient() will perform analytic gradient computation.

*** tstart() called on gpu-1-6.local
*** at Sun Nov 12 00:28:14 2017

    SCF Algorithm Type (re)set to DF.

*** tstart() called on gpu-1-6.local
*** at Sun Nov 12 00:28:14 2017

   => Loading Basis Set <=

    Name: AUG-CC-PVTZ
    Role: ORBITAL
    Keyword: BASIS
    atoms 1-11  entry C          line   221 file /cbio/jclab/home/chayas/anaconda/envs/py35/share/psi4/basis/aug-cc-pvtz.gbs 
    atoms 12    entry N          line   267 file /cbio/jclab/home/chayas/anaconda/envs/py35/share/psi4/basis/aug-cc-pvtz.gbs 
    atoms 13    entry O          line   313 file /cbio/jclab/home/chayas/anaconda/envs/py35/share/psi4/basis/aug-cc-pvtz.gbs 
    atoms 14    entry F          line   359 file /cbio/jclab/home/chayas/anaconda/envs/py35/share/psi4/basis/aug-cc-pvtz.gbs 
    atoms 15-22 entry H          line    34 file /cbio/jclab/home/chayas/anaconda/envs/py35/share/psi4/basis/aug-cc-pvtz.gbs 


         ---------------------------------------------------------
                                   SCF
            by Justin Turney, Rob Parrish, and Andy Simmonett
                              RHF Reference
                        8 Threads,   4768 MiB Core
         ---------------------------------------------------------

  ==> Geometry <==

    Molecular point group: c1
    Full point group: C1

    Geometry (in Angstrom), charge = 0, multiplicity = 1:

       Center              X                  Y                   Z               Mass       
    ------------   -----------------  -----------------  -----------------  -----------------
           C         -1.339957947584     0.755689485099    -0.774357908624    12.000000000000
           C         -2.413505560973     1.327359713855    -0.104590902409    12.000000000000
           C          0.641617340732    -1.480228415797    -1.683074472383    12.000000000000
           C          2.133391387484     0.016193206623    -0.576276126951    12.000000000000
           C         -1.409757949509     0.716447199636     1.993699163374    12.000000000000
           C          1.743537472336    -2.014744080663    -2.332245908397    12.000000000000
           C          3.169366603599    -0.584616370150    -1.273355927121    12.000000000000
           C         -0.292041834418     0.161405637172    -0.076340297591    12.000000000000
           C          0.837971256202    -0.439756412389    -0.784220201856    12.000000000000
           C         -2.448123785570     1.306806267669     1.281476059671    12.000000000000
           C         -0.346293498453     0.153575858487     1.309891775093    12.000000000000
           N          3.001293016230    -1.589157627617    -2.146055969595    14.003074004780
           O         -3.510327350879     1.871137070762     1.916967549348    15.994914619560
           F          0.646083658709    -0.411845440813     2.009324322778    18.998403224000
           H         -1.321325293026     0.776351384675    -1.855129701592     1.007825032070
           H         -3.220623857248     1.786283932596    -0.658717526213     1.007825032070
           H         -0.347329713706    -1.869601710929    -1.878923255531     1.007825032070
           H          2.336291558470     0.822969075299     0.113369758635     1.007825032070
           H         -1.425390806106     0.692098038029     3.075418001460     1.007825032070
           H          1.628446619729    -2.825068905763    -3.040164468163     1.007825032070
           H          4.190903693001    -0.255567184992    -1.136295927343     1.007825032070
           H         -3.298508555430     1.994987003554     2.848685756053     1.007825032070

  Running in c1 symmetry.

  Rotational constants: A =      0.06433  B =      0.01296  C =      0.01157 [cm^-1]
  Rotational constants: A =   1928.64146  B =    388.47460  C =    346.75673 [MHz]
  Nuclear repulsion =  814.571959603522259

  Charge       = 0
  Multiplicity = 1
  Electrons    = 98
  Nalpha       = 49
  Nbeta        = 49

  ==> Algorithm <==

  SCF Algorithm Type is DF.
  DIIS enabled.
  MOM disabled.
  Fractional occupation disabled.
  Guess Type is READ.
  Energy threshold   = 1.00e-10
  Density threshold  = 1.00e-10
  Integral threshold = 0.00e+00

  ==> Primary Basis <==

  Basis Set: AUG-CC-PVTZ
    Blend: AUG-CC-PVTZ
    Number of shells: 268
    Number of basis function: 828
    Number of Cartesian functions: 970
    Spherical Harmonics?: true
    Max angular momentum: 3

   => Loading Basis Set <=

    Name: (AUG-CC-PVTZ AUX)
    Role: JKFIT
    Keyword: DF_BASIS_SCF
    atoms 1-11  entry C          line   161 file /cbio/jclab/home/chayas/anaconda/envs/py35/share/psi4/basis/aug-cc-pvtz-jkfit.gbs 
    atoms 12    entry N          line   223 file /cbio/jclab/home/chayas/anaconda/envs/py35/share/psi4/basis/aug-cc-pvtz-jkfit.gbs 
    atoms 13    entry O          line   285 file /cbio/jclab/home/chayas/anaconda/envs/py35/share/psi4/basis/aug-cc-pvtz-jkfit.gbs 
    atoms 14    entry F          line   347 file /cbio/jclab/home/chayas/anaconda/envs/py35/share/psi4/basis/aug-cc-pvtz-jkfit.gbs 
    atoms 15-22 entry H          line    69 file /cbio/jclab/home/chayas/anaconda/envs/py35/share/psi4/basis/aug-cc-pvtz-jkfit.gbs 

  Reading orbitals from file 180, no projection.

  ==> Pre-Iterations <==

   -------------------------------------------------------
    Irrep   Nso     Nmo     Nalpha   Nbeta   Ndocc  Nsocc
   -------------------------------------------------------
     A        828     828       0       0       0       0
   -------------------------------------------------------
    Total     828     828      49      49      49       0
   -------------------------------------------------------

  ==> Integral Setup <==

  ==> DFJK: Density-Fitted J/K Matrices <==

    J tasked:                  Yes
    K tasked:                  Yes
    wK tasked:                  No
    OpenMP threads:              8
    Integrals threads:           8
    Memory (MB):              3576
    Algorithm:                Disk
    Integral Cache:           NONE
    Schwarz Cutoff:          1E-12
    Fitting Condition:       1E-12

   => Auxiliary Basis Set <=

  Basis Set: (AUG-CC-PVTZ AUX)
    Blend: AUG-CC-PVTZ-JKFIT
    Number of shells: 532
    Number of basis function: 1824
    Number of Cartesian functions: 2274
    Spherical Harmonics?: true
    Max angular momentum: 4

  Minimum eigenvalue in the overlap matrix is 7.1071401146E-07.
  Using Symmetric Orthogonalization.

  SCF Guess: Orbitals guess was supplied from a previous computation.

  ==> Iterations <==

                           Total Energy        Delta E     RMS |[F,P]|

   @DF-RHF iter   0:  -650.23581810074540   -6.50236e+02   3.90404e-04 
   @DF-RHF iter   1:  -650.17907591971505    5.67422e-02   5.93535e-05 
   @DF-RHF iter   2:  -650.17936681583058   -2.90896e-04   5.80534e-05 DIIS
   @DF-RHF iter   3:  -650.17953013610020   -1.63320e-04   1.04970e-05 DIIS
   @DF-RHF iter   4:  -650.17953641852876   -6.28243e-06   4.25266e-06 DIIS
   @DF-RHF iter   5:  -650.17953825016457   -1.83164e-06   1.54387e-06 DIIS
   @DF-RHF iter   6:  -650.17953861394813   -3.63784e-07   7.64490e-07 DIIS
   @DF-RHF iter   7:  -650.17953874496607   -1.31018e-07   3.58875e-07 DIIS
   @DF-RHF iter   8:  -650.17953877983189   -3.48658e-08   1.33181e-07 DIIS
   @DF-RHF iter   9:  -650.17953878306491   -3.23303e-09   4.35277e-08 DIIS
   @DF-RHF iter  10:  -650.17953878338369   -3.18778e-10   1.36618e-08 DIIS
   @DF-RHF iter  11:  -650.17953878340973   -2.60343e-11   4.04257e-09 DIIS
   @DF-RHF iter  12:  -650.17953878341928   -9.54969e-12   1.52733e-09 DIIS
   @DF-RHF iter  13:  -650.17953878341496    4.32010e-12   5.70255e-10 DIIS
   @DF-RHF iter  14:  -650.17953878341643   -1.47793e-12   3.02081e-10 DIIS
   @DF-RHF iter  15:  -650.17953878340666    9.77707e-12   1.61275e-10 DIIS
   @DF-RHF iter  16:  -650.17953878340199    4.66116e-12   6.47797e-11 DIIS

  ==> Post-Iterations <==

    Orbital Energies (a.u.)
    -----------------------

    Doubly Occupied:                                                      

       1A    -26.325252     2A    -20.608533     3A    -15.563784  
       4A    -11.346704     5A    -11.325439     6A    -11.273215  
       7A    -11.272432     8A    -11.266753     9A    -11.262950  
      10A    -11.253017    11A    -11.251685    12A    -11.242295  
      13A    -11.238945    14A    -11.237609    15A     -1.645273  
      16A     -1.426183    17A     -1.256416    18A     -1.184129  
      19A     -1.111495    20A     -1.043062    21A     -1.034670  
      22A     -1.022868    23A     -0.892511    24A     -0.877011  
      25A     -0.856329    26A     -0.826779    27A     -0.773984  
      28A     -0.748217    29A     -0.725933    30A     -0.711435  
      31A     -0.697034    32A     -0.665950    33A     -0.661994  
      34A     -0.642576    35A     -0.636702    36A     -0.619457  
      37A     -0.608418    38A     -0.597958    39A     -0.576624  
      40A     -0.545983    41A     -0.537542    42A     -0.533057  
      43A     -0.522707    44A     -0.496538    45A     -0.419191  
      46A     -0.389728    47A     -0.360826    48A     -0.348475  
      49A     -0.326877  

    Virtual:                                                              

      50A      0.021839    51A      0.029313    52A      0.034415  
      53A      0.036889    54A      0.044274    55A      0.047240  
      56A      0.051969    57A      0.055192    58A      0.076182  
      59A      0.082938    60A      0.083140    61A      0.086023  
      62A      0.092927    63A      0.095504    64A      0.097226  
      65A      0.101246    66A      0.104612    67A      0.108611  
      68A      0.108990    69A      0.113112    70A      0.114118  
      71A      0.118654    72A      0.120035    73A      0.125955  
      74A      0.129523    75A      0.131555    76A      0.133687  
      77A      0.135938    78A      0.141768    79A      0.142827  
      80A      0.146257    81A      0.151340    82A      0.154565  
      83A      0.155631    84A      0.156133    85A      0.166497  
      86A      0.172222    87A      0.173311    88A      0.180191  
      89A      0.185719    90A      0.194956    91A      0.201276  
      92A      0.208448    93A      0.213697    94A      0.219644  
      95A      0.221065    96A      0.228529    97A      0.234980  
      98A      0.235798    99A      0.239727   100A      0.242016  
     101A      0.243916   102A      0.248906   103A      0.253928  
     104A      0.257916   105A      0.259564   106A      0.264320  
     107A      0.266168   108A      0.269284   109A      0.273879  
     110A      0.278081   111A      0.281694   112A      0.285414  
     113A      0.291423   114A      0.294276   115A      0.300157  
     116A      0.302691   117A      0.310305   118A      0.314138  
     119A      0.316250   120A      0.319380   121A      0.323097  
     122A      0.325990   123A      0.329163   124A      0.332966  
     125A      0.337400   126A      0.346272   127A      0.348171  
     128A      0.350644   129A      0.354712   130A      0.360610  
     131A      0.369539   132A      0.375634   133A      0.381991  
     134A      0.387278   135A      0.389201   136A      0.395473  
     137A      0.402092   138A      0.404133   139A      0.407921  
     140A      0.414273   141A      0.415453   142A      0.418896  
     143A      0.426164   144A      0.426917   145A      0.434120  
     146A      0.438526   147A      0.440786   148A      0.446275  
     149A      0.447823   150A      0.451615   151A      0.459421  
     152A      0.464822   153A      0.467938   154A      0.470356  
     155A      0.474108   156A      0.476851   157A      0.480686  
     158A      0.483248   159A      0.486514   160A      0.488157  
     161A      0.493134   162A      0.497748   163A      0.499145  
     164A      0.502321   165A      0.509540   166A      0.511044  
     167A      0.511778   168A      0.513605   169A      0.521776  
     170A      0.523842   171A      0.527144   172A      0.529745  
     173A      0.535912   174A      0.539020   175A      0.543719  
     176A      0.546358   177A      0.550237   178A      0.556334  
     179A      0.560002   180A      0.562178   181A      0.573457  
     182A      0.576656   183A      0.581355   184A      0.584253  
     185A      0.589311   186A      0.592718   187A      0.602900  
     188A      0.612835   189A      0.621682   190A      0.626679  
     191A      0.628073   192A      0.637294   193A      0.640256  
     194A      0.644306   195A      0.649398   196A      0.656123  
     197A      0.661407   198A      0.670592   199A      0.677289  
     200A      0.682136   201A      0.691145   202A      0.696098  
     203A      0.702912   204A      0.706347   205A      0.708353  
     206A      0.718321   207A      0.720235   208A      0.728045  
     209A      0.732061   210A      0.735023   211A      0.738665  
     212A      0.741465   213A      0.749234   214A      0.756928  
     215A      0.765149   216A      0.767841   217A      0.773895  
     218A      0.783626   219A      0.790321   220A      0.793785  
     221A      0.796161   222A      0.804055   223A      0.807881  
     224A      0.821498   225A      0.824792   226A      0.829299  
     227A      0.838388   228A      0.845414   229A      0.849751  
     230A      0.853401   231A      0.859441   232A      0.861162  
     233A      0.863156   234A      0.872573   235A      0.877360  
     236A      0.883035   237A      0.886894   238A      0.889222  
     239A      0.892049   240A      0.899035   241A      0.904716  
     242A      0.910278   243A      0.912862   244A      0.924841  
     245A      0.928656   246A      0.931480   247A      0.932570  
     248A      0.935107   249A      0.942664   250A      0.945194  
     251A      0.948563   252A      0.957301   253A      0.959395  
     254A      0.963898   255A      0.966330   256A      0.969425  
     257A      0.974638   258A      0.987069   259A      0.989272  
     260A      0.990129   261A      0.997832   262A      1.002288  
     263A      1.004979   264A      1.013917   265A      1.018916  
     266A      1.020203   267A      1.024617   268A      1.026949  
     269A      1.032496   270A      1.035556   271A      1.042349  
     272A      1.047452   273A      1.052176   274A      1.054868  
     275A      1.063426   276A      1.065449   277A      1.070646  
     278A      1.073472   279A      1.078543   280A      1.084461  
     281A      1.087127   282A      1.092614   283A      1.099144  
     284A      1.104027   285A      1.111438   286A      1.112764  
     287A      1.117463   288A      1.127001   289A      1.128817  
[...]
	 --------------------------------------------------------

   => Auxiliary Basis Set <=

  Basis Set: (AUG-CC-PVTZ AUX)
    Blend: AUG-CC-PVTZ-RI
    Number of shells: 504
    Number of basis function: 1852
    Number of Cartesian functions: 2344
    Spherical Harmonics?: true
    Max angular momentum: 4

	 --------------------------------------------------------
	                 NBF =   828, NAUX =  1852
	 --------------------------------------------------------
	   CLASS    FOCC     OCC    AOCC    AVIR     VIR    FVIR
	   PAIRS       0      49      49     779     779       0
	 --------------------------------------------------------


         ------------------------------------------------------------
                                     CPHF                           
                                  Rob Parrish                       
         ------------------------------------------------------------

  ==> Geometry <==

    Molecular point group: c1
    Full point group: C1

    Geometry (in Angstrom), charge = 0, multiplicity = 1:

       Center              X                  Y                   Z               Mass       
    ------------   -----------------  -----------------  -----------------  -----------------
           C         -1.360313760659     0.704447436143    -0.755702107275    12.000000000000
           C         -2.434689931094     1.277854675384    -0.099119829279    12.000000000000
           C          0.648481947214    -1.454368100419    -1.714623662347    12.000000000000
           C          2.157294326360    -0.035389693225    -0.552920257255    12.000000000000
           C         -1.403570738968     0.749850571257     2.006418330509    12.000000000000
           C          1.740466279161    -1.986674333610    -2.383085248193    12.000000000000
           C          3.185645230071    -0.628606537840    -1.267743143590    12.000000000000
           C         -0.282840025204     0.151707226967    -0.065808541173    12.000000000000
           C          0.848958684697    -0.451005555313    -0.773702015597    12.000000000000
           C         -2.457663684644     1.296556994651     1.287842260206    12.000000000000
           C         -0.342688358018     0.197771432690     1.319473376570    12.000000000000
           N          2.997714396098    -1.591691747954    -2.173770736663    14.003074004780
           O         -3.539021851581     1.861833209328     1.892102299266    15.994914619560
           F          0.660682822040    -0.335507955723     2.039134523098    18.998403224000
           H         -1.339961914109     0.692621766378    -1.835347514554     1.007825032070
           H         -3.255181318062     1.713333904240    -0.645968329448     1.007825032070
           H         -0.347448844769    -1.818040588347    -1.919287019687     1.007825032070
           H          2.369402081284     0.742257120500     0.164787186674     1.007825032070
           H         -1.398308719361     0.739873710736     3.085617530394     1.007825032070
           H          1.600314593031    -2.769351636561    -3.115824502924     1.007825032070
           H          4.207828990780    -0.314708685675    -1.109629184703     1.007825032070
           H         -3.336649746773     2.023217509905     2.818469783796     1.007825032070

  Nuclear repulsion =  813.962979875753831
  Reference energy  = -650.181495747042050

  ==> Basis Set <==

  Basis Set: AUG-CC-PVTZ
    Blend: AUG-CC-PVTZ
    Number of shells: 268
    Number of basis function: 828
    Number of Cartesian functions: 970
    Spherical Harmonics?: true
    Max angular momentum: 3

  ==> CGRSolver (by Rob Parrish) <==

   Number of roots    =         1
   Preconditioning    =    JACOBI
   Convergence cutoff =     1E-06
   Maximum iterations =       100

  ==> CPHFRHamiltonian (by Rob Parrish) <== 

  ==> DFJK: Density-Fitted J/K Matrices <==

    J tasked:                  Yes
    K tasked:                  Yes
    wK tasked:                  No
    OpenMP threads:              8
    Integrals threads:           8
    Memory (MB):              3576
    Algorithm:                Disk
    Integral Cache:           NONE
    Schwarz Cutoff:          1E-12
    Fitting Condition:       1E-12

   => Auxiliary Basis Set <=

  Basis Set: (AUG-CC-PVTZ AUX)
    Blend: AUG-CC-PVTZ-JKFIT
    Number of shells: 532
    Number of basis function: 1824
    Number of Cartesian functions: 2274
    Spherical Harmonics?: true
    Max angular momentum: 4

  ==> CPHF Iterations <==

  => Iterations <=

             Iter  Converged  Remaining    Residual
  CGR           1          0          1   1.017E-01
  CGR           2          0          1   3.306E-02
  CGR           3          0          1   2.182E-02
  CGR           4          0          1   9.196E-03
  CGR           5          0          1   3.862E-03
  CGR           6          0          1   1.471E-03
  CGR           7          0          1   4.323E-04
  CGR           8          0          1   1.446E-04
  CGR           9          0          1   4.781E-05
  CGR          10          0          1   1.670E-05
  CGR          11          0          1   8.547E-06
  CGR          12          0          1   3.579E-06
  CGR          13          0          1   1.563E-06
  CGR          14          1          0   5.132E-07

    CGRSolver converged.

  ==> DFCorrGrad: Density-Fitted Correlated Gradients <==

    OpenMP threads:              8
    Integrals threads:           8
    Memory (MB):              3576
    Schwarz Cutoff:          0E+00
    Fitting Condition:       1E-12

   => Auxiliary Basis Set <=

  Basis Set: (AUG-CC-PVTZ AUX)
    Blend: AUG-CC-PVTZ-JKFIT
    Number of shells: 532
    Number of basis function: 1824
    Number of Cartesian functions: 2274
    Spherical Harmonics?: true
    Max angular momentum: 4

	-----------------------------------------------------------
	 ==================> DF-MP2 Energies <==================== 
	-----------------------------------------------------------
	 Reference Energy          =    -650.1814957470420495 [Eh]
	 Singles Energy            =      -0.0000000000000006 [Eh]
	 Same-Spin Energy          =      -0.6764937871938932 [Eh]
	 Opposite-Spin Energy      =      -2.0166243585155499 [Eh]
	 Correlation Energy        =      -2.6931181457094433 [Eh]
	 Total Energy              =    -652.8746138927515403 [Eh]
	-----------------------------------------------------------
	 ================> DF-SCS-MP2 Energies <================== 
	-----------------------------------------------------------
	 SCS Same-Spin Scale       =       0.3333333333333333 [-]
	 SCS Opposite-Spin Scale   =       1.2000000000000000 [-]
	 SCS Same-Spin Energy      =      -0.2254979290646311 [Eh]
	 SCS Opposite-Spin Energy  =      -2.4199492302186596 [Eh]
	 SCS Correlation Energy    =      -2.6454471592832909 [Eh]
	 SCS Total Energy          =    -652.8269429063253710 [Eh]
	-----------------------------------------------------------


  -Total Gradient:
     Atom            X                  Y                   Z
    ------   -----------------  -----------------  -----------------
       1        0.001212442338     0.000960757655     0.000037539685
       2        0.000169095291     0.001673671939     0.000377051211
       3        0.000141660189    -0.000905806984     0.001187433025
       4       -0.000033272825     0.000816197397    -0.001127930117
       5        0.000666171705    -0.000575819485    -0.000037917421
       6        0.000253102405    -0.000122214634    -0.000091592205
       7        0.000287819354     0.000055939466     0.000086286442
       8       -0.001376405627     0.000644037318    -0.000407012701
       9        0.000697098750    -0.000342002407    -0.000648491910
      10       -0.000733761166    -0.001410579108    -0.000410851488
      11       -0.000057190604    -0.001351540599     0.001294364700
      12       -0.000334131483    -0.000050638398     0.000031479310
      13       -0.000690319973    -0.001416141341     0.000487507176
      14       -0.000586619340     0.000138014917    -0.000047410449
      15       -0.000145597212    -0.000101985670    -0.000021741969
      16        0.000033692841    -0.000171903144    -0.000129594315
      17       -0.000055015847     0.000168999626    -0.000212018298
      18       -0.000007134569     0.000188553376     0.000072729773
      19       -0.000154964299     0.000240729080     0.000023224902
      20       -0.000006792601    -0.000137230059    -0.000102688692
      21        0.000043193083     0.000015659560     0.000003091926
      22        0.000676929586     0.001683301508    -0.000363458570


*** tstop() called on gpu-1-6.local at Sun Nov 12 02:44:06 2017
Module time:
	user time   =    6022.89 seconds =     100.38 minutes
	system time =     100.49 seconds =       1.67 minutes
	total time  =       2731 seconds =      45.52 minutes
Total time:
	user time   =   23637.18 seconds =     393.95 minutes
	system time =     422.46 seconds =       7.04 minutes
	total time  =      10922 seconds =     182.03 minutes

			-----------------------------------------
			 OPTKING 2.0: for geometry optimizations 
			  - R.A. King,  Bethel University        
			-----------------------------------------

	Previous internal coordinate definitions found.
	---Fragment 1 Geometry and Gradient---
	 C          -2.5706204624        1.3312127293       -1.4280700208
	 C          -4.6008971883        2.4147953741       -0.1873093317
	 C           1.2254532824       -2.7483574062       -3.2401691428
	 C           4.0766954648       -0.0668768281       -1.0448678595
	 C          -2.6523643048        1.4170122203        3.7915811527
	 C           3.2890046111       -3.7542704058       -4.5033784704
	 C           6.0199970414       -1.1878942019       -2.3956873482
	 C          -0.5344901871        0.2866851113       -0.1243601200
	 C           1.6042994122       -0.8522769840       -1.4620849179
	 C          -4.6443112907        2.4501376356        2.4336691741
	 C          -0.6475871456        0.3737338447        2.4934433214
	 N           5.6648592332       -3.0078614916       -4.1078313680
	 O          -6.6877820778        3.5183548707        3.5755551610
	 F           1.2485095944       -0.6340181517        3.8534057968
	 H          -2.5321610462        1.3088654521       -3.4683041612
	 H          -6.1514012040        3.2377318532       -1.2207032332
	 H          -0.6565831618       -3.4355988104       -3.6269268376
	 H           4.4775210323        1.4026626779        0.3114026530
	 H          -2.6424205288        1.3981586862        5.8309720833
	 H           3.0241563073       -5.2333161588       -5.8880549887
	 H           7.9516444066       -0.5947132276       -2.0968952681
	 H          -6.3053542228        3.8233270010        5.3261360052
	             0.0012124423        0.0009607577        0.0000375397
	             0.0001690953        0.0016736719        0.0003770512
	             0.0001416602       -0.0009058070        0.0011874330
	            -0.0000332728        0.0008161974       -0.0011279301
	             0.0006661717       -0.0005758195       -0.0000379174
	             0.0002531024       -0.0001222146       -0.0000915922
	             0.0002878194        0.0000559395        0.0000862864
	            -0.0013764056        0.0006440373       -0.0004070127
	             0.0006970988       -0.0003420024       -0.0006484919
	            -0.0007337612       -0.0014105791       -0.0004108515
	            -0.0000571906       -0.0013515406        0.0012943647
	            -0.0003341315       -0.0000506384        0.0000314793
	            -0.0006903200       -0.0014161413        0.0004875072
	            -0.0005866193        0.0001380149       -0.0000474104
	            -0.0001455972       -0.0001019857       -0.0000217420
	             0.0000336928       -0.0001719031       -0.0001295943
	            -0.0000550158        0.0001689996       -0.0002120183
	            -0.0000071346        0.0001885534        0.0000727298
	            -0.0001549643        0.0002407291        0.0000232249
	            -0.0000067926       -0.0001372301       -0.0001026887
	             0.0000431931        0.0000156596        0.0000030919
	             0.0006769296        0.0016833015       -0.0003634586

	---Fragment 1 Intrafragment Coordinates---
	 - Coordinate -           - BOHR/RAD -       - ANG/DEG -
	 R(1,2)           =         2.614510	       1.383539
	 R(1,8)           =         2.633728	       1.393709
	 R(1,15)          =         2.040719	       1.079902
	 R(2,10)          =         2.621576	       1.387278
	 R(2,16)          =         2.036956	       1.077911
	 R(3,6)           =         2.620268	       1.386586
	 R(3,9)           =         2.626829	       1.390058
	 R(3,17)          =         2.040574	       1.079825
	 R(4,7)           =         2.618743	       1.385779
	 R(4,9)           =         2.627483	       1.390404
	 R(4,18)          =         2.039529	       1.079272
	 R(5,10)          =         2.622809	       1.387931
	 R(5,11)          =         2.606285	       1.379187
	 R(5,19)          =         2.039502	       1.079258
	 R(6,12)          =         2.521561	       1.334353
	 R(6,20)          =         2.043294	       1.081265
	 R(7,12)          =         2.523854	       1.335566
	 R(7,21)          =         2.042646	       1.080922
	 R(8,9)           =         2.767881	       1.464699
	 R(8,11)          =         2.621691	       1.387339
	 R(10,13)         =         2.573085	       1.361618
	 R(11,14)         =         2.541701	       1.345010
	 R(13,22)         =         1.817634	       0.961850
	 B(1,2,10)        =         2.086223	     119.531771
	 B(1,2,16)        =         2.115043	     121.183035
	 B(1,8,9)         =         2.119223	     121.422535
	 B(1,8,11)        =         2.035047	     116.599581
	 B(2,1,8)         =         2.129160	     121.991881
	 B(2,1,15)        =         2.087053	     119.579300
	 B(2,10,5)        =         2.094079	     119.981911
	 B(2,10,13)       =         2.051528	     117.543911
	 B(3,6,12)        =         2.156476	     123.556989
	 B(3,6,20)        =         2.097290	     120.165860
	 B(3,9,4)         =         2.047616	     117.319729
	 B(3,9,8)         =         2.109150	     120.845370
	 B(4,7,12)        =         2.158195	     123.655467
	 B(4,7,21)        =         2.096687	     120.131325
	 B(4,9,8)         =         2.126289	     121.827400
	 B(5,10,13)       =         2.137577	     122.474118
	 B(5,11,8)        =         2.145773	     122.943725
	 B(5,11,14)       =         2.055600	     117.777197
	 B(6,3,9)         =         2.082711	     119.330545
	 B(6,3,17)        =         2.100971	     120.376779
	 B(6,12,7)        =         2.040309	     116.901121
	 B(7,4,9)         =         2.081059	     119.235894
	 B(7,4,18)        =         2.100900	     120.372692
	 B(8,1,15)        =         2.066869	     118.422856
	 B(8,11,14)       =         2.081648	     119.269649
	 B(9,3,17)        =         2.099494	     120.292155
	 B(9,4,18)        =         2.101222	     120.391177
	 B(9,8,11)        =         2.128906	     121.977310
	 B(10,2,16)       =         2.081917	     119.285055
	 B(10,5,11)       =         2.076011	     118.946678
	 B(10,5,19)       =         2.123568	     121.671465
	 B(10,13,22)      =         1.907072	     109.267149
	 B(11,5,19)       =         2.083577	     119.380143
	 B(12,6,20)       =         2.029404	     116.276280
	 B(12,7,21)       =         2.028296	     116.212796
	 D(1,2,10,5)      =         0.006967	       0.399155
	 D(1,2,10,13)     =        -3.133112	    -179.514086
	 D(1,8,9,3)       =        -0.947591	     -54.292971
	 D(1,8,9,4)       =         2.176143	     124.683818
	 D(1,8,11,5)      =         0.005284	       0.302727
	 D(1,8,11,14)     =         3.126932	     179.160029
	 D(2,1,8,9)       =        -3.140452	    -179.934623
	 D(2,1,8,11)      =         0.005858	       0.335633
	 D(2,10,5,11)     =         0.003652	       0.209251
	 D(2,10,5,19)     =        -3.129574	    -179.311394
	 D(2,10,13,22)    =        -2.882594	    -165.160469
	 D(3,6,12,7)      =        -0.002023	      -0.115890
	 D(3,9,4,7)       =         0.000217	       0.012443
	 D(3,9,4,18)      =         3.138730	     179.835999
	 D(3,9,8,11)      =         2.189029	     125.422149
	 D(4,7,12,6)      =        -0.000346	      -0.019811
	 D(4,9,3,6)       =        -0.002386	      -0.136712
	 D(4,9,3,17)      =         3.134638	     179.601510
	 D(4,9,8,11)      =        -0.970422	     -55.601062
	 D(5,10,2,16)     =        -3.132286	    -179.466748
	 D(5,10,13,22)    =         0.260553	      14.928609
	 D(5,11,8,9)      =        -3.131564	    -179.425396
	 D(6,3,9,8)       =         3.122129	     178.884788
	 D(6,12,7,21)     =        -3.137858	    -179.786014
	 D(7,4,9,8)       =        -3.124118	    -178.998791
	 D(7,12,6,20)     =        -3.137685	    -179.776098
	 D(8,1,2,10)      =        -0.011952	      -0.684792
	 D(8,1,2,16)      =         3.127255	     179.178497
	 D(8,9,3,17)      =        -0.024033	      -1.376990
	 D(8,9,4,18)      =         0.014395	       0.824765
	 D(8,11,5,10)     =        -0.010024	      -0.574335
	 D(8,11,5,19)     =         3.123397	     178.957484
	 D(9,3,6,12)      =         0.003454	       0.197875
	 D(9,3,6,20)      =         3.138896	     179.845469
	 D(9,4,7,12)      =         0.001221	       0.069955
	 D(9,4,7,21)      =         3.138581	     179.827431
	 D(9,8,1,15)      =        -0.014438	      -0.827233
	 D(9,8,11,14)     =        -0.009915	      -0.568094
	 D(10,2,1,15)     =        -3.137790	    -179.782138
	 D(10,5,11,14)    =        -3.131953	    -179.447704
	 D(11,5,10,13)    =        -3.139532	    -179.881932
	 D(11,8,1,15)     =         3.131872	     179.443023
	 D(12,6,3,17)     =        -3.133566	    -179.540120
	 D(12,7,4,18)     =        -3.137293	    -179.753635
	 D(13,10,2,16)    =         0.010821	       0.620011
	 D(13,10,5,19)    =         0.010427	       0.597422
	 D(14,11,5,19)    =         0.001468	       0.084115
	 D(15,1,2,16)     =         0.001416	       0.081150
	 D(17,3,6,20)     =         0.001876	       0.107474
	 D(18,4,7,21)     =         0.000067	       0.003841
	 R(4,14)          =         5.684485	       3.008100

	Current energy   :      -652.8746138928

	Energy change for the previous step:
		Projected    :        -0.0006277586
		Actual       :        -0.0003313105

	Performing BFGS update.
	Previous computed or guess Hessian on step 1.
	Steps to be used in Hessian update: 3 2
	Adding user-defined constraint: Fragment 1; Coordinate 69:
		Value =    -2.882594; Fixed value    =    -2.879790
		Force =     0.001612; Force constant =     0.575000
	Removing off-diagonal coupling between coordinate 69 and others.
	Taking RFO optimization step.
	Going to follow RFO solution 1.
	Using RFO vector 1.

	Determining step-restricting scale parameter for RS-RFO.
	Maximum step size allowed    0.10000

	 Iter      |step|        alpha        rfo_root  
	------------------------------------------------
	    0     0.39114       1.00000           1
	    1     0.25781       6.51999           1
	    2     0.17593      19.44363           1
	    3     0.12979      41.19775           1
	    4     0.10766      63.58002           1
	    5     0.10075      73.88913           1
	    6     0.10001      75.13285           1
	------------------------------------------------
	Norm of target step-size    0.10001
	Projected energy change by RFO approximation:        -0.0002924253

	Back-transformation to cartesian coordinates...
	The INTCO_EXCEPTion handler:
	TORS::compute_val: unable to compute torsion value
	Dynamic level is 0.
	exc.g_really_quit() is 0.

  **** Optimization has failed! (in 4 steps) ****
			--------------------------
			 OPTKING Finished Execution 
			--------------------------
	Cleaning optimization helper files.

*** Psi4 exiting successfully. Buy a developer a beer!
