
    -----------------------------------------------------------------------
          Psi4: An Open-Source Ab Initio Electronic Structure Package
                               Psi4 1.1 release

                         Git: Rev {HEAD} add49b9 


    R. M. Parrish, L. A. Burns, D. G. A. Smith, A. C. Simmonett,
    A. E. DePrince III, E. G. Hohenstein, U. Bozkaya, A. Yu. Sokolov,
    R. Di Remigio, R. M. Richard, J. F. Gonthier, A. M. James,
    H. R. McAlexander, A. Kumar, M. Saitow, X. Wang, B. P. Pritchard,
    P. Verma, H. F. Schaefer III, K. Patkowski, R. A. King, E. F. Valeev,
    F. A. Evangelista, J. M. Turney, T. D. Crawford, and C. D. Sherrill,
    J. Chem. Theory Comput. in press (2017).
    (doi: 10.1021/acs.jctc.7b00174)

    -----------------------------------------------------------------------


    Psi4 started on: Saturday, 11 November 2017 10:17PM

    Process ID:   4454
    PSIDATADIR: /cbio/jclab/home/chayas/anaconda/envs/py35/share/psi4
    Memory:     500.0 MiB
    Threads:    8
    
  ==> Input File <==

--------------------------------------------------------------------------

memory 5 Gb

molecule phepyrFOH_neutral {
  symmetry C1
  0 1 
  C      1.885   -1.036   -0.112
  C      0.807   -0.463   0.561
  C      3.825   -3.269   -0.988
  C      5.328   -1.753   0.120
  C      1.800   -1.079   2.676
  C      4.927   -3.802   -1.637
  C      6.363   -2.354   -0.579
  C      2.921   -1.631   0.608
  C      4.038   -2.225   -0.095
  C      0.764   -0.484   1.955
  C      2.878   -1.652   2.002
  N      6.195   -3.370   -1.455
  O      -0.289   0.076   2.612
  F      3.866   -2.220   2.709
  H      1.904   -1.012   -1.199
  H      0.002   -0.002   -0.006
  H      2.833   -3.663   -1.183
  H      5.532   -0.940   0.810
  H      1.772   -1.099   3.762
  H      4.814   -4.616   -2.345
  H      7.387   -2.023   -0.446
  H      -0.175   -0.018   3.571
  units Angstrom
}

dih_string = "1 8 9 3 300"
set optking fixed_dihedral = $dih_string

optimize('MP2/aug-cc-PVTZ')
--------------------------------------------------------------------------

  Memory set to   4.657 GiB by Python driver.
gradient() will perform analytic gradient computation.

*** tstart() called on gpu-1-15.local
*** at Sat Nov 11 22:17:46 2017

    SCF Algorithm Type (re)set to DF.

*** tstart() called on gpu-1-15.local
*** at Sat Nov 11 22:17:46 2017

   => Loading Basis Set <=

    Name: AUG-CC-PVTZ
    Role: ORBITAL
    Keyword: BASIS
    atoms 1-11  entry C          line   221 file /cbio/jclab/home/chayas/anaconda/envs/py35/share/psi4/basis/aug-cc-pvtz.gbs 
    atoms 12    entry N          line   267 file /cbio/jclab/home/chayas/anaconda/envs/py35/share/psi4/basis/aug-cc-pvtz.gbs 
    atoms 13    entry O          line   313 file /cbio/jclab/home/chayas/anaconda/envs/py35/share/psi4/basis/aug-cc-pvtz.gbs 
    atoms 14    entry F          line   359 file /cbio/jclab/home/chayas/anaconda/envs/py35/share/psi4/basis/aug-cc-pvtz.gbs 
    atoms 15-22 entry H          line    34 file /cbio/jclab/home/chayas/anaconda/envs/py35/share/psi4/basis/aug-cc-pvtz.gbs 


         ---------------------------------------------------------
                                   SCF
            by Justin Turney, Rob Parrish, and Andy Simmonett
                              RHF Reference
                        8 Threads,   4768 MiB Core
         ---------------------------------------------------------

  ==> Geometry <==

    Molecular point group: c1
    Full point group: C1

    Geometry (in Angstrom), charge = 0, multiplicity = 1:

       Center              X                  Y                   Z               Mass       
    ------------   -----------------  -----------------  -----------------  -----------------
           C         -1.321743429369     0.755001006756    -0.799563762987    12.000000000000
           C         -2.399743429369     1.328001006756    -0.126563762987    12.000000000000
           C          0.618256570631    -1.477998993244    -1.675563762987    12.000000000000
           C          2.121256570631     0.038001006756    -0.567563762987    12.000000000000
           C         -1.406743429369     0.712001006756     1.988436237013    12.000000000000
           C          1.720256570631    -2.010998993244    -2.324563762987    12.000000000000
           C          3.156256570631    -0.562998993244    -1.266563762987    12.000000000000
           C         -0.285743429369     0.160001006756    -0.079563762987    12.000000000000
           C          0.831256570631    -0.433998993244    -0.782563762987    12.000000000000
           C         -2.442743429369     1.307001006756     1.267436237013    12.000000000000
           C         -0.328743429369     0.139001006756     1.314436237013    12.000000000000
           N          2.988256570631    -1.578998993244    -2.142563762987    14.003074004780
           O         -3.495743429369     1.867001006756     1.924436237013    15.994914619560
           F          0.659256570631    -0.428998993244     2.021436237013    18.998403224000
           H         -1.302743429369     0.779001006756    -1.886563762987     1.007825032070
           H         -3.204743429369     1.789001006756    -0.693563762987     1.007825032070
           H         -0.373743429369    -1.871998993244    -1.870563762987     1.007825032070
           H          2.325256570631     0.851001006756     0.122436237013     1.007825032070
           H         -1.434743429369     0.692001006756     3.074436237013     1.007825032070
           H          1.607256570631    -2.824998993244    -3.032563762987     1.007825032070
           H          4.180256570631    -0.231998993244    -1.133563762987     1.007825032070
           H         -3.381743429369     1.773001006756     2.883436237013     1.007825032070

  Running in c1 symmetry.

  Rotational constants: A =      0.06326  B =      0.01307  C =      0.01165 [cm^-1]
  Rotational constants: A =   1896.62013  B =    391.97069  C =    349.23858 [MHz]
  Nuclear repulsion =  814.016552133801611

  Charge       = 0
  Multiplicity = 1
  Electrons    = 98
  Nalpha       = 49
  Nbeta        = 49

  ==> Algorithm <==

  SCF Algorithm Type is DF.
  DIIS enabled.
  MOM disabled.
  Fractional occupation disabled.
  Guess Type is SAD.
  Energy threshold   = 1.00e-10
  Density threshold  = 1.00e-10
  Integral threshold = 0.00e+00

  ==> Primary Basis <==

  Basis Set: AUG-CC-PVTZ
    Blend: AUG-CC-PVTZ
    Number of shells: 268
    Number of basis function: 828
    Number of Cartesian functions: 970
    Spherical Harmonics?: true
    Max angular momentum: 3

   => Loading Basis Set <=

    Name: (AUG-CC-PVTZ AUX)
    Role: JKFIT
    Keyword: DF_BASIS_SCF
    atoms 1-11  entry C          line   161 file /cbio/jclab/home/chayas/anaconda/envs/py35/share/psi4/basis/aug-cc-pvtz-jkfit.gbs 
    atoms 12    entry N          line   223 file /cbio/jclab/home/chayas/anaconda/envs/py35/share/psi4/basis/aug-cc-pvtz-jkfit.gbs 
    atoms 13    entry O          line   285 file /cbio/jclab/home/chayas/anaconda/envs/py35/share/psi4/basis/aug-cc-pvtz-jkfit.gbs 
    atoms 14    entry F          line   347 file /cbio/jclab/home/chayas/anaconda/envs/py35/share/psi4/basis/aug-cc-pvtz-jkfit.gbs 
    atoms 15-22 entry H          line    69 file /cbio/jclab/home/chayas/anaconda/envs/py35/share/psi4/basis/aug-cc-pvtz-jkfit.gbs 

  ==> Pre-Iterations <==

   -------------------------------------------------------
    Irrep   Nso     Nmo     Nalpha   Nbeta   Ndocc  Nsocc
   -------------------------------------------------------
     A        828     828       0       0       0       0
   -------------------------------------------------------
    Total     828     828      49      49      49       0
   -------------------------------------------------------

  ==> Integral Setup <==

  ==> DFJK: Density-Fitted J/K Matrices <==

    J tasked:                  Yes
    K tasked:                  Yes
    wK tasked:                  No
    OpenMP threads:              8
    Integrals threads:           8
    Memory (MB):              3576
    Algorithm:                Disk
    Integral Cache:           NONE
    Schwarz Cutoff:          1E-12
    Fitting Condition:       1E-12

   => Auxiliary Basis Set <=

  Basis Set: (AUG-CC-PVTZ AUX)
    Blend: AUG-CC-PVTZ-JKFIT
    Number of shells: 532
    Number of basis function: 1824
    Number of Cartesian functions: 2274
    Spherical Harmonics?: true
    Max angular momentum: 4

  Minimum eigenvalue in the overlap matrix is 7.2494624913E-07.
  Using Symmetric Orthogonalization.

  SCF Guess: Superposition of Atomic Densities via on-the-fly atomic UHF.

  ==> Iterations <==

                           Total Energy        Delta E     RMS |[F,P]|

   @DF-RHF iter   0:  -656.90925015006530   -6.56909e+02   2.31639e-02 
   @DF-RHF iter   1:  -649.81994208006142    7.08931e+00   1.87038e-03 
   @DF-RHF iter   2:  -650.11653967851316   -2.96598e-01   4.93980e-04 DIIS
   @DF-RHF iter   3:  -650.15858906328401   -4.20494e-02   3.98799e-04 DIIS
   @DF-RHF iter   4:  -650.17184353038988   -1.32545e-02   8.94694e-05 DIIS
   @DF-RHF iter   5:  -650.17325565495332   -1.41212e-03   4.41173e-05 DIIS
   @DF-RHF iter   6:  -650.17351138439221   -2.55729e-04   1.79064e-05 DIIS
   @DF-RHF iter   7:  -650.17356021731393   -4.88329e-05   4.56574e-06 DIIS
   @DF-RHF iter   8:  -650.17356588866699   -5.67135e-06   2.47804e-06 DIIS
   @DF-RHF iter   9:  -650.17356726899754   -1.38033e-06   9.67702e-07 DIIS
   @DF-RHF iter  10:  -650.17356768345689   -4.14459e-07   4.22640e-07 DIIS
   @DF-RHF iter  11:  -650.17356778356088   -1.00104e-07   1.51320e-07 DIIS
   @DF-RHF iter  12:  -650.17356779355748   -9.99660e-09   4.43620e-08 DIIS
   @DF-RHF iter  13:  -650.17356779415945   -6.01972e-10   1.49386e-08 DIIS
   @DF-RHF iter  14:  -650.17356779425643   -9.69749e-11   6.62853e-09 DIIS
   @DF-RHF iter  15:  -650.17356779426837   -1.19371e-11   5.09728e-09 DIIS
   @DF-RHF iter  16:  -650.17356779427860   -1.02318e-11   1.70037e-09 DIIS
   @DF-RHF iter  17:  -650.17356779426450    1.40972e-11   9.27485e-10 DIIS
   @DF-RHF iter  18:  -650.17356779425370    1.08002e-11   3.30304e-10 DIIS
   @DF-RHF iter  19:  -650.17356779428405   -3.03544e-11   1.05959e-10 DIIS
   @DF-RHF iter  20:  -650.17356779426200    2.20552e-11   6.86871e-11 DIIS

  ==> Post-Iterations <==

    Orbital Energies (a.u.)
    -----------------------

    Doubly Occupied:                                                      

       1A    -26.327683     2A    -20.609283     3A    -15.565348  
       4A    -11.349720     5A    -11.327946     6A    -11.274960  
       7A    -11.274267     8A    -11.265410     9A    -11.265222  
      10A    -11.254328    11A    -11.252847    12A    -11.245876  
      13A    -11.239625    14A    -11.238455    15A     -1.645873  
      16A     -1.423898    17A     -1.250461    18A     -1.181845  
      19A     -1.110266    20A     -1.041466    21A     -1.034469  
      22A     -1.019577    23A     -0.891979    24A     -0.876977  
      25A     -0.853860    26A     -0.824787    27A     -0.773139  
      28A     -0.747458    29A     -0.725034    30A     -0.712120  
      31A     -0.697221    32A     -0.664617    33A     -0.661249  
      34A     -0.641998    35A     -0.635749    36A     -0.614188  
      37A     -0.608632    38A     -0.599217    39A     -0.577914  
      40A     -0.543546    41A     -0.534058    42A     -0.533331  
      43A     -0.522012    44A     -0.494634    45A     -0.419436  
      46A     -0.387207    47A     -0.360129    48A     -0.349188  
      49A     -0.324337  

    Virtual:                                                              

      50A      0.021875    51A      0.029148    52A      0.034370  
      53A      0.036728    54A      0.044644    55A      0.047101  
      56A      0.052856    57A      0.054619    58A      0.076422  
      59A      0.082383    60A      0.082839    61A      0.085622  
      62A      0.092346    63A      0.095325    64A      0.097226  
      65A      0.101190    66A      0.104296    67A      0.108407  
      68A      0.110202    69A      0.112825    70A      0.113116  
      71A      0.118612    72A      0.120890    73A      0.125165  
      74A      0.129483    75A      0.131582    76A      0.133748  
      77A      0.135509    78A      0.140487    79A      0.143286  
      80A      0.147182    81A      0.151586    82A      0.154231  
      83A      0.155585    84A      0.155917    85A      0.166948  
      86A      0.171427    87A      0.173344    88A      0.182822  
      89A      0.185846    90A      0.193502    91A      0.200551  
      92A      0.208219    93A      0.213431    94A      0.216403  
      95A      0.225269    96A      0.228539    97A      0.235662  
      98A      0.236236    99A      0.239893   100A      0.241480  
     101A      0.244388   102A      0.249073   103A      0.253538  
     104A      0.257351   105A      0.260558   106A      0.264512  
     107A      0.266812   108A      0.269008   109A      0.272492  
     110A      0.278896   111A      0.281906   112A      0.285280  
     113A      0.291335   114A      0.293750   115A      0.300374  
     116A      0.301425   117A      0.309793   118A      0.313465  
     119A      0.317637   120A      0.318873   121A      0.322881  
     122A      0.327036   123A      0.328821   124A      0.331255  
     125A      0.335966   126A      0.344751   127A      0.347791  
     128A      0.350050   129A      0.353770   130A      0.360126  
     131A      0.368303   132A      0.376515   133A      0.382211  
     134A      0.385924   135A      0.390227   136A      0.395651  
     137A      0.401117   138A      0.404276   139A      0.406677  
     140A      0.413108   141A      0.415862   142A      0.419029  
     143A      0.424514   144A      0.427257   145A      0.429678  
     146A      0.436646   147A      0.442792   148A      0.445881  
     149A      0.447808   150A      0.450931   151A      0.458966  
     152A      0.463334   153A      0.467286   154A      0.469432  
     155A      0.474282   156A      0.476032   157A      0.479258  
     158A      0.485404   159A      0.485672   160A      0.488302  
     161A      0.493495   162A      0.496653   163A      0.498049  
     164A      0.502034   165A      0.509444   166A      0.511214  
     167A      0.511521   168A      0.513055   169A      0.522290  
     170A      0.522824   171A      0.524429   172A      0.530086  
     173A      0.535220   174A      0.540708   175A      0.544609  
     176A      0.547016   177A      0.550854   178A      0.554772  
     179A      0.558842   180A      0.563352   181A      0.573745  
     182A      0.576002   183A      0.580407   184A      0.584041  
     185A      0.590853   186A      0.594228   187A      0.604246  
     188A      0.612645   189A      0.621912   190A      0.626984  
     191A      0.627805   192A      0.636701   193A      0.641246  
     194A      0.643873   195A      0.648957   196A      0.656770  
     197A      0.657682   198A      0.671914   199A      0.679501  
     200A      0.682706   201A      0.695206   202A      0.696650  
     203A      0.702413   204A      0.705648   205A      0.709063  
     206A      0.716884   207A      0.719811   208A      0.725733  
     209A      0.733647   210A      0.736673   211A      0.738178  
     212A      0.739568   213A      0.746560   214A      0.756070  
     215A      0.764630   216A      0.767651   217A      0.773710  
     218A      0.779721   219A      0.788882   220A      0.791255  
     221A      0.799563   222A      0.805166   223A      0.811296  
     224A      0.820870   225A      0.822839   226A      0.829172  
     227A      0.832035   228A      0.837207   229A      0.852957  
     230A      0.854720   231A      0.855486   232A      0.862003  
     233A      0.864358   234A      0.870675   235A      0.873608  
     236A      0.879815   237A      0.886407   238A      0.887996  
     239A      0.893385   240A      0.898117   241A      0.903924  
     242A      0.907559   243A      0.911965   244A      0.922891  
     245A      0.928028   246A      0.931616   247A      0.932976  
     248A      0.933836   249A      0.942219   250A      0.945175  
     251A      0.949061   252A      0.955993   253A      0.959060  
     254A      0.963026   255A      0.966001   256A      0.971165  
     257A      0.973577   258A      0.986090   259A      0.989594  
     260A      0.992192   261A      0.997757   262A      1.003200  
     263A      1.008703   264A      1.010895   265A      1.019350  
     266A      1.022407   267A      1.024694   268A      1.028152  
     269A      1.031720   270A      1.037022   271A      1.044419  
     272A      1.046951   273A      1.051825   274A      1.052292  
     275A      1.060115   276A      1.064172   277A      1.071267  
     278A      1.073537   279A      1.080097   280A      1.083980  
     281A      1.087959   282A      1.093661   283A      1.098598  
     284A      1.102202   285A      1.108636   286A      1.112595  
     287A      1.119596   288A      1.124776   289A      1.128602  
     290A      1.130307   291A      1.134460   292A      1.145422  
     293A      1.147476   294A      1.154275   295A      1.156460  
     296A      1.159054   297A      1.165123   298A      1.167679  
     299A      1.173224   300A      1.180164   301A      1.186953  
     302A      1.189420   303A      1.198676   304A      1.202097  
     305A      1.204365   306A      1.213980   307A      1.219744  
     308A      1.223964   309A      1.227521   310A      1.231920  
     311A      1.240144   312A      1.245124   313A      1.250594  
     314A      1.259342   315A      1.261694   316A      1.269562  
     317A      1.272632   318A      1.280456   319A      1.285973  
     320A      1.297871   321A      1.299658   322A      1.306865  
     323A      1.310729   324A      1.316380   325A      1.325760  
     326A      1.329876   327A      1.343428   328A      1.349335  
     329A      1.352295   330A      1.357611   331A      1.370609  
     332A      1.373002   333A      1.378074   334A      1.383731  
     335A      1.390325   336A      1.402584   337A      1.405537  
     338A      1.412726   339A      1.417278   340A      1.429409  
     341A      1.434953   342A      1.443463   343A      1.448835  
     344A      1.464466   345A      1.469922   346A      1.476967  
     347A      1.485242   348A      1.491601   349A      1.498467  
     350A      1.505434   351A      1.513478   352A      1.514958  
     353A      1.525559   354A      1.536438   355A      1.553306  
     356A      1.556900   357A      1.564573   358A      1.567405  
     359A      1.569437   360A      1.585118   361A      1.587802  
     362A      1.599379   363A      1.603547   364A      1.605344  
     365A      1.622958   366A      1.634276   367A      1.640110  
     368A      1.644034   369A      1.646453   370A      1.651441  
     371A      1.660647   372A      1.667636   373A      1.676224  
     374A      1.686645   375A      1.689839   376A      1.698453  
     377A      1.703476   378A      1.714340   379A      1.726583  
     380A      1.727568   381A      1.729335   382A      1.739535  
     383A      1.743832   384A      1.749196   385A      1.761149  
     386A      1.770207   387A      1.781197   388A      1.787100  
     389A      1.791784   390A      1.798619   391A      1.809418  
     392A      1.810990   393A      1.821138   394A      1.823764  
     395A      1.833947   396A      1.849023   397A      1.860930  
     398A      1.872736   399A      1.880527   400A      1.881842  
     401A      1.889883   402A      1.894397   403A      1.902058  
     404A      1.902487   405A      1.911454   406A      1.923034  
     407A      1.929820   408A      1.940192   409A      1.941439  
     410A      1.949829   411A      1.950968   412A      1.960293  
     413A      1.974586   414A      1.981440   415A      1.992500  
     416A      2.000151   417A      2.008550   418A      2.016042  
     419A      2.019817   420A      2.028350   421A      2.035605  
     422A      2.048456   423A      2.052689   424A      2.058465  
     425A      2.067352   426A      2.080592   427A      2.086642  
     428A      2.090701   429A      2.098857   430A      2.107606  
     431A      2.115475   432A      2.119577   433A      2.121412  
     434A      2.130587   435A      2.138055   436A      2.145514  
     437A      2.156560   438A      2.169145   439A      2.177951  
     440A      2.189808   441A      2.196104   442A      2.197073  
     443A      2.212272   444A      2.219537   445A      2.225564  
     446A      2.234697   447A      2.248080   448A      2.255688  
     449A      2.265658   450A      2.270706   451A      2.280374  
     452A      2.286427   453A      2.299238   454A      2.303511  
     455A      2.316379   456A      2.325405   457A      2.337195  
     458A      2.339301   459A      2.355103   460A      2.363779  
     461A      2.376865   462A      2.383011   463A      2.412121  
     464A      2.415026   465A      2.421652   466A      2.430007  
     467A      2.442788   468A      2.452449   469A      2.464228  
     470A      2.467181   471A      2.477682   472A      2.496231  
     473A      2.514422   474A      2.532813   475A      2.549396  
     476A      2.560650   477A      2.567396   478A      2.575486  
     479A      2.579269   480A      2.586004   481A      2.590607  
     482A      2.611548   483A      2.613459   484A      2.629202  
     485A      2.639192   486A      2.669440   487A      2.677852  
     488A      2.690077   489A      2.714514   490A      2.723917  
     491A      2.740155   492A      2.753356   493A      2.763266  
     494A      2.790935   495A      2.811180   496A      2.825096  
     497A      2.829031   498A      2.838550   499A      2.843953  
     500A      2.870319   501A      2.878260   502A      2.895864  
     503A      2.918134   504A      2.944333   505A      2.968602  
     506A      2.978308   507A      3.022820   508A      3.037249  
     509A      3.058093   510A      3.060512   511A      3.066235  
     512A      3.081168   513A      3.114366   514A      3.122138  
     515A      3.133259   516A      3.156108   517A      3.158612  
     518A      3.172791   519A      3.182751   520A      3.191897  
     521A      3.201892   522A      3.206973   523A      3.234504  
     524A      3.256909   525A      3.264128   526A      3.265966  
     527A      3.283036   528A      3.290364   529A      3.295791  
     530A      3.313859   531A      3.330629   532A      3.341980  
     533A      3.354783   534A      3.366921   535A      3.377763  
     536A      3.394905   537A      3.400532   538A      3.413217  
     539A      3.415299   540A      3.426006   541A      3.437261  
     542A      3.444187   543A      3.449536   544A      3.454501  
     545A      3.457693   546A      3.479175   547A      3.489618  
     548A      3.493183   549A      3.494621   550A      3.506040  
     551A      3.523435   552A      3.540250   553A      3.543598  
     554A      3.550725   555A      3.557598   556A      3.561659  
     557A      3.566148   558A      3.577749   559A      3.581370  
     560A      3.591787   561A      3.597606   562A      3.611826  
     563A      3.618983   564A      3.627112   565A      3.631209  
     566A      3.637429   567A      3.653549   568A      3.654600  
     569A      3.665971   570A      3.678403   571A      3.687272  
     572A      3.704522   573A      3.711525   574A      3.716973  
     575A      3.732898   576A      3.738135   577A      3.746008  
     578A      3.756208   579A      3.761800   580A      3.780051  
     581A      3.782996   582A      3.791411   583A      3.804477  
     584A      3.807805   585A      3.820075   586A      3.825161  
     587A      3.826003   588A      3.847385   589A      3.850716  
     590A      3.865321   591A      3.874474   592A      3.884214  
     593A      3.891016   594A      3.897884   595A      3.906356  
     596A      3.916256   597A      3.919784   598A      3.928858  
     599A      3.935053   600A      3.944292   601A      3.948749  
     602A      3.954640   603A      3.960557   604A      3.967800  
     605A      3.980766   606A      3.983767   607A      4.004772  
     608A      4.019205   609A      4.024555   610A      4.032496  
     611A      4.039085   612A      4.044864   613A      4.060948  
     614A      4.070751   615A      4.080518   616A      4.082620  
     617A      4.089232   618A      4.108800   619A      4.113511  
     620A      4.116203   621A      4.122985   622A      4.138021  
     623A      4.144134   624A      4.154881   625A      4.156714  
     626A      4.180800   627A      4.186226   628A      4.197235  
     629A      4.203320   630A      4.213778   631A      4.216989  
     632A      4.225729   633A      4.234804   634A      4.238024  
     635A      4.248623   636A      4.266085   637A      4.286585  
     638A      4.289900   639A      4.304428   640A      4.305034  
     641A      4.313289   642A      4.320221   643A      4.325466  
     644A      4.342946   645A      4.350976   646A      4.355618  
     647A      4.362660   648A      4.372446   649A      4.377469  
     650A      4.391454   651A      4.409393   652A      4.418790  
     653A      4.421898   654A      4.426062   655A      4.439477  
     656A      4.446663   657A      4.458355   658A      4.463367  
     659A      4.468751   660A      4.480740   661A      4.485786  
     662A      4.509058   663A      4.520944   664A      4.526864  
     665A      4.532653   666A      4.546224   667A      4.571042  
     668A      4.581328   669A      4.588239   670A      4.598911  
     671A      4.604376   672A      4.611523   673A      4.620657  
     674A      4.640962   675A      4.656504   676A      4.678794  
     677A      4.684115   678A      4.702087   679A      4.719068  
     680A      4.723635   681A      4.738797   682A      4.742941  
     683A      4.759766   684A      4.771312   685A      4.793799  
     686A      4.803395   687A      4.817397   688A      4.847840  
     689A      4.861320   690A      4.864008   691A      4.891160  
     692A      4.900576   693A      4.914890   694A      4.938681  
     695A      4.955987   696A      4.965926   697A      4.970032  
     698A      4.974441   699A      4.984665   700A      5.008658  
     701A      5.018011   702A      5.024562   703A      5.036964  
     704A      5.037587   705A      5.041791   706A      5.057668  
     707A      5.069364   708A      5.097169   709A      5.101122  
     710A      5.114996   711A      5.125228   712A      5.133917  
     713A      5.144323   714A      5.165836   715A      5.173077  
     716A      5.179270   717A      5.184695   718A      5.189574  
     719A      5.190859   720A      5.206569   721A      5.231554  
     722A      5.270554   723A      5.274408   724A      5.294979  
     725A      5.308658   726A      5.312034   727A      5.334045  
     728A      5.354291   729A      5.366348   730A      5.380676  
     731A      5.398056   732A      5.430033   733A      5.438911  
     734A      5.455523   735A      5.459651   736A      5.467577  
     737A      5.471474   738A      5.495256   739A      5.529235  
     740A      5.554232   741A      5.562041   742A      5.575428  
     743A      5.597120   744A      5.614162   745A      5.641993  
     746A      5.692745   747A      5.709376   748A      5.743703  
     749A      5.753685   750A      5.765006   751A      5.797707  
     752A      5.802567   753A      5.835900   754A      5.847642  
     755A      5.877404   756A      5.881516   757A      5.909719  
     758A      5.958603   759A      6.016245   760A      6.044458  
     761A      6.081361   762A      6.111458   763A      6.131496  
     764A      6.180333   765A      6.231814   766A      6.258381  
     767A      6.285455   768A      6.306374   769A      6.318446  
     770A      6.365523   771A      6.391924   772A      6.462129  
     773A      6.493759   774A      6.514286   775A      6.529089  
     776A      6.571859   777A      6.686607   778A      6.697636  
     779A      6.709425   780A      6.717369   781A      6.743156  
     782A      6.840678   783A      6.872036   784A      6.886113  
     785A      6.926498   786A      6.958183   787A      6.993472  
     788A      7.046688   789A      7.053834   790A      7.078364  
     791A      7.187662   792A      7.252558   793A      7.391912  
     794A      7.415081   795A      7.418662   796A      7.470941  
     797A      7.678998   798A      7.684627   799A      7.745836  
     800A      7.995025   801A      8.375831   802A      8.630311  
     803A      9.002372   804A      9.046097   805A      9.268738  
     806A      9.287008   807A      9.403299   808A      9.518706  
     809A      9.537390   810A      9.593315   811A      9.640023  
     812A      9.713286   813A     10.031329   814A     10.075935  
     815A     15.530514   816A     16.147840   817A     16.566483  
     818A     16.593362   819A     16.684757   820A     16.806966  
     821A     18.456905   822A     18.698175   823A     19.206862  
     824A     19.689723   825A     20.150423   826A     20.197816  
     827A     20.417755   828A     21.805801  

    Final Occupation by Irrep:
              A 
    DOCC [    49 ]

  Energy converged.

  @DF-RHF Final Energy:  -650.17356779426200

   => Energetics <=

    Nuclear Repulsion Energy =            814.0165521338016106
    One-Electron Energy =               -2502.8345535272896996
    Two-Electron Energy =                1038.6444335992259766
    DFT Exchange-Correlation Energy =       0.0000000000000000
    Empirical Dispersion Energy =           0.0000000000000000
    PCM Polarization Energy =               0.0000000000000000
    EFP Energy =                            0.0000000000000000
    Total Energy =                       -650.1735677942619986



Properties will be evaluated at   0.000000,   0.000000,   0.000000 Bohr

Properties computed using the SCF density matrix

  Nuclear Dipole Moment: (a.u.)
     X:    -2.1332      Y:     1.3135      Z:    -4.2694

  Electronic Dipole Moment: (a.u.)
     X:     1.1407      Y:    -0.7746      Z:     4.9008

  Dipole Moment: (a.u.)
     X:    -0.9925      Y:     0.5389      Z:     0.6314     Total:     1.2939

  Dipole Moment: (Debye)
     X:    -2.5228      Y:     1.3698      Z:     1.6049     Total:     3.2888


*** tstop() called on gpu-1-15.local at Sat Nov 11 22:26:30 2017
Module time:
	user time   =    1206.07 seconds =      20.10 minutes
	system time =      52.30 seconds =       0.87 minutes
	total time  =        524 seconds =       8.73 minutes
Total time:
	user time   =    1206.08 seconds =      20.10 minutes
	system time =      52.30 seconds =       0.87 minutes
	total time  =        524 seconds =       8.73 minutes

  //>>>>>>>>>>>>>>>>>>>>>>>>>>>>>>>>>>>//
  //               DFMP2               //
  //<<<<<<<<<<<<<<<<<<<<<<<<<<<<<<<<<<<//

   => Loading Basis Set <=

    Name: (AUG-CC-PVTZ AUX)
    Role: RIFIT
    Keyword: DF_BASIS_MP2
    atoms 1-11  entry C          line   147 file /cbio/jclab/home/chayas/anaconda/envs/py35/share/psi4/basis/aug-cc-pvtz-ri.gbs 
    atoms 12    entry N          line   205 file /cbio/jclab/home/chayas/anaconda/envs/py35/share/psi4/basis/aug-cc-pvtz-ri.gbs 
    atoms 13    entry O          line   263 file /cbio/jclab/home/chayas/anaconda/envs/py35/share/psi4/basis/aug-cc-pvtz-ri.gbs 
    atoms 14    entry F          line   321 file /cbio/jclab/home/chayas/anaconda/envs/py35/share/psi4/basis/aug-cc-pvtz-ri.gbs 
    atoms 15-22 entry H          line    29 file /cbio/jclab/home/chayas/anaconda/envs/py35/share/psi4/basis/aug-cc-pvtz-ri.gbs 

	 --------------------------------------------------------
	                          DF-MP2                         
	      2nd-Order Density-Fitted Moller-Plesset Theory     
	              RMP2 Wavefunction,   8 Threads             
	                                                         
	        Rob Parrish, Justin Turney, Andy Simmonett,      
	           Ed Hohenstein, and C. David Sherrill          
	 --------------------------------------------------------

   => Auxiliary Basis Set <=

  Basis Set: (AUG-CC-PVTZ AUX)
    Blend: AUG-CC-PVTZ-RI
    Number of shells: 504
    Number of basis function: 1852
    Number of Cartesian functions: 2344
    Spherical Harmonics?: true
    Max angular momentum: 4

	 --------------------------------------------------------
	                 NBF =   828, NAUX =  1852
	 --------------------------------------------------------
	   CLASS    FOCC     OCC    AOCC    AVIR     VIR    FVIR
	   PAIRS       0      49      49     779     779       0
	 --------------------------------------------------------


         ------------------------------------------------------------
                                     CPHF                           
                                  Rob Parrish                       
         ------------------------------------------------------------

  ==> Geometry <==

    Molecular point group: c1
    Full point group: C1

    Geometry (in Angstrom), charge = 0, multiplicity = 1:

       Center              X                  Y                   Z               Mass       
    ------------   -----------------  -----------------  -----------------  -----------------
           C         -1.321743429369     0.755001006756    -0.799563762987    12.000000000000
           C         -2.399743429369     1.328001006756    -0.126563762987    12.000000000000
           C          0.618256570631    -1.477998993244    -1.675563762987    12.000000000000
           C          2.121256570631     0.038001006756    -0.567563762987    12.000000000000
           C         -1.406743429369     0.712001006756     1.988436237013    12.000000000000
           C          1.720256570631    -2.010998993244    -2.324563762987    12.000000000000
           C          3.156256570631    -0.562998993244    -1.266563762987    12.000000000000
           C         -0.285743429369     0.160001006756    -0.079563762987    12.000000000000
           C          0.831256570631    -0.433998993244    -0.782563762987    12.000000000000
           C         -2.442743429369     1.307001006756     1.267436237013    12.000000000000
           C         -0.328743429369     0.139001006756     1.314436237013    12.000000000000
           N          2.988256570631    -1.578998993244    -2.142563762987    14.003074004780
           O         -3.495743429369     1.867001006756     1.924436237013    15.994914619560
           F          0.659256570631    -0.428998993244     2.021436237013    18.998403224000
           H         -1.302743429369     0.779001006756    -1.886563762987     1.007825032070
           H         -3.204743429369     1.789001006756    -0.693563762987     1.007825032070
           H         -0.373743429369    -1.871998993244    -1.870563762987     1.007825032070
           H          2.325256570631     0.851001006756     0.122436237013     1.007825032070
           H         -1.434743429369     0.692001006756     3.074436237013     1.007825032070
           H          1.607256570631    -2.824998993244    -3.032563762987     1.007825032070
           H          4.180256570631    -0.231998993244    -1.133563762987     1.007825032070
           H         -3.381743429369     1.773001006756     2.883436237013     1.007825032070

  Nuclear repulsion =  814.016552133801611
  Reference energy  = -650.173567794261999

  ==> Basis Set <==

  Basis Set: AUG-CC-PVTZ
    Blend: AUG-CC-PVTZ
    Number of shells: 268
    Number of basis function: 828
    Number of Cartesian functions: 970
    Spherical Harmonics?: true
    Max angular momentum: 3

  ==> CGRSolver (by Rob Parrish) <==

   Number of roots    =         1
   Preconditioning    =    JACOBI
   Convergence cutoff =     1E-06
   Maximum iterations =       100

  ==> CPHFRHamiltonian (by Rob Parrish) <== 

  ==> DFJK: Density-Fitted J/K Matrices <==

    J tasked:                  Yes
    K tasked:                  Yes
    wK tasked:                  No
    OpenMP threads:              8
    Integrals threads:           8
    Memory (MB):              3576
    Algorithm:                Disk
    Integral Cache:           NONE
    Schwarz Cutoff:          1E-12
    Fitting Condition:       1E-12

   => Auxiliary Basis Set <=

  Basis Set: (AUG-CC-PVTZ AUX)
    Blend: AUG-CC-PVTZ-JKFIT
    Number of shells: 532
    Number of basis function: 1824
    Number of Cartesian functions: 2274
    Spherical Harmonics?: true
    Max angular momentum: 4

  ==> CPHF Iterations <==

  => Iterations <=

             Iter  Converged  Remaining    Residual
  CGR           1          0          1   1.027E-01
  CGR           2          0          1   3.435E-02
  CGR           3          0          1   2.259E-02
  CGR           4          0          1   9.827E-03
  CGR           5          0          1   4.082E-03
  CGR           6          0          1   1.529E-03
  CGR           7          0          1   4.497E-04
  CGR           8          0          1   1.494E-04
  CGR           9          0          1   4.738E-05
  CGR          10          0          1   1.330E-05
  CGR          11          0          1   5.443E-06
  CGR          12          0          1   1.766E-06
  CGR          13          1          0   8.830E-07

    CGRSolver converged.

  ==> DFCorrGrad: Density-Fitted Correlated Gradients <==

    OpenMP threads:              8
    Integrals threads:           8
    Memory (MB):              3576
    Schwarz Cutoff:          0E+00
    Fitting Condition:       1E-12

   => Auxiliary Basis Set <=

  Basis Set: (AUG-CC-PVTZ AUX)
    Blend: AUG-CC-PVTZ-JKFIT
    Number of shells: 532
    Number of basis function: 1824
    Number of Cartesian functions: 2274
    Spherical Harmonics?: true
    Max angular momentum: 4

	-----------------------------------------------------------
	 ==================> DF-MP2 Energies <==================== 
	-----------------------------------------------------------
	 Reference Energy          =    -650.1735677942619986 [Eh]
	 Singles Energy            =      -0.0000000000000001 [Eh]
	 Same-Spin Energy          =      -0.6775265545727474 [Eh]
	 Opposite-Spin Energy      =      -2.0194595129749753 [Eh]
	 Correlation Energy        =      -2.6969860675477229 [Eh]
	 Total Energy              =    -652.8705538618097535 [Eh]
	-----------------------------------------------------------
	 ================> DF-SCS-MP2 Energies <================== 
	-----------------------------------------------------------
	 SCS Same-Spin Scale       =       0.3333333333333333 [-]
	 SCS Opposite-Spin Scale   =       1.2000000000000000 [-]
	 SCS Same-Spin Energy      =      -0.2258421848575825 [Eh]
	 SCS Opposite-Spin Energy  =      -2.4233514155699702 [Eh]
	 SCS Correlation Energy    =      -2.6491936004275525 [Eh]
	 SCS Total Energy          =    -652.8227613946895644 [Eh]
	-----------------------------------------------------------


  -Total Gradient:
     Atom            X                  Y                   Z
    ------   -----------------  -----------------  -----------------
       1        0.010475594755    -0.002629504018    -0.014352222970
       2        0.003914817768    -0.001894781761     0.003319788391
       3       -0.007296879093    -0.001005827028     0.003057526701
       4       -0.003991381290     0.006206212783     0.004213611120
       5       -0.008045608317     0.004398070015     0.001152330167
       6       -0.013986554902    -0.001017711462     0.002614360221
       7       -0.002951607006     0.009373538098     0.008412903075
       8       -0.001191531158     0.000747055989    -0.002687856380
       9       -0.001671254017     0.000983262035    -0.001133933290
      10       -0.008681698231     0.005037268461    -0.004554198025
      11        0.021088482480    -0.014833832498     0.005526539565
      12        0.013526612540    -0.006818804757    -0.008472278210
      13        0.002795008818    -0.001643637713     0.000382310341
      14        0.001604602189    -0.000309539629     0.002176607223
      15       -0.002789168073     0.001288270108    -0.006273592162
      16       -0.003336185030     0.001633363593    -0.005366741365
      17       -0.003128246890    -0.002596998949    -0.002768156817
      18        0.002899605356     0.003669891422     0.002818325027
      19       -0.000937885732     0.000629381468     0.004372502211
      20        0.000391542537    -0.001762615437    -0.001987046562
      21        0.002483511909     0.000172882670     0.000102452546
      22       -0.001171778620     0.000374056624     0.009446769197


*** tstop() called on gpu-1-15.local at Sat Nov 11 23:03:55 2017
Module time:
	user time   =    5893.57 seconds =      98.23 minutes
	system time =     114.05 seconds =       1.90 minutes
	total time  =       2769 seconds =      46.15 minutes
Total time:
	user time   =    5893.58 seconds =      98.23 minutes
	system time =     114.05 seconds =       1.90 minutes
	total time  =       2769 seconds =      46.15 minutes

			-----------------------------------------
			 OPTKING 2.0: for geometry optimizations 
			  - R.A. King,  Bethel University        
			-----------------------------------------

	Internal coordinates to be generated automatically.
	Detected frag 1 with atoms:  1 2 3 4 5 6 7 8 9 10 11 12 13 14 15 16 17 18 19 20
	 21 22
	---Fragment 1 Bond Connectivity---
	 1 : 2 8 15
	 2 : 1 10 16
	 3 : 6 9 17
	 4 : 7 9 18
	 5 : 10 11 19
	 6 : 3 12 20
	 7 : 4 12 21
	 8 : 1 9 11
	 9 : 3 4 8
	 10 : 2 5 13
	 11 : 5 8 14
	 12 : 6 7
	 13 : 10 22
	 14 : 11
	 15 : 1
	 16 : 2
	 17 : 3
	 18 : 4
	 19 : 5
	 20 : 6
	 21 : 7
	 22 : 13

	Assuming in current code that numbering for constraints corresponds to unified fragment.
	Fixed dihedral atom list: 
	     1     8     9     3
	---Fragment 1 Geometry and Gradient---
	 C          -2.4977330994        1.4267451328       -1.5109565378
	 C          -4.5348578707        2.5095582070       -0.2391708504
	 C           1.1683355984       -2.7930133219       -3.1663566302
	 C           4.0085939761        0.0718114955       -1.0725400750
	 C          -2.6583598207        1.3454869091        3.7575999207
	 C           3.2508137968       -3.8002373507       -4.3927888905
	 C           5.9644605236       -1.0639139103       -2.3934586419
	 C          -0.5399768258        0.3023580838       -0.1503537221
	 C           1.5708472647       -0.8201392392       -1.4788311936
	 C          -4.6161160944        2.4698739582        2.3951073788
	 C          -0.6212350495        0.2626738350        2.4839245071
	 N           5.6469865333       -2.9838756613       -4.0488587343
	 O          -6.6059977123        3.5281205926        3.6366574482
	 F           1.2458143698       -0.8106906085        3.8199608830
	 H          -2.4618283029        1.4720985600       -3.5650888443
	 H          -6.0560874077        3.3807219542       -1.3106455677
	 H          -0.7062727255       -3.5375654183       -3.5348532261
	 H           4.3940981072        1.6081588416        0.2313709567
	 H          -2.7112721525        1.3076923865        5.8098425010
	 H           3.0372747438       -5.3384744229       -5.7307149926
	 H           7.8995400837       -0.4384145603       -2.1421250662
	 H          -6.3905689332        3.3504863361        5.4489048096
	             0.0104755948       -0.0026295040       -0.0143522230
	             0.0039148178       -0.0018947818        0.0033197884
	            -0.0072968791       -0.0010058270        0.0030575267
	            -0.0039913813        0.0062062128        0.0042136111
	            -0.0080456083        0.0043980700        0.0011523302
	            -0.0139865549       -0.0010177115        0.0026143602
	            -0.0029516070        0.0093735381        0.0084129031
	            -0.0011915312        0.0007470560       -0.0026878564
	            -0.0016712540        0.0009832620       -0.0011339333
	            -0.0086816982        0.0050372685       -0.0045541980
	             0.0210884825       -0.0148338325        0.0055265396
	             0.0135266125       -0.0068188048       -0.0084722782
	             0.0027950088       -0.0016436377        0.0003823103
	             0.0016046022       -0.0003095396        0.0021766072
	            -0.0027891681        0.0012882701       -0.0062735922
	            -0.0033361850        0.0016333636       -0.0053667414
	            -0.0031282469       -0.0025969989       -0.0027681568
	             0.0028996054        0.0036698914        0.0028183250
	            -0.0009378857        0.0006293815        0.0043725022
	             0.0003915425       -0.0017626154       -0.0019870466
	             0.0024835119        0.0001728827        0.0001024525
	            -0.0011717786        0.0003740566        0.0094467692

	Previous optimization step data not found.  Starting new optimization.

	---Fragment 1 Intrafragment Coordinates---
	 - Coordinate -           - BOHR/RAD -       - ANG/DEG -
	 R(1,2)           =         2.634350	       1.394038
	 R(1,8)           =         2.635962	       1.394891
	 R(1,15)          =         2.054947	       1.087431
	 R(2,10)          =         2.635830	       1.394821
	 R(2,16)          =         2.054537	       1.087214
	 R(3,6)           =         2.618273	       1.385530
	 R(3,9)           =         2.627164	       1.390235
	 R(3,17)          =         2.050440	       1.085046
	 R(4,7)           =         2.619182	       1.386011
	 R(4,9)           =         2.627405	       1.390363
	 R(4,18)          =         2.051624	       1.085673
	 R(5,10)          =         2.636938	       1.395407
	 R(5,11)          =         2.635263	       1.394521
	 R(5,19)          =         2.053272	       1.086545
	 R(6,12)          =         2.554678	       1.351877
	 R(6,20)          =         2.049834	       1.084725
	 R(7,12)          =         2.554876	       1.351982
	 R(7,21)          =         2.049134	       1.084355
	 R(8,9)           =         2.735038	       1.447320
	 R(8,11)          =         2.635830	       1.394821
	 R(10,13)         =         2.573123	       1.361638
	 R(11,14)         =         2.534359	       1.341125
	 R(13,22)         =         1.833631	       0.970316
	 B(1,2,10)        =         2.094553	     120.009056
	 B(1,2,16)        =         2.088723	     119.675016
	 B(1,8,9)         =         2.091569	     119.838095
	 B(1,8,11)        =         2.093692	     119.959722
	 B(2,1,8)         =         2.094940	     120.031219
	 B(2,1,15)        =         2.079469	     119.144799
	 B(2,10,5)        =         2.094306	     119.994870
	 B(2,10,13)       =         2.094247	     119.991510
	 B(3,6,12)        =         2.165211	     124.057445
	 B(3,6,20)        =         2.107791	     120.767548
	 B(3,9,4)         =         2.090259	     119.762992
	 B(3,9,8)         =         2.096656	     120.129524
	 B(4,7,12)        =         2.164987	     124.044616
	 B(4,7,21)        =         2.107102	     120.728051
	 B(4,9,8)         =         2.096271	     120.107478
	 B(5,10,13)       =         2.094633	     120.013619
	 B(5,11,8)        =         2.095181	     120.045019
	 B(5,11,14)       =         2.081414	     119.256220
	 B(6,3,9)         =         2.057714	     117.898335
	 B(6,3,17)        =         2.098197	     120.217854
	 B(6,12,7)        =         2.030771	     116.354583
	 B(7,4,9)         =         2.057429	     117.881998
	 B(7,4,18)        =         2.100087	     120.326149
	 B(8,1,15)        =         2.108776	     120.823969
	 B(8,11,14)       =         2.106591	     120.698759
	 B(9,3,17)        =         2.127271	     121.883627
	 B(9,4,18)        =         2.125669	     121.791843
	 B(9,8,11)        =         2.097924	     120.202184
	 B(10,2,16)       =         2.099909	     120.315896
	 B(10,5,11)       =         2.093699	     119.960108
	 B(10,5,19)       =         2.100355	     120.341451
	 B(10,13,22)      =         1.924294	     110.253909
	 B(11,5,19)       =         2.089132	     119.698439
	 B(12,6,20)       =         2.010181	     115.174900
	 B(12,7,21)       =         2.011095	     115.227270
	 D(1,2,10,5)      =        -0.000325	      -0.018609
	 D(1,2,10,13)     =         3.141388	     179.988267
	 D(1,8,9,3)       =        -1.047732	     -60.030615
	 D(1,8,9,4)       =         2.093354	     119.940323
	 D(1,8,11,5)      =         0.000325	       0.018608
	 D(1,8,11,14)     =        -3.141528	    -179.996269
	 D(2,1,8,9)       =         3.141277	     179.981897
	 D(2,1,8,11)      =        -0.000348	      -0.019945
	 D(2,10,5,11)     =         0.000301	       0.017261
	 D(2,10,5,19)     =        -3.141029	    -179.967685
	 D(2,10,13,22)    =         3.141285	     179.982383
	 D(3,6,12,7)      =         0.000000	       0.000000
	 D(3,9,4,7)       =         0.001152	       0.065977
	 D(3,9,4,18)      =        -3.141096	    -179.971521
	 D(3,9,8,11)      =         2.093893	     119.971231
	 D(4,7,12,6)      =         0.000156	       0.008959
	 D(4,9,3,6)       =        -0.001010	      -0.057847
	 D(4,9,3,17)      =        -3.139885	    -179.902141
	 D(4,9,8,11)      =        -1.048207	     -60.057831
	 D(5,10,2,16)     =         3.140149	     179.917291
	 D(5,10,13,22)    =        -0.000187	      -0.010740
	 D(5,11,8,9)      =        -3.141300	    -179.983240
	 D(6,3,9,8)       =         3.140078	     179.913192
	 D(6,12,7,21)     =         3.140154	     179.917593
	 D(7,4,9,8)       =        -3.139936	    -179.905069
	 D(7,12,6,20)     =         3.139530	     179.881843
	 D(8,1,2,10)      =         0.000348	       0.019955
	 D(8,1,2,16)      =        -3.140133	    -179.916358
	 D(8,9,3,17)      =         0.001202	       0.068898
	 D(8,9,4,18)      =         0.001002	       0.057433
	 D(8,11,5,10)     =        -0.000301	      -0.017270
	 D(8,11,5,19)     =         3.141030	     179.967774
	 D(9,3,6,12)      =         0.000430	       0.024638
	 D(9,3,6,20)      =        -3.138988	    -179.850775
	 D(9,4,7,12)      =        -0.000737	      -0.042199
	 D(9,4,7,21)      =        -3.140651	    -179.946048
	 D(9,8,1,15)      =         0.000403	       0.023110
	 D(9,8,11,14)     =         0.000033	       0.001883
	 D(10,2,1,15)     =         3.141234	     179.979432
	 D(10,5,11,14)    =         3.141547	     179.997392
	 D(11,5,10,13)    =        -3.141411	    -179.989616
	 D(11,8,1,15)     =        -3.141221	    -179.978731
	 D(12,6,3,17)     =         3.139352	     179.871634
	 D(12,7,4,18)     =         3.141501	     179.994725
	 D(13,10,2,16)    =        -0.001324	      -0.075833
	 D(13,10,5,19)    =         0.000444	       0.025437
	 D(14,11,5,19)    =        -0.000307	      -0.017564
	 D(15,1,2,16)     =         0.000753	       0.043120
	 D(17,3,6,20)     =        -0.000066	      -0.003779
	 D(18,4,7,21)     =         0.001586	       0.090877
	 R(4,14)          =         5.687559	       3.009727

	Current energy   :      -652.8705538618

	Generating empirical Hessian (Schlegel '84) for each fragment.
	Adding user-defined constraint: Fragment 1; Coordinate 61:
		Value =    -1.047732; Fixed value    =    -1.047198
		Force =     0.000267; Force constant =     0.500000
	Removing off-diagonal coupling between coordinate 61 and others.
	Taking RFO optimization step.
	Going to follow RFO solution 1.
	Using RFO vector 1.

	Determining step-restricting scale parameter for RS-RFO.
	Maximum step size allowed    0.10000

	 Iter      |step|        alpha        rfo_root  
	------------------------------------------------
	    0     0.17994       1.00000           1
	    1     0.14493       6.34024           1
	    2     0.11756      19.01553           1
	    3     0.10373      31.30952           1
	    4     0.10022      35.46684           1
	    5     0.10000      35.75040           1
	------------------------------------------------
	Norm of target step-size    0.10000
	Projected energy change by RFO approximation:        -0.0047800235

	Back-transformation to cartesian coordinates...
	Could not converge backtransformation.
	Using first guess instead.

	--- Internal Coordinate Step in ANG or DEG, aJ/ANG or AJ/DEG ---
	 ---------------------------------------------------------------------------
	   Coordinate                Previous        Force       Change         New 
	   ----------                --------       ------       ------       ------
	    1 R(1,2)          =      1.394038    -0.056498    -0.005662     1.388376
	    2 R(1,8)          =      1.394891    -0.027925    -0.002558     1.392333
	    3 R(1,15)         =      1.087431    -0.051499    -0.006338     1.081093
	    4 R(2,10)         =      1.394821    -0.081551    -0.008212     1.386610
	    5 R(2,16)         =      1.087214    -0.049116    -0.005974     1.081240
	    6 R(3,6)          =      1.385530     0.005821     0.000576     1.386106
	    7 R(3,9)          =      1.390235    -0.017744    -0.001327     1.388908
	    8 R(3,17)         =      1.085046    -0.035431    -0.004337     1.080710
	    9 R(4,7)          =      1.386011    -0.001089    -0.000133     1.385878
	   10 R(4,9)          =      1.390363    -0.018832    -0.001405     1.388958
	   11 R(4,18)         =      1.085673    -0.041887    -0.005132     1.080541
	   12 R(5,10)         =      1.395407    -0.046297    -0.004688     1.390720
	   13 R(5,11)         =      1.394521    -0.105699    -0.010586     1.383935
	   14 R(5,19)         =      1.086545    -0.036109    -0.004343     1.082202
	   15 R(6,12)         =      1.351877    -0.121031    -0.011099     1.340778
	   16 R(6,20)         =      1.084725    -0.021247    -0.002599     1.082127
	   17 R(7,12)         =      1.351982    -0.117490    -0.010807     1.341175
	   18 R(7,21)         =      1.084355    -0.019860    -0.002419     1.081936
	   19 R(8,9)          =      1.447320     0.131707     0.015360     1.462680
	   20 R(8,11)         =      1.394821    -0.078752    -0.007696     1.387125
	   21 R(10,13)        =      1.361638    -0.024429    -0.002037     1.359601
	   22 R(11,14)        =      1.341125    -0.021902    -0.001839     1.339286
	   23 R(13,22)        =      0.970316    -0.075489    -0.006881     0.963435
	   24 B(1,2,10)       =    120.009056    -0.000176    -0.328421   119.680636
	   25 B(1,2,16)       =    119.675016     0.000294     0.635934   120.310950
	   26 B(1,8,9)        =    119.838095     0.000659     1.141329   120.979424
	   27 B(1,8,11)       =    119.959722    -0.000923    -1.679849   118.279873
	   28 B(2,1,8)        =    120.031219     0.000528     1.037600   121.068819
	   29 B(2,1,15)       =    119.144799    -0.000022     0.032915   119.177715
	   30 B(2,10,5)       =    119.994870    -0.000011    -0.017560   119.977311
	   31 B(2,10,13)      =    119.991510    -0.000752    -1.349757   118.641753
	   32 B(3,6,12)       =    124.057445    -0.000035    -0.123662   123.933783
	   33 B(3,6,20)       =    120.767548    -0.000037    -0.062998   120.704550
	   34 B(3,9,4)        =    119.762992    -0.000837    -1.415856   118.347136
	   35 B(3,9,8)        =    120.129524     0.000417     0.679223   120.808747
	   36 B(4,7,12)       =    124.044616    -0.000014    -0.091302   123.953313
	   37 B(4,7,21)       =    120.728051    -0.000038    -0.057148   120.670903
	   38 B(4,9,8)        =    120.107478     0.000420     0.736568   120.844046
	   39 B(5,10,13)      =    120.013619     0.000763     1.367311   121.380930
	   40 B(5,11,8)       =    120.045019     0.000787     1.392255   121.437274
	   41 B(5,11,14)      =    119.256220    -0.000186    -0.363385   118.892836
	   42 B(6,3,9)        =    117.898335     0.000366     0.761506   118.659841
	   43 B(6,3,17)       =    120.217854    -0.000005     0.024810   120.242665
	   44 B(6,12,7)       =    116.354583     0.000152     0.110220   116.464803
	   45 B(7,4,9)        =    117.881998     0.000368     0.758859   118.640857
	   46 B(7,4,18)       =    120.326149    -0.000029    -0.024894   120.301255
	   47 B(8,1,15)       =    120.823969    -0.000506    -1.070509   119.753460
	   48 B(8,11,14)      =    120.698759    -0.000601    -1.028985   119.669774
	   49 B(9,3,17)       =    121.883627    -0.000361    -0.786220   121.097407
	   50 B(9,4,18)       =    121.791843    -0.000340    -0.734022   121.057821
	   51 B(9,8,11)       =    120.202184     0.000263     0.538345   120.740529
	   52 B(10,2,16)      =    120.315896    -0.000118    -0.307486   120.008411
	   53 B(10,5,11)      =    119.960108    -0.000205    -0.404157   119.555952
	   54 B(10,5,19)      =    120.341451     0.000186     0.391189   120.732640
	   55 B(10,13,22)     =    110.253909    -0.000364    -0.828454   109.425454
	   56 B(11,5,19)      =    119.698439     0.000019     0.012969   119.711408
	   57 B(12,6,20)      =    115.174900     0.000072     0.186767   115.361667
	   58 B(12,7,21)      =    115.227270     0.000052     0.148497   115.375767
	   59 D(1,2,10,5)     =     -0.018609     0.000002     0.041353     0.022745
	   60 D(1,2,10,13)    =    179.988267     0.000001     0.007508   179.995775
	   61 D(1,8,9,3)      =    -60.030615     0.000022     0.183084   -59.847531
	   62 D(1,8,9,4)      =    119.940323     0.000026     0.310755   120.251079
	   63 D(1,8,11,5)     =      0.018608     0.000005     0.125116     0.143723
	   64 D(1,8,11,14)    =   -179.996269     0.000000     0.014350  -179.981919
	   65 D(2,1,8,9)      =    179.981897     0.000002     0.077557   180.059454
	   66 D(2,1,8,11)     =     -0.019945    -0.000003    -0.071381    -0.091325
	   67 D(2,10,5,11)    =      0.017261     0.000001     0.010666     0.027927
	   68 D(2,10,5,19)    =   -179.967685     0.000001     0.008445  -179.959240
	   69 D(2,10,13,22)   =    179.982383     0.000000     0.008391   179.990775
	   70 D(3,6,12,7)     =      0.000000    -0.000001    -0.005547    -0.005547
	   71 D(3,9,4,7)      =      0.065977     0.000005     0.110892     0.176869
	   72 D(3,9,4,18)     =   -179.971521     0.000002     0.053893  -179.917628
	   73 D(3,9,8,11)     =    119.971231     0.000027     0.335728   120.306959
	   74 D(4,7,12,6)     =      0.008959    -0.000001    -0.017766    -0.008807
	   75 D(4,9,3,6)      =     -0.057847    -0.000006    -0.132027    -0.189874
	   76 D(4,9,3,17)     =   -179.902141    -0.000009    -0.180706  -180.082847
	   77 D(4,9,8,11)     =    -60.057831     0.000031     0.463399   -59.594431
	   78 D(5,10,2,16)    =    179.917291     0.000004     0.084557   180.001848
	   79 D(5,10,13,22)   =     -0.010740    -0.000001    -0.025850    -0.036590
	   80 D(5,11,8,9)     =   -179.983240     0.000001    -0.023440  -180.006680
	   81 D(6,3,9,8)      =    179.913192    -0.000002    -0.006868   179.906324
	   82 D(6,12,7,21)    =    179.917593     0.000002     0.026525   179.944117
	   83 D(7,4,9,8)      =   -179.905069     0.000001    -0.014296  -179.919365
	   84 D(7,12,6,20)    =    179.881843     0.000006     0.112109   179.993952
	   85 D(8,1,2,10)     =      0.019955    -0.000001    -0.010143     0.009811
	   86 D(8,1,2,16)     =   -179.916358    -0.000003    -0.052870  -179.969228
	   87 D(8,9,3,17)     =      0.068898    -0.000005    -0.055547     0.013351
	   88 D(8,9,4,18)     =      0.057433    -0.000002    -0.071295    -0.013862
	   89 D(8,11,5,10)    =     -0.017270    -0.000005    -0.096177    -0.113447
	   90 D(8,11,5,19)    =    179.967774    -0.000005    -0.093920   179.873853
	   91 D(9,3,6,12)     =      0.024638     0.000004     0.082578     0.107216
	   92 D(9,3,6,20)     =   -179.850775    -0.000003    -0.041483  -179.892258
	   93 D(9,4,7,12)     =     -0.042199    -0.000002    -0.036936    -0.079135
	   94 D(9,4,7,21)     =   -179.946048    -0.000004    -0.083636  -180.029684
	   95 D(9,8,1,15)     =      0.023110    -0.000002     0.006675     0.029786
	   96 D(9,8,11,14)    =      0.001883    -0.000005    -0.134205    -0.132323
	   97 D(10,2,1,15)    =    179.979432     0.000003     0.059879   180.039311
	   98 D(10,5,11,14)   =    179.997392     0.000001     0.013852   180.011244
	   99 D(11,5,10,13)   =   -179.989616     0.000002     0.045268  -179.944347
	  100 D(11,8,1,15)    =   -179.978731    -0.000007    -0.142262  -180.120993
	  101 D(12,6,3,17)    =    179.871634     0.000007     0.129498   180.001131
	  102 D(12,7,4,18)    =    179.994725     0.000002     0.019899   180.014624
	  103 D(13,10,2,16)   =     -0.075833     0.000003     0.050711    -0.025122
	  104 D(13,10,5,19)   =      0.025437     0.000002     0.043047     0.068485
	  105 D(14,11,5,19)   =     -0.017564     0.000001     0.016108    -0.001456
	  106 D(15,1,2,16)    =      0.043120     0.000001     0.017153     0.060272
	  107 D(17,3,6,20)    =     -0.003779     0.000000     0.005436     0.001658
	  108 D(18,4,7,21)    =      0.090877    -0.000001    -0.026801     0.064076
	  109 R(4,14)         =      3.009727     0.010098     0.003071     3.012797
	 ---------------------------------------------------------------------------
	Successfully symmetrized geometry.
	 Forces used to impose fixed constraints are not included.
	  Forces zeroed: 61 

  ==> Convergence Check <==

  Measures of convergence in internal coordinates in au.
  Criteria marked as inactive (o), active & met (*), and active & unmet ( ).
  --------------------------------------------------------------------------------------------- ~
   Step     Total Energy     Delta E     MAX Force     RMS Force      MAX Disp      RMS Disp    ~
  --------------------------------------------------------------------------------------------- ~
    Convergence Criteria    1.00e-06 *    3.00e-04 *             o    1.20e-03 *             o  ~
  --------------------------------------------------------------------------------------------- ~
      1    -652.87055386   -6.53e+02      1.60e-02      4.72e-03 o    2.93e-02      9.58e-03 o  ~
  ---------------------------------------------------------------------------------------------

	Writing optimization data to binary file.
	Structure for next step:
	Cartesian Geometry (in Angstrom)
	    C    -1.3413896649   0.7612197660  -0.7760662310
	    C    -2.4146901009   1.3323575044  -0.1056824127
	    C     0.6411136627  -1.4791536165  -1.6838638726
	    C     2.1306463931   0.0209201874  -0.5787421383
	    C    -1.4112099852   0.7175730584   1.9916771065
	    C     1.7438149284  -2.0132970321  -2.3319617913
	    C     3.1674708017  -0.5794904020  -1.2752767830
	    C    -0.2946103878   0.1636259946  -0.0791262104
	    C     0.8358175500  -0.4363601463  -0.7873500239
	    C    -2.4490916509   1.3099173587   1.2803186782
	    C    -0.3487555083   0.1540495581   1.3069085414
	    N     3.0009137127  -1.5855802156  -2.1463638320
	    O    -3.5100892878   1.8754417857   1.9151256687
	    F     0.6434438873  -0.4130392245   2.0052188743
	    H    -1.3225659874   0.7838626142  -1.8567584593
	    H    -3.2213259450   1.7927795042  -0.6592441568
	    H    -0.3472229639  -1.8704511468  -1.8788256519
	    H     2.3323680695   0.8288217812   0.1098590370
	    H    -1.4258805410   0.6925995719   3.0734915538
	    H     1.6299729879  -2.8251976794  -3.0382589528
	    H     4.1885539044  -0.2490042765  -1.1383314607
	    H    -3.3986393206   1.7854272033   2.8678497311
			--------------------------
			 OPTKING Finished Execution 
			--------------------------

    Structure for next step:
    Molecular point group: c1
    Full point group: C1

    Geometry (in Angstrom), charge = 0, multiplicity = 1:

    C           -1.339460390222     0.759580176245    -0.774281687029
    C           -2.412760826210     1.330717914680    -0.103897868681
    C            0.643042937322    -1.480793206208    -1.682079328592
    C            2.132575667798     0.019280597724    -0.576957594307
    C           -1.409280710584     0.715933468718     1.993461650490
    C            1.745744203046    -2.014936621813    -2.330177247281
    C            3.169400076329    -0.581129991723    -1.273492238995
    C           -0.292681113102     0.161986404882    -0.077341666360
    C            0.837746824637    -0.437999735972    -0.785565479857
    C           -2.447162376277     1.308277768971     1.282103222251
    C           -0.346826233676     0.152409968401     1.308693085385
    N            3.002842987320    -1.587219805289    -2.144579288028
    O           -3.508160013128     1.873802195986     1.916910212707
    F            0.645373162001    -0.414678814171     2.007003418347
    H           -1.320636712725     0.782223024479    -1.854973915274
    H           -3.219396670334     1.791139914488    -0.657459612788
    H           -0.345293689235    -1.872090736492    -1.877041107936
    H            2.334297344131     0.827182191500     0.111643581016
    H           -1.423951266344     0.690959982225     3.075276097782
    H            1.631902262532    -2.826837269169    -3.036474408806
    H            4.190483179062    -0.250643866264    -1.136546916726
    H           -3.396710045903     1.783787613621     2.869634275075

gradient() will perform analytic gradient computation.

*** tstart() called on gpu-1-15.local
*** at Sat Nov 11 23:03:57 2017

    SCF Algorithm Type (re)set to DF.

*** tstart() called on gpu-1-15.local
*** at Sat Nov 11 23:03:57 2017

   => Loading Basis Set <=

    Name: AUG-CC-PVTZ
    Role: ORBITAL
    Keyword: BASIS
    atoms 1-11  entry C          line   221 file /cbio/jclab/home/chayas/anaconda/envs/py35/share/psi4/basis/aug-cc-pvtz.gbs 
    atoms 12    entry N          line   267 file /cbio/jclab/home/chayas/anaconda/envs/py35/share/psi4/basis/aug-cc-pvtz.gbs 
    atoms 13    entry O          line   313 file /cbio/jclab/home/chayas/anaconda/envs/py35/share/psi4/basis/aug-cc-pvtz.gbs 
    atoms 14    entry F          line   359 file /cbio/jclab/home/chayas/anaconda/envs/py35/share/psi4/basis/aug-cc-pvtz.gbs 
    atoms 15-22 entry H          line    34 file /cbio/jclab/home/chayas/anaconda/envs/py35/share/psi4/basis/aug-cc-pvtz.gbs 


         ---------------------------------------------------------
                                   SCF
            by Justin Turney, Rob Parrish, and Andy Simmonett
                              RHF Reference
                        8 Threads,   4768 MiB Core
         ---------------------------------------------------------

  ==> Geometry <==

    Molecular point group: c1
    Full point group: C1

    Geometry (in Angstrom), charge = 0, multiplicity = 1:

       Center              X                  Y                   Z               Mass       
    ------------   -----------------  -----------------  -----------------  -----------------
           C         -1.339460390222     0.759580176245    -0.774281687029    12.000000000000
           C         -2.412760826210     1.330717914680    -0.103897868681    12.000000000000
           C          0.643042937322    -1.480793206208    -1.682079328592    12.000000000000
           C          2.132575667798     0.019280597724    -0.576957594307    12.000000000000
           C         -1.409280710584     0.715933468718     1.993461650490    12.000000000000
           C          1.745744203046    -2.014936621813    -2.330177247281    12.000000000000
           C          3.169400076329    -0.581129991723    -1.273492238995    12.000000000000
           C         -0.292681113102     0.161986404882    -0.077341666360    12.000000000000
           C          0.837746824637    -0.437999735972    -0.785565479857    12.000000000000
           C         -2.447162376277     1.308277768971     1.282103222251    12.000000000000
           C         -0.346826233676     0.152409968401     1.308693085385    12.000000000000
           N          3.002842987320    -1.587219805289    -2.144579288028    14.003074004780
           O         -3.508160013128     1.873802195986     1.916910212707    15.994914619560
           F          0.645373162001    -0.414678814171     2.007003418347    18.998403224000
           H         -1.320636712725     0.782223024479    -1.854973915274     1.007825032070
           H         -3.219396670334     1.791139914488    -0.657459612788     1.007825032070
           H         -0.345293689235    -1.872090736492    -1.877041107936     1.007825032070
           H          2.334297344131     0.827182191500     0.111643581016     1.007825032070
           H         -1.423951266344     0.690959982225     3.075276097782     1.007825032070
           H          1.631902262532    -2.826837269169    -3.036474408806     1.007825032070
           H          4.190483179062    -0.250643866264    -1.136546916726     1.007825032070
           H         -3.396710045903     1.783787613621     2.869634275075     1.007825032070

  Running in c1 symmetry.

  Rotational constants: A =      0.06437  B =      0.01296  C =      0.01157 [cm^-1]
  Rotational constants: A =   1929.66042  B =    388.43932  C =    346.90754 [MHz]
  Nuclear repulsion =  814.639791206042105

  Charge       = 0
  Multiplicity = 1
  Electrons    = 98
  Nalpha       = 49
  Nbeta        = 49

  ==> Algorithm <==

  SCF Algorithm Type is DF.
  DIIS enabled.
  MOM disabled.
  Fractional occupation disabled.
  Guess Type is READ.
  Energy threshold   = 1.00e-10
  Density threshold  = 1.00e-10
  Integral threshold = 0.00e+00

  ==> Primary Basis <==

  Basis Set: AUG-CC-PVTZ
    Blend: AUG-CC-PVTZ
    Number of shells: 268
    Number of basis function: 828
    Number of Cartesian functions: 970
    Spherical Harmonics?: true
    Max angular momentum: 3

   => Loading Basis Set <=

    Name: (AUG-CC-PVTZ AUX)
    Role: JKFIT
    Keyword: DF_BASIS_SCF
    atoms 1-11  entry C          line   161 file /cbio/jclab/home/chayas/anaconda/envs/py35/share/psi4/basis/aug-cc-pvtz-jkfit.gbs 
    atoms 12    entry N          line   223 file /cbio/jclab/home/chayas/anaconda/envs/py35/share/psi4/basis/aug-cc-pvtz-jkfit.gbs 
    atoms 13    entry O          line   285 file /cbio/jclab/home/chayas/anaconda/envs/py35/share/psi4/basis/aug-cc-pvtz-jkfit.gbs 
    atoms 14    entry F          line   347 file /cbio/jclab/home/chayas/anaconda/envs/py35/share/psi4/basis/aug-cc-pvtz-jkfit.gbs 
    atoms 15-22 entry H          line    69 file /cbio/jclab/home/chayas/anaconda/envs/py35/share/psi4/basis/aug-cc-pvtz-jkfit.gbs 

  Reading orbitals from file 180, no projection.

  ==> Pre-Iterations <==

   -------------------------------------------------------
    Irrep   Nso     Nmo     Nalpha   Nbeta   Ndocc  Nsocc
   -------------------------------------------------------
     A        828     828       0       0       0       0
   -------------------------------------------------------
    Total     828     828      49      49      49       0
   -------------------------------------------------------

  ==> Integral Setup <==

  ==> DFJK: Density-Fitted J/K Matrices <==

    J tasked:                  Yes
    K tasked:                  Yes
    wK tasked:                  No
    OpenMP threads:              8
    Integrals threads:           8
    Memory (MB):              3576
    Algorithm:                Disk
    Integral Cache:           NONE
    Schwarz Cutoff:          1E-12
    Fitting Condition:       1E-12

   => Auxiliary Basis Set <=

  Basis Set: (AUG-CC-PVTZ AUX)
    Blend: AUG-CC-PVTZ-JKFIT
    Number of shells: 532
    Number of basis function: 1824
    Number of Cartesian functions: 2274
    Spherical Harmonics?: true
    Max angular momentum: 4

  Minimum eigenvalue in the overlap matrix is 6.9736247979E-07.
  Using Symmetric Orthogonalization.

  SCF Guess: Orbitals guess was supplied from a previous computation.

  ==> Iterations <==

                           Total Energy        Delta E     RMS |[F,P]|

   @DF-RHF iter   0:  -650.23703742589089   -6.50237e+02   4.83895e-04 
   @DF-RHF iter   1:  -650.17940899575422    5.76284e-02   8.19372e-05 
   @DF-RHF iter   2:  -650.17969445740925   -2.85462e-04   4.18769e-05 DIIS
   @DF-RHF iter   3:  -650.17984954456074   -1.55087e-04   1.03520e-05 DIIS
   @DF-RHF iter   4:  -650.17985558857265   -6.04401e-06   3.39981e-06 DIIS
   @DF-RHF iter   5:  -650.17985736112473   -1.77255e-06   1.28364e-06 DIIS
   @DF-RHF iter   6:  -650.17985773157591   -3.70451e-07   7.52439e-07 DIIS
   @DF-RHF iter   7:  -650.17985786543068   -1.33855e-07   2.39881e-07 DIIS
   @DF-RHF iter   8:  -650.17985790083901   -3.54083e-08   9.20492e-08 DIIS
   @DF-RHF iter   9:  -650.17985790385046   -3.01145e-09   3.36861e-08 DIIS
   @DF-RHF iter  10:  -650.17985790413331   -2.82853e-10   9.05262e-09 DIIS
   @DF-RHF iter  11:  -650.17985790414082   -7.50333e-12   2.80122e-09 DIIS
   @DF-RHF iter  12:  -650.17985790415707   -1.62572e-11   1.65654e-09 DIIS
   @DF-RHF iter  13:  -650.17985790414548    1.15961e-11   6.40609e-10 DIIS
   @DF-RHF iter  14:  -650.17985790415639   -1.09139e-11   2.58628e-10 DIIS
   @DF-RHF iter  15:  -650.17985790414787    8.52651e-12   1.48454e-10 DIIS
   @DF-RHF iter  16:  -650.17985790414912   -1.25056e-12   5.28087e-11 DIIS

  ==> Post-Iterations <==

    Orbital Energies (a.u.)
    -----------------------

    Doubly Occupied:                                                      

       1A    -26.325319     2A    -20.609510     3A    -15.563670  
       4A    -11.346835     5A    -11.325989     6A    -11.273121  
       7A    -11.272334     8A    -11.266613     9A    -11.263026  
      10A    -11.252599    11A    -11.251781    12A    -11.242100  
      13A    -11.238831    14A    -11.237468    15A     -1.645341  
      16A     -1.427232    17A     -1.256327    18A     -1.184132  
      19A     -1.111445    20A     -1.043154    21A     -1.034566  
      22A     -1.022902    23A     -0.892771    24A     -0.877113  
      25A     -0.856374    26A     -0.826719    27A     -0.774195  
      28A     -0.748808    29A     -0.725768    30A     -0.711551  
      31A     -0.696756    32A     -0.665848    33A     -0.661852  
      34A     -0.642873    35A     -0.636710    36A     -0.615541  
      37A     -0.610412    38A     -0.597905    39A     -0.580026  
      40A     -0.545779    41A     -0.537671    42A     -0.534092  
      43A     -0.522288    44A     -0.496592    45A     -0.419077  
      46A     -0.389485    47A     -0.360983    48A     -0.348351  
      49A     -0.326289  

    Virtual:                                                              

      50A      0.021871    51A      0.029318    52A      0.034434  
      53A      0.036835    54A      0.044529    55A      0.047267  
      56A      0.052972    57A      0.054596    58A      0.076559  
      59A      0.082853    60A      0.083167    61A      0.085899  
      62A      0.093393    63A      0.095580    64A      0.097301  
      65A      0.101258    66A      0.104401    67A      0.108535  
      68A      0.110204    69A      0.113130    70A      0.113328  
      71A      0.118681    72A      0.120840    73A      0.125233  
      74A      0.129465    75A      0.131726    76A      0.133848  
      77A      0.135434    78A      0.140747    79A      0.143617  
      80A      0.147514    81A      0.151748    82A      0.153863  
      83A      0.155573    84A      0.156255    85A      0.166829  
      86A      0.171389    87A      0.173240    88A      0.182715  
      89A      0.185761    90A      0.193905    91A      0.200859  
      92A      0.207941    93A      0.213545    94A      0.216290  
      95A      0.225048    96A      0.228435    97A      0.235627  
      98A      0.236316    99A      0.239896   100A      0.241500  
     101A      0.244283   102A      0.248745   103A      0.253429  
     104A      0.257216   105A      0.260971   106A      0.264479  
     107A      0.266726   108A      0.269551   109A      0.272624  
     110A      0.278805   111A      0.282065   112A      0.285700  
     113A      0.291126   114A      0.294733   115A      0.300753  
     116A      0.301918   117A      0.310789   118A      0.314126  
     119A      0.318432   120A      0.319205   121A      0.323070  
     122A      0.327116   123A      0.329714   124A      0.331713  
     125A      0.336278   126A      0.344917   127A      0.347964  
     128A      0.350734   129A      0.354619   130A      0.360533  
     131A      0.369463   132A      0.376098   133A      0.382590  
     134A      0.386816   135A      0.390168   136A      0.396066  
     137A      0.401366   138A      0.404118   139A      0.406807  
     140A      0.414836   141A      0.415588   142A      0.420425  
     143A      0.425156   144A      0.428579   145A      0.430622  
     146A      0.436982   147A      0.443113   148A      0.445974  
     149A      0.447772   150A      0.451662   151A      0.458965  
     152A      0.463608   153A      0.467346   154A      0.469683  
     155A      0.474700   156A      0.477551   157A      0.480882  
     158A      0.485676   159A      0.486379   160A      0.488288  
     161A      0.494059   162A      0.498368   163A      0.498811  
     164A      0.502024   165A      0.509859   166A      0.511350  
     167A      0.513013   168A      0.513862   169A      0.522918  
     170A      0.523314   171A      0.525442   172A      0.530744  
     173A      0.536147   174A      0.540116   175A      0.544763  
     176A      0.547591   177A      0.550603   178A      0.556228  
     179A      0.559103   180A      0.562126   181A      0.573772  
     182A      0.576612   183A      0.580766   184A      0.584996  
     185A      0.591890   186A      0.593141   187A      0.603715  
     188A      0.613316   189A      0.621026   190A      0.626237  
     191A      0.627701   192A      0.637172   193A      0.641643  
     194A      0.643603   195A      0.649436   196A      0.657502  
     197A      0.660005   198A      0.673535   199A      0.679848  
     200A      0.683632   201A      0.695394   202A      0.696751  
     203A      0.702922   204A      0.707067   205A      0.709805  
     206A      0.718634   207A      0.720843   208A      0.725875  
     209A      0.733698   210A      0.738071   211A      0.738431  
     212A      0.740231   213A      0.748408   214A      0.756631  
     215A      0.765199   216A      0.767738   217A      0.776218  
     218A      0.780512   219A      0.789275   220A      0.791479  
     221A      0.801144   222A      0.803323   223A      0.811631  
     224A      0.822482   225A      0.823692   226A      0.830252  
     227A      0.830749   228A      0.839530   229A      0.851976  
     230A      0.854332   231A      0.856313   232A      0.862238  
     233A      0.864762   234A      0.871893   235A      0.873848  
     236A      0.880970   237A      0.887221   238A      0.888036  
     239A      0.893640   240A      0.899028   241A      0.904637  
     242A      0.908747   243A      0.912399   244A      0.923454  
     245A      0.928194   246A      0.931747   247A      0.933234  
     248A      0.935064   249A      0.941707   250A      0.945580  
     251A      0.948371   252A      0.957415   253A      0.960256  
     254A      0.964069   255A      0.965928   256A      0.970247  
     257A      0.973668   258A      0.985973   259A      0.988576  
     260A      0.991839   261A      0.997988   262A      1.002867  
     263A      1.007916   264A      1.010245   265A      1.019798  
     266A      1.022656   267A      1.025123   268A      1.027008  
     269A      1.032123   270A      1.037773   271A      1.044287  
     272A      1.048058   273A      1.051001   274A      1.053343  
     275A      1.061438   276A      1.064697   277A      1.072743  
     278A      1.072872   279A      1.080119   280A      1.083309  
     281A      1.087048   282A      1.093769   283A      1.098149  
     284A      1.103963   285A      1.108853   286A      1.112644  
     287A      1.118868   288A      1.126448   289A      1.128288  
     290A      1.130688   291A      1.134505   292A      1.144631  
[...]
	 B(1,2,16)        =         2.116227	     121.250862
	 B(1,8,9)         =         2.120092	     121.472309
	 B(1,8,11)        =         2.034067	     116.543433
	 B(2,1,8)         =         2.129124	     121.989809
	 B(2,1,15)        =         2.088034	     119.635534
	 B(2,10,5)        =         2.093417	     119.943933
	 B(2,10,13)       =         2.049988	     117.455669
	 B(3,6,12)        =         2.156790	     123.574955
	 B(3,6,20)        =         2.097166	     120.158779
	 B(3,9,4)         =         2.047873	     117.334468
	 B(3,9,8)         =         2.110399	     120.916948
	 B(4,7,12)        =         2.158850	     123.693001
	 B(4,7,21)        =         2.096316	     120.110070
	 B(4,9,8)         =         2.124670	     121.734597
	 B(5,10,13)       =         2.139778	     122.600231
	 B(5,11,8)        =         2.147366	     123.035009
	 B(5,11,14)       =         2.055616	     117.778097
	 B(6,3,9)         =         2.082423	     119.314036
	 B(6,3,17)        =         2.101637	     120.414952
	 B(6,12,7)        =         2.039545	     116.857295
	 B(7,4,9)         =         2.080665	     119.213308
	 B(7,4,18)        =         2.101222	     120.391177
	 B(8,1,15)        =         2.066009	     118.373572
	 B(8,11,14)       =         2.080078	     119.179664
	 B(9,3,17)        =         2.099122	     120.270856
	 B(9,4,18)        =         2.101278	     120.394389
	 B(9,8,11)        =         2.128101	     121.931178
	 B(10,2,16)       =         2.080102	     119.181092
	 B(10,5,11)       =         2.075385	     118.910778
	 B(10,5,19)       =         2.127266	     121.883341
	 B(10,13,22)      =         1.907170	     109.272799
	 B(11,5,19)       =         2.080533	     119.205732
	 B(12,6,20)       =         2.029189	     116.263979
	 B(12,7,21)       =         2.028017	     116.196809
	 D(1,2,10,5)      =         0.003247	       0.186057
	 D(1,2,10,13)     =        -3.140878	    -179.959078
	 D(1,8,9,3)       =        -1.041770	     -59.689020
	 D(1,8,9,4)       =         2.124204	     121.707898
	 D(1,8,11,5)      =         0.022539	       1.291374
	 D(1,8,11,14)     =        -3.136520	    -179.709346
	 D(2,1,8,9)       =        -3.114542	    -178.450084
	 D(2,1,8,11)      =        -0.018344	      -1.051007
	 D(2,10,5,11)     =         0.000529	       0.030314
	 D(2,10,5,19)     =        -3.138598	    -179.828391
	 D(2,10,13,22)    =        -3.140109	    -179.914999
	 D(3,6,12,7)      =         0.000901	       0.051602
	 D(3,9,4,7)       =         0.020123	       1.152938
	 D(3,9,4,18)      =        -3.128182	    -179.231606
	 D(3,9,8,11)      =         2.147675	     123.052712
	 D(4,7,12,6)      =        -0.004470	      -0.256122
	 D(4,9,3,6)       =        -0.023406	      -1.341065
	 D(4,9,3,17)      =         3.115696	     178.516237
	 D(4,9,8,11)      =        -0.969537	     -55.550371
	 D(5,10,2,16)     =        -3.128980	    -179.277355
	 D(5,10,13,22)    =        -0.001122	      -0.064279
	 D(5,11,8,9)      =         3.118511	     178.677545
	 D(6,3,9,8)       =         3.141529	     179.996326
	 D(6,12,7,21)     =         3.139329	     179.870305
	 D(7,4,9,8)       =         3.138170	     179.803878
	 D(7,12,6,20)     =        -3.131080	    -179.397659
	 D(8,1,2,10)      =         0.006074	       0.348018
	 D(8,1,2,16)      =         3.138102	     179.800019
	 D(8,9,3,17)      =        -0.002555	      -0.146372
	 D(8,9,4,18)      =        -0.010135	      -0.580666
	 D(8,11,5,10)     =        -0.014079	      -0.806676
	 D(8,11,5,19)     =         3.125115	     179.055872
	 D(9,3,6,12)      =         0.013440	       0.770057
	 D(9,3,6,20)      =        -3.138122	    -179.801146
	 D(9,4,7,12)      =        -0.006394	      -0.366356
	 D(9,4,7,21)      =         3.132910	     179.502509
	 D(9,8,1,15)      =         0.020411	       1.169478
	 D(9,8,11,14)     =        -0.040547	      -2.323176
	 D(10,2,1,15)     =        -3.128797	    -179.266870
	 D(10,5,11,14)    =        -3.138436	    -179.819150
	 D(11,5,10,13)    =        -3.138395	    -179.816813
	 D(11,8,1,15)     =         3.116609	     178.568555
	 D(12,6,3,17)     =        -3.125658	    -179.087034
	 D(12,7,4,18)     =        -3.141275	    -179.981824
	 D(13,10,2,16)    =         0.010079	       0.577510
	 D(13,10,5,19)    =         0.005663	       0.324482
	 D(14,11,5,19)    =         0.000757	       0.043399
	 D(15,1,2,16)     =         0.003231	       0.185132
	 D(17,3,6,20)     =         0.005965	       0.341762
	 D(18,4,7,21)     =        -0.001972	      -0.112959
	 R(4,14)          =         5.692829	       3.012515

	Current energy   :      -652.8746350355

	Energy change for the previous step:
		Projected    :        -0.0000025595
		Actual       :         0.0000002401

	Performing BFGS update.
	Previous computed or guess Hessian on step 1.
	Steps to be used in Hessian update: 6 5
	Adding user-defined constraint: Fragment 1; Coordinate 61:
		Value =    -1.041770; Fixed value    =    -1.047200
		Force =    -0.003530; Force constant =     0.650000
	Removing off-diagonal coupling between coordinate 61 and others.
	Taking RFO optimization step.
	Going to follow RFO solution 1.
	Rejecting RFO root 1 because normalization gives large value.
	Using RFO vector 2.
	Norm of target step-size    0.00359
	Projected energy change by RFO approximation:         0.0000000910

	Back-transformation to cartesian coordinates...
	Could not converge backtransformation.
	Using first guess instead.

	--- Internal Coordinate Step in ANG or DEG, aJ/ANG or AJ/DEG ---
	 ---------------------------------------------------------------------------
	   Coordinate                Previous        Force       Change         New 
	   ----------                --------       ------       ------       ------
	    1 R(1,2)          =      1.382888    -0.000207    -0.000051     1.382837
	    2 R(1,8)          =      1.394355     0.000197     0.000079     1.394434
	    3 R(1,15)         =      1.079902    -0.000125    -0.000022     1.079880
	    4 R(2,10)         =      1.387849     0.000050     0.000029     1.387879
	    5 R(2,16)         =      1.077999    -0.000015     0.000006     1.078004
	    6 R(3,6)          =      1.386471    -0.000305    -0.000052     1.386419
	    7 R(3,9)          =      1.389955     0.000141     0.000031     1.389985
	    8 R(3,17)         =      1.079784    -0.000086    -0.000014     1.079771
	    9 R(4,7)          =      1.385735    -0.000227    -0.000032     1.385703
	   10 R(4,9)          =      1.390029     0.000012    -0.000003     1.390026
	   11 R(4,18)         =      1.079108    -0.000149    -0.000028     1.079080
	   12 R(5,10)         =      1.387371    -0.000248    -0.000052     1.387319
	   13 R(5,11)         =      1.379742    -0.000017     0.000014     1.379756
	   14 R(5,19)         =      1.079340     0.000045     0.000010     1.079350
	   15 R(6,12)         =      1.334523     0.000373     0.000063     1.334586
	   16 R(6,20)         =      1.081014     0.000023     0.000005     1.081019
	   17 R(7,12)         =      1.335430     0.000171     0.000027     1.335457
	   18 R(7,21)         =      1.080886     0.000067     0.000015     1.080901
	   19 R(8,9)          =      1.463392    -0.000010    -0.000035     1.463357
	   20 R(8,11)         =      1.385816    -0.000592    -0.000126     1.385691
	   21 R(10,13)        =      1.360120    -0.000111    -0.000028     1.360092
	   22 R(11,14)        =      1.345845     0.000151     0.000066     1.345911
	   23 R(13,22)        =      0.961938    -0.000102    -0.000011     0.961927
	   24 B(1,2,10)       =    119.565815     0.000001     0.006469   119.572284
	   25 B(1,2,16)       =    121.250862    -0.000000    -0.000554   121.250307
	   26 B(1,8,9)        =    121.472309    -0.000002    -0.014173   121.458136
	   27 B(1,8,11)       =    116.543433     0.000000    -0.002529   116.540904
	   28 B(2,1,8)        =    121.989809    -0.000001    -0.004758   121.985052
	   29 B(2,1,15)       =    119.635534     0.000000     0.002075   119.637609
	   30 B(2,10,5)       =    119.943933    -0.000001    -0.005217   119.938715
	   31 B(2,10,13)      =    117.455669     0.000001     0.002564   117.458233
	   32 B(3,6,12)       =    123.574955    -0.000001    -0.001851   123.573103
	   33 B(3,6,20)       =    120.158779     0.000001     0.005192   120.163971
	   34 B(3,9,4)        =    117.334468     0.000001     0.002865   117.337333
	   35 B(3,9,8)        =    120.916948    -0.000000    -0.001572   120.915376
	   36 B(4,7,12)       =    123.693001    -0.000001    -0.001271   123.691731
	   37 B(4,7,21)       =    120.110070     0.000001     0.002934   120.113004
	   38 B(4,9,8)        =    121.734597    -0.000001    -0.002177   121.732419
	   39 B(5,10,13)      =    122.600231     0.000000     0.002674   122.602905
	   40 B(5,11,8)       =    123.035009     0.000001     0.006576   123.041585
	   41 B(5,11,14)      =    117.778097    -0.000000    -0.005028   117.773070
	   42 B(6,3,9)        =    119.314036    -0.000000    -0.000733   119.313303
	   43 B(6,3,17)       =    120.414952    -0.000001    -0.004200   120.410752
	   44 B(6,12,7)       =    116.857295     0.000001     0.001747   116.859043
	   45 B(7,4,9)        =    119.213308    -0.000000    -0.000840   119.212468
	   46 B(7,4,18)       =    120.391177    -0.000001    -0.007307   120.383870
	   47 B(8,1,15)       =    118.373572     0.000001     0.002731   118.376303
	   48 B(8,11,14)      =    119.179664    -0.000001    -0.001735   119.177928
	   49 B(9,3,17)       =    120.270856     0.000001     0.004939   120.275795
	   50 B(9,4,18)       =    120.394389     0.000001     0.008104   120.402493
	   51 B(9,8,11)       =    121.931178     0.000002     0.015266   121.946445
	   52 B(10,2,16)      =    119.181092    -0.000001    -0.005806   119.175286
	   53 B(10,5,11)      =    118.910778     0.000000    -0.000830   118.909948
	   54 B(10,5,19)      =    121.883341     0.000001     0.010210   121.893551
	   55 B(10,13,22)     =    109.272799     0.000001     0.006628   109.279428
	   56 B(11,5,19)      =    119.205732    -0.000001    -0.009363   119.196369
	   57 B(12,6,20)      =    116.263979     0.000000    -0.002762   116.261217
	   58 B(12,7,21)      =    116.196809     0.000000    -0.001562   116.195247
	   59 D(1,2,10,5)     =      0.186057    -0.000000     0.005026     0.191083
	   60 D(1,2,10,13)    =   -179.959078     0.000000     0.014200  -179.944878
	   61 D(1,8,9,3)      =    -59.689020    -0.000000    -0.011537   -59.700557
	   62 D(1,8,9,4)      =    121.707898    -0.000000     0.031927   121.739825
	   63 D(1,8,11,5)     =      1.291374     0.000000     0.018438     1.309813
	   64 D(1,8,11,14)    =   -179.709346     0.000000     0.005502  -179.703844
	   65 D(2,1,8,9)      =   -178.450084     0.000000     0.027086  -178.422998
	   66 D(2,1,8,11)     =     -1.051007     0.000000    -0.007413    -1.058420
	   67 D(2,10,5,11)    =      0.030314     0.000000     0.005187     0.035501
	   68 D(2,10,5,19)    =   -179.828391     0.000000    -0.002520  -179.830910
	   69 D(2,10,13,22)   =   -179.914999    -0.000000     0.002791  -179.912208
	   70 D(3,6,12,7)     =      0.051602     0.000000     0.026846     0.078448
	   71 D(3,9,4,7)      =      1.152938     0.000000     0.031259     1.184197
	   72 D(3,9,4,18)     =   -179.231606     0.000000     0.023966  -179.207640
	   73 D(3,9,8,11)     =    123.052712    -0.000000     0.025356   123.078067
	   74 D(4,7,12,6)     =     -0.256122     0.000000     0.015825    -0.240297
	   75 D(4,9,3,6)      =     -1.341065     0.000000     0.007746    -1.333319
	   76 D(4,9,3,17)     =    178.516237     0.000000     0.010185   178.526422
	   77 D(4,9,8,11)     =    -55.550371    -0.000000     0.068820   -55.481551
	   78 D(5,10,2,16)    =   -179.277355    -0.000000    -0.008285  -179.285640
	   79 D(5,10,13,22)   =     -0.064279     0.000000     0.012215    -0.052064
	   80 D(5,11,8,9)     =    178.677545    -0.000000    -0.017074   178.660471
	   81 D(6,3,9,8)      =    179.996326     0.000000     0.049426   180.045752
	   82 D(6,12,7,21)    =    179.870305    -0.000001    -0.061537   179.808768
	   83 D(7,4,9,8)      =    179.803878     0.000000    -0.010775   179.793103
	   84 D(7,12,6,20)    =   -179.397659    -0.000001    -0.047923  -179.445583
	   85 D(8,1,2,10)     =      0.348018    -0.000000    -0.003853     0.344164
	   86 D(8,1,2,16)     =    179.800019     0.000000     0.009714   179.809733
	   87 D(8,9,3,17)     =     -0.146372     0.000000     0.051865    -0.094507
	   88 D(8,9,4,18)     =     -0.580666     0.000000    -0.018067    -0.598734
	   89 D(8,11,5,10)    =     -0.806676    -0.000000    -0.017609    -0.824285
	   90 D(8,11,5,19)    =    179.055872    -0.000000    -0.010085   179.045787
	   91 D(9,3,6,12)     =      0.770057    -0.000000    -0.038885     0.731172
	   92 D(9,3,6,20)     =   -179.801146     0.000000     0.038625  -179.762521
	   93 D(9,4,7,12)     =     -0.366356    -0.000000    -0.045301    -0.411657
	   94 D(9,4,7,21)     =    179.502509     0.000000     0.034940   179.537449
	   95 D(9,8,1,15)     =      1.169478     0.000000     0.035646     1.205124
	   96 D(9,8,11,14)    =     -2.323176    -0.000000    -0.030010    -2.353186
	   97 D(10,2,1,15)    =   -179.266870    -0.000000    -0.012521  -179.279390
	   98 D(10,5,11,14)   =   -179.819150    -0.000000    -0.004872  -179.824022
	   99 D(11,5,10,13)   =   -179.816813    -0.000000    -0.004475  -179.821288
	  100 D(11,8,1,15)    =    178.568555     0.000000     0.001147   178.569702
	  101 D(12,6,3,17)    =   -179.087034    -0.000000    -0.041342  -179.128376
	  102 D(12,7,4,18)    =   -179.981824    -0.000000    -0.038071  -180.019895
	  103 D(13,10,2,16)   =      0.577510     0.000000     0.000889     0.578399
	  104 D(13,10,5,19)   =      0.324482    -0.000000    -0.012181     0.312301
	  105 D(14,11,5,19)   =      0.043399    -0.000000     0.002651     0.046050
	  106 D(15,1,2,16)    =      0.185132     0.000000     0.001047     0.186178
	  107 D(17,3,6,20)    =      0.341762     0.000000     0.036168     0.377931
	  108 D(18,4,7,21)    =     -0.112959     0.000000     0.042170    -0.070789
	  109 R(4,14)         =      3.012515    -0.000047    -0.000449     3.012066
	 ---------------------------------------------------------------------------
	Successfully symmetrized geometry.
	 Forces used to impose fixed constraints are not included.
	  Forces zeroed: 61 

  ==> Convergence Check <==

  Measures of convergence in internal coordinates in au.
  Criteria marked as inactive (o), active & met (*), and active & unmet ( ).
  ---------------------------------------------------------------------------------------------
   Step     Total Energy     Delta E     MAX Force     RMS Force      MAX Disp      RMS Disp   
  ---------------------------------------------------------------------------------------------
    Convergence Criteria    1.00e-06 *    3.00e-04 *             o    1.20e-03 *             o
  ---------------------------------------------------------------------------------------------
      7    -652.87463504    2.40e-07 *    7.19e-05 *    1.61e-05 o    1.20e-03      3.44e-04 o  ~
  ---------------------------------------------------------------------------------------------


  **** Optimization is complete! (in 7 steps) ****

  ==> Optimization Summary <==

  Measures of convergence in internal coordinates in au.
  --------------------------------------------------------------------------------------------------------------- ~
   Step         Total Energy             Delta E       MAX Force       RMS Force        MAX Disp        RMS Disp  ~
  --------------------------------------------------------------------------------------------------------------- ~
      1    -652.870553861810   -652.870553861810      0.01598628      0.00471913      0.02931889      0.00958224  ~
      2    -652.873789731061     -0.003235869251      0.00537863      0.00169527      0.03557881      0.00959769  ~
      3    -652.874573650335     -0.000783919273      0.00218582      0.00037795      0.02491160      0.00461666  ~
      4    -652.874630715501     -0.000057065166      0.00071522      0.00014166      0.01125159      0.00219466  ~
      5    -652.874642422799     -0.000011707298      0.00023929      0.00005305      0.00319914      0.00099879  ~
      6    -652.874635275558      0.000007147241      0.00010257      0.00002744      0.00227157      0.00063612  ~
      7    -652.874635035477      0.000000240081      0.00007191      0.00001623      0.00120114      0.00034432  ~
  --------------------------------------------------------------------------------------------------------------- ~

	Writing optimization data to binary file.
	Final energy is   -652.8746350354769
	Final (previous) structure:
	Cartesian Geometry (in Angstrom)
	    C    -1.3590017980   0.7321701517  -0.7578329793
	    C    -2.4248594523   1.3105428022  -0.0931442336
	    C     0.6592733369  -1.4771320918  -1.7025017695
	    C     2.1402491790  -0.0091070222  -0.5666643326
	    C    -1.4052071030   0.7331701499   2.0044907878
	    C     1.7614332077  -2.0011723806  -2.3604741147
	    C     3.1799745975  -0.5971755468  -1.2690940686
	    C    -0.2994298061   0.1350015231  -0.0759800860
	    C     0.8390873644  -0.4441515681  -0.7900367735
	    C    -2.4487282598   1.3091689373   1.2944991280
	    C    -0.3559088244   0.1693241451   1.3082595130
	    N     3.0111069227  -1.5784840773  -2.1589757469
	    O    -3.5176480560   1.8888168523   1.9038793669
	    F     0.6423181536  -0.3863040296   2.0196793956
	    H    -1.3334648250   0.7431150132  -1.8373773064
	    H    -3.2363698453   1.7718618821  -0.6323257592
	    H    -0.3287951726  -1.8681092982  -1.8943133326
	    H     2.3377340570   0.7814833239   0.1407534910
	    H    -1.3930021183   0.7122103738   3.0835578476
	    H     1.6369028834  -2.8025528062  -3.0752278989
	    H     4.1964562662  -0.2645983319  -1.1126617994
	    H    -3.4133399372   1.8232291993   2.8578930989
	Saving final (previous) structure.
			--------------------------
			 OPTKING Finished Execution 
			--------------------------

    Final optimized geometry and variables:
    Molecular point group: c1
    Full point group: C1

    Geometry (in Angstrom), charge = 0, multiplicity = 1:

    C           -1.359001797956     0.732170151682    -0.757832979337
    C           -2.424859452336     1.310542802232    -0.093144233639
    C            0.659273336872    -1.477132091822    -1.702501769534
    C            2.140249178954    -0.009107022180    -0.566664332566
    C           -1.405207102961     0.733170149942     2.004490787822
    C            1.761433207652    -2.001172380556    -2.360474114719
    C            3.179974597494    -0.597175546752    -1.269094068644
    C           -0.299429806097     0.135001523087    -0.075980086016
    C            0.839087364440    -0.444151568100    -0.790036773503
    C           -2.448728259793     1.309168937311     1.294499127986
    C           -0.355908824376     0.169324145079     1.308259513037
    N            3.011106922698    -1.578484077315    -2.158975746851
    O           -3.517648055968     1.888816852338     1.903879366899
    F            0.642318153642    -0.386304029622     2.019679395616
    H           -1.333464824966     0.743115013151    -1.837377306353
    H           -3.236369845321     1.771861882148    -0.632325759186
    H           -0.328795172578    -1.868109298241    -1.894313332590
    H            2.337734057028     0.781483323874     0.140753490983
    H           -1.393002118277     0.712210373776     3.083557847647
    H            1.636902883408    -2.802552806201    -3.075227898910
    H            4.196456266238    -0.264598331866    -1.112661799400
    H           -3.413339937248     1.823229199273     2.857893098941

	Cleaning optimization helper files.

*** Psi4 exiting successfully. Buy a developer a beer!
