
    -----------------------------------------------------------------------
          Psi4: An Open-Source Ab Initio Electronic Structure Package
                               Psi4 1.1 release

                         Git: Rev {HEAD} add49b9 


    R. M. Parrish, L. A. Burns, D. G. A. Smith, A. C. Simmonett,
    A. E. DePrince III, E. G. Hohenstein, U. Bozkaya, A. Yu. Sokolov,
    R. Di Remigio, R. M. Richard, J. F. Gonthier, A. M. James,
    H. R. McAlexander, A. Kumar, M. Saitow, X. Wang, B. P. Pritchard,
    P. Verma, H. F. Schaefer III, K. Patkowski, R. A. King, E. F. Valeev,
    F. A. Evangelista, J. M. Turney, T. D. Crawford, and C. D. Sherrill,
    J. Chem. Theory Comput. in press (2017).
    (doi: 10.1021/acs.jctc.7b00174)

    -----------------------------------------------------------------------


    Psi4 started on: Sunday, 12 November 2017 04:52PM

    Process ID:    505
    PSIDATADIR: /cbio/jclab/home/chayas/anaconda/envs/py35/share/psi4
    Memory:     500.0 MiB
    Threads:    8
    
  ==> Input File <==

--------------------------------------------------------------------------

memory 5 Gb

molecule phepyrOH_zwitterion {
  symmetry C1
  0 1 
  C      1.885   -1.036   -0.112
  C      2.878   -1.652   2.002
  C      0.807   -0.463   0.561
  C      1.800   -1.079   2.676
  C      5.160   -1.458   -0.393
  C      3.997   -3.567   -0.461
  C      6.218   -2.055   -1.063
  C      5.085   -4.110   -1.130
  C      2.921   -1.631   0.608
  C      4.040   -2.226   -0.090
  C      0.764   -0.484   1.955
  N      6.151   -3.348   -1.408
  O      -0.227   0.042   2.574
  H      1.904   -1.011   -1.199
  H      3.678   -2.112   2.577
  H      0.011   -0.006   -0.025
  H      1.791   -1.108   3.764
  H      5.221   -0.410   -0.115
  H      3.136   -4.189   -0.238
  H      7.127   -1.536   -1.338
  H      5.139   -5.140   -1.455
  H      6.939   -3.766   -1.902
  units Angstrom
}

dih_string = "1 9 10 5 90"
set optking fixed_dihedral = $dih_string

optimize('MP2/aug-cc-PVTZ')
--------------------------------------------------------------------------

  Memory set to   4.657 GiB by Python driver.
gradient() will perform analytic gradient computation.

*** tstart() called on gpu-1-7.local
*** at Sun Nov 12 16:52:05 2017

    SCF Algorithm Type (re)set to DF.

*** tstart() called on gpu-1-7.local
*** at Sun Nov 12 16:52:05 2017

   => Loading Basis Set <=

    Name: AUG-CC-PVTZ
    Role: ORBITAL
    Keyword: BASIS
    atoms 1-11  entry C          line   221 file /cbio/jclab/home/chayas/anaconda/envs/py35/share/psi4/basis/aug-cc-pvtz.gbs 
    atoms 12    entry N          line   267 file /cbio/jclab/home/chayas/anaconda/envs/py35/share/psi4/basis/aug-cc-pvtz.gbs 
    atoms 13    entry O          line   313 file /cbio/jclab/home/chayas/anaconda/envs/py35/share/psi4/basis/aug-cc-pvtz.gbs 
    atoms 14-22 entry H          line    34 file /cbio/jclab/home/chayas/anaconda/envs/py35/share/psi4/basis/aug-cc-pvtz.gbs 


         ---------------------------------------------------------
                                   SCF
            by Justin Turney, Rob Parrish, and Andy Simmonett
                              RHF Reference
                        8 Threads,   4768 MiB Core
         ---------------------------------------------------------

  ==> Geometry <==

    Molecular point group: c1
    Full point group: C1

    Geometry (in Angstrom), charge = 0, multiplicity = 1:

       Center              X                  Y                   Z               Mass       
    ------------   -----------------  -----------------  -----------------  -----------------
           C         -1.297244481628     0.733884629177    -0.557202712863    12.000000000000
           C         -0.304244481628     0.117884629177     1.556797287137    12.000000000000
           C         -2.375244481628     1.306884629177     0.115797287137    12.000000000000
           C         -1.382244481628     0.690884629177     2.230797287137    12.000000000000
           C          1.977755518372     0.311884629177    -0.838202712863    12.000000000000
           C          0.814755518372    -1.797115370823    -0.906202712863    12.000000000000
           C          3.035755518372    -0.285115370823    -1.508202712863    12.000000000000
           C          1.902755518372    -2.340115370823    -1.575202712863    12.000000000000
           C         -0.261244481628     0.138884629177     0.162797287137    12.000000000000
           C          0.857755518372    -0.456115370823    -0.535202712863    12.000000000000
           C         -2.418244481628     1.285884629177     1.509797287137    12.000000000000
           N          2.968755518372    -1.578115370823    -1.853202712863    14.003074004780
           O         -3.409244481628     1.811884629177     2.128797287137    15.994914619560
           H         -1.278244481628     0.758884629177    -1.644202712863     1.007825032070
           H          0.495755518372    -0.342115370823     2.131797287137     1.007825032070
           H         -3.171244481628     1.763884629177    -0.470202712863     1.007825032070
           H         -1.391244481628     0.661884629177     3.318797287137     1.007825032070
           H          2.038755518372     1.359884629177    -0.560202712863     1.007825032070
           H         -0.046244481628    -2.419115370823    -0.683202712863     1.007825032070
           H          3.944755518372     0.233884629177    -1.783202712863     1.007825032070
           H          1.956755518372    -3.370115370823    -1.900202712863     1.007825032070
           H          3.756755518372    -1.996115370823    -2.347202712863     1.007825032070

  Running in c1 symmetry.

  Rotational constants: A =      0.09649  B =      0.01295  C =      0.01292 [cm^-1]
  Rotational constants: A =   2892.84237  B =    388.27274  C =    387.37153 [MHz]
  Nuclear repulsion =  700.076343477658043

  Charge       = 0
  Multiplicity = 1
  Electrons    = 90
  Nalpha       = 45
  Nbeta        = 45

  ==> Algorithm <==

  SCF Algorithm Type is DF.
  DIIS enabled.
  MOM disabled.
  Fractional occupation disabled.
  Guess Type is SAD.
  Energy threshold   = 1.00e-10
  Density threshold  = 1.00e-10
  Integral threshold = 0.00e+00

  ==> Primary Basis <==

  Basis Set: AUG-CC-PVTZ
    Blend: AUG-CC-PVTZ
    Number of shells: 263
    Number of basis function: 805
    Number of Cartesian functions: 940
    Spherical Harmonics?: true
    Max angular momentum: 3

   => Loading Basis Set <=

    Name: (AUG-CC-PVTZ AUX)
    Role: JKFIT
    Keyword: DF_BASIS_SCF
    atoms 1-11  entry C          line   161 file /cbio/jclab/home/chayas/anaconda/envs/py35/share/psi4/basis/aug-cc-pvtz-jkfit.gbs 
    atoms 12    entry N          line   223 file /cbio/jclab/home/chayas/anaconda/envs/py35/share/psi4/basis/aug-cc-pvtz-jkfit.gbs 
    atoms 13    entry O          line   285 file /cbio/jclab/home/chayas/anaconda/envs/py35/share/psi4/basis/aug-cc-pvtz-jkfit.gbs 
    atoms 14-22 entry H          line    69 file /cbio/jclab/home/chayas/anaconda/envs/py35/share/psi4/basis/aug-cc-pvtz-jkfit.gbs 

  ==> Pre-Iterations <==

   -------------------------------------------------------
    Irrep   Nso     Nmo     Nalpha   Nbeta   Ndocc  Nsocc
   -------------------------------------------------------
     A        805     805       0       0       0       0
   -------------------------------------------------------
    Total     805     805      45      45      45       0
   -------------------------------------------------------

  ==> Integral Setup <==

  ==> DFJK: Density-Fitted J/K Matrices <==

    J tasked:                  Yes
    K tasked:                  Yes
    wK tasked:                  No
    OpenMP threads:              8
    Integrals threads:           8
    Memory (MB):              3576
    Algorithm:                Disk
    Integral Cache:           NONE
    Schwarz Cutoff:          1E-12
    Fitting Condition:       1E-12

   => Auxiliary Basis Set <=

  Basis Set: (AUG-CC-PVTZ AUX)
    Blend: AUG-CC-PVTZ-JKFIT
    Number of shells: 516
    Number of basis function: 1766
    Number of Cartesian functions: 2198
    Spherical Harmonics?: true
    Max angular momentum: 4

  Minimum eigenvalue in the overlap matrix is 6.9450480413E-07.
  Using Symmetric Orthogonalization.

  SCF Guess: Superposition of Atomic Densities via on-the-fly atomic UHF.

  ==> Iterations <==

                           Total Energy        Delta E     RMS |[F,P]|

   @DF-RHF iter   0:  -558.46822987250050   -5.58468e+02   2.40227e-02 
   @DF-RHF iter   1:  -550.75524652042179    7.71298e+00   2.39308e-03 
   @DF-RHF iter   2:  -551.05400485329153   -2.98758e-01   1.36512e-03 DIIS
   @DF-RHF iter   3:  -551.16069610827014   -1.06691e-01   5.62383e-04 DIIS
   @DF-RHF iter   4:  -551.18187263083996   -2.11765e-02   1.64790e-04 DIIS
   @DF-RHF iter   5:  -551.18445746061570   -2.58483e-03   7.45839e-05 DIIS
   @DF-RHF iter   6:  -551.18508651257127   -6.29052e-04   2.97582e-05 DIIS
   @DF-RHF iter   7:  -551.18521021171955   -1.23699e-04   1.14964e-05 DIIS
   @DF-RHF iter   8:  -551.18523414394906   -2.39322e-05   4.68375e-06 DIIS
   @DF-RHF iter   9:  -551.18524082523572   -6.68129e-06   2.29384e-06 DIIS
   @DF-RHF iter  10:  -551.18524223144118   -1.40621e-06   1.11256e-06 DIIS
   @DF-RHF iter  11:  -551.18524251729764   -2.85856e-07   3.23358e-07 DIIS
   @DF-RHF iter  12:  -551.18524253740532   -2.01077e-08   1.30973e-07 DIIS
   @DF-RHF iter  13:  -551.18524254015847   -2.75315e-09   4.92593e-08 DIIS
   @DF-RHF iter  14:  -551.18524254086208   -7.03608e-10   2.22713e-08 DIIS
   @DF-RHF iter  15:  -551.18524254099430   -1.32218e-10   9.44686e-09 DIIS
   @DF-RHF iter  16:  -551.18524254103488   -4.05862e-11   4.78995e-09 DIIS
   @DF-RHF iter  17:  -551.18524254103806   -3.18323e-12   2.10090e-09 DIIS
   @DF-RHF iter  18:  -551.18524254103431    3.75167e-12   7.97968e-10 DIIS
   @DF-RHF iter  19:  -551.18524254103465   -3.41061e-13   3.90970e-10 DIIS
   @DF-RHF iter  20:  -551.18524254103022    4.43379e-12   1.62254e-10 DIIS
   @DF-RHF iter  21:  -551.18524254103318   -2.95586e-12   1.00658e-10 DIIS
   @DF-RHF iter  22:  -551.18524254105398   -2.08047e-11   4.59511e-11 DIIS

  ==> Post-Iterations <==

    Orbital Energies (a.u.)
    -----------------------

    Doubly Occupied:                                                      

       1A    -20.382849     2A    -15.744142     3A    -11.387045  
       4A    -11.387003     5A    -11.331585     6A    -11.311506  
       7A    -11.311426     8A    -11.207577     9A    -11.207544  
      10A    -11.207354    11A    -11.190922    12A    -11.159404  
      13A    -11.159355    14A     -1.419332    15A     -1.216028  
      16A     -1.196001    17A     -1.140132    18A     -1.095312  
      19A     -0.991536    20A     -0.969595    21A     -0.965804  
      22A     -0.904157    23A     -0.868288    24A     -0.787167  
      25A     -0.774052    26A     -0.767465    27A     -0.730189  
      28A     -0.698269    29A     -0.697486    30A     -0.683503  
      31A     -0.620501    32A     -0.608548    33A     -0.597582  
      34A     -0.585632    35A     -0.541900    36A     -0.514526  
      37A     -0.479937    38A     -0.475268    39A     -0.446937  
      40A     -0.445017    41A     -0.439901    42A     -0.385111  
      43A     -0.301198    44A     -0.300225    45A     -0.209494  

    Virtual:                                                              

      46A     -0.020867    47A      0.001990    48A      0.002935  
      49A      0.016124    50A      0.025605    51A      0.032914  
      52A      0.033129    53A      0.037768    54A      0.048823  
      55A      0.048899    56A      0.057295    57A      0.066175  
      58A      0.069044    59A      0.072537    60A      0.073443  
      61A      0.080883    62A      0.086377    63A      0.094453  
      64A      0.098418    65A      0.105584    66A      0.106533  
      67A      0.121026    68A      0.122631    69A      0.126453  
      70A      0.126643    71A      0.127894    72A      0.129560  
      73A      0.129790    74A      0.131513    75A      0.149277  
      76A      0.156042    77A      0.157861    78A      0.159086  
      79A      0.160527    80A      0.165105    81A      0.169749  
      82A      0.177827    83A      0.183573    84A      0.183845  
      85A      0.190386    86A      0.190520    87A      0.193213  
      88A      0.194657    89A      0.199914    90A      0.206668  
      91A      0.209157    92A      0.209619    93A      0.210854  
      94A      0.221833    95A      0.222682    96A      0.239398  
      97A      0.242325    98A      0.242418    99A      0.245287  
     100A      0.245627   101A      0.247461   102A      0.259902  
     103A      0.260764   104A      0.261183   105A      0.267966  
     106A      0.270896   107A      0.277711   108A      0.283051  
     109A      0.289945   110A      0.297195   111A      0.297780  
     112A      0.298641   113A      0.306745   114A      0.313533  
     115A      0.320594   116A      0.321496   117A      0.322439  
     118A      0.322925   119A      0.332150   120A      0.338459  
     121A      0.339478   122A      0.339805   123A      0.349590  
     124A      0.355463   125A      0.357209   126A      0.357671  
     127A      0.359878   128A      0.360673   129A      0.370637  
     130A      0.376201   131A      0.378678   132A      0.381667  
     133A      0.386718   134A      0.392756   135A      0.393998  
     136A      0.404107   137A      0.404910   138A      0.406275  
     139A      0.413357   140A      0.415996   141A      0.417644  
     142A      0.426114   143A      0.432475   144A      0.434555  
     145A      0.441863   146A      0.450712   147A      0.451875  
     148A      0.452069   149A      0.458396   150A      0.460135  
     151A      0.463745   152A      0.476361   153A      0.476733  
     154A      0.478089   155A      0.478924   156A      0.485928  
     157A      0.487459   158A      0.489244   159A      0.490363  
     160A      0.499934   161A      0.500512   162A      0.502996  
     163A      0.513638   164A      0.515404   165A      0.522955  
     166A      0.526727   167A      0.530086   168A      0.533704  
     169A      0.535278   170A      0.540051   171A      0.547589  
     172A      0.549407   173A      0.551714   174A      0.556695  
     175A      0.563273   176A      0.566346   177A      0.571484  
     178A      0.589233   179A      0.591343   180A      0.596902  
     181A      0.600572   182A      0.605171   183A      0.606086  
     184A      0.606683   185A      0.606839   186A      0.610760  
     187A      0.612821   188A      0.625876   189A      0.633068  
     190A      0.641405   191A      0.642759   192A      0.651108  
     193A      0.666616   194A      0.670937   195A      0.671429  
     196A      0.674662   197A      0.680994   198A      0.689430  
     199A      0.691798   200A      0.691885   201A      0.693435  
     202A      0.715086   203A      0.717131   204A      0.717746  
     205A      0.727979   206A      0.736063   207A      0.737322  
     208A      0.737577   209A      0.746491   210A      0.751480  
     211A      0.760868   212A      0.761449   213A      0.768131  
     214A      0.773650   215A      0.778464   216A      0.780668  
     217A      0.788238   218A      0.792276   219A      0.797189  
     220A      0.806206   221A      0.810370   222A      0.814652  
     223A      0.829771   224A      0.835933   225A      0.844705  
     226A      0.854118   227A      0.855757   228A      0.856934  
     229A      0.861078   230A      0.863297   231A      0.867630  
     232A      0.870232   233A      0.878228   234A      0.890501  
     235A      0.900500   236A      0.906316   237A      0.908732  
     238A      0.908992   239A      0.910439   240A      0.924763  
     241A      0.925943   242A      0.928381   243A      0.936383  
     244A      0.937001   245A      0.942643   246A      0.946627  
     247A      0.953090   248A      0.956963   249A      0.957688  
     250A      0.960879   251A      0.968284   252A      0.975552  
     253A      0.977294   254A      0.982724   255A      0.988029  
     256A      0.995122   257A      0.997179   258A      1.000829  
     259A      1.004869   260A      1.010690   261A      1.011765  
     262A      1.018042   263A      1.019956   264A      1.033209  
     265A      1.039363   266A      1.049105   267A      1.050795  
     268A      1.058326   269A      1.062764   270A      1.064688  
     271A      1.070466   272A      1.071547   273A      1.074576  
     274A      1.080223   275A      1.081594   276A      1.082906  
     277A      1.086371   278A      1.095305   279A      1.098519  
     280A      1.102584   281A      1.107762   282A      1.113330  
     283A      1.113690   284A      1.119315   285A      1.123570  
     286A      1.127860   287A      1.130593   288A      1.135299  
     289A      1.142789   290A      1.164178   291A      1.168699  
     292A      1.171233   293A      1.173207   294A      1.174779  
     295A      1.178008   296A      1.179363   297A      1.196282  
     298A      1.201764   299A      1.208233   300A      1.209238  
     301A      1.212476   302A      1.213453   303A      1.222769  
     304A      1.226267   305A      1.233019   306A      1.237951  
     307A      1.238110   308A      1.254272   309A      1.256131  
     310A      1.258774   311A      1.261874   312A      1.265064  
     313A      1.280280   314A      1.283737   315A      1.287166  
     316A      1.293509   317A      1.302479   318A      1.303311  
     319A      1.303672   320A      1.325336   321A      1.327988  
     322A      1.331214   323A      1.334515   324A      1.349000  
     325A      1.352125   326A      1.352558   327A      1.356840  
     328A      1.357381   329A      1.361411   330A      1.381101  
     331A      1.385236   332A      1.393701   333A      1.393788  
     334A      1.407319   335A      1.409585   336A      1.418229  
     337A      1.426530   338A      1.435374   339A      1.435558  
     340A      1.437659   341A      1.452582   342A      1.455753  
     343A      1.458634   344A      1.488531   345A      1.488928  
     346A      1.492654   347A      1.502216   348A      1.503228  
     349A      1.510281   350A      1.523852   351A      1.525187  
     352A      1.539128   353A      1.549016   354A      1.549609  
     355A      1.563184   356A      1.571118   357A      1.574320  
     358A      1.575764   359A      1.590253   360A      1.594507  
     361A      1.619806   362A      1.621416   363A      1.623658  
     364A      1.625760   365A      1.631281   366A      1.636413  
     367A      1.637212   368A      1.649114   369A      1.650044  
     370A      1.663152   371A      1.683905   372A      1.703835  
     373A      1.707673   374A      1.718556   375A      1.720366  
     376A      1.726983   377A      1.744491   378A      1.745804  
     379A      1.757670   380A      1.761104   381A      1.762879  
     382A      1.771330   383A      1.774668   384A      1.788067  
     385A      1.788258   386A      1.804509   387A      1.806201  
     388A      1.811596   389A      1.816210   390A      1.823195  
     391A      1.844552   392A      1.848895   393A      1.861759  
     394A      1.862267   395A      1.864695   396A      1.894753  
     397A      1.902068   398A      1.902104   399A      1.918315  
     400A      1.930877   401A      1.932017   402A      1.940428  
     403A      1.947292   404A      1.962858   405A      1.966165  
     406A      1.967118   407A      1.975261   408A      1.979475  
     409A      1.988766   410A      1.992126   411A      1.997917  
     412A      2.006114   413A      2.006730   414A      2.025292  
     415A      2.037966   416A      2.040010   417A      2.050422  
     418A      2.051827   419A      2.059878   420A      2.067891  
     421A      2.073887   422A      2.074508   423A      2.089531  
     424A      2.104961   425A      2.116116   426A      2.121070  
     427A      2.140030   428A      2.147667   429A      2.157681  
     430A      2.161510   431A      2.165112   432A      2.174755  
     433A      2.175228   434A      2.180915   435A      2.182053  
     436A      2.189823   437A      2.197682   438A      2.208097  
     439A      2.217017   440A      2.221139   441A      2.231719  
     442A      2.248348   443A      2.253355   444A      2.269368  
     445A      2.307971   446A      2.311337   447A      2.315173  
     448A      2.318979   449A      2.319482   450A      2.328084  
     451A      2.328604   452A      2.357461   453A      2.365536  
     454A      2.369924   455A      2.373314   456A      2.396803  
     457A      2.406577   458A      2.409213   459A      2.424201  
     460A      2.433645   461A      2.434082   462A      2.447041  
     463A      2.457479   464A      2.473406   465A      2.475831  
     466A      2.481150   467A      2.500125   468A      2.515567  
     469A      2.520405   470A      2.544427   471A      2.555136  
     472A      2.558353   473A      2.562280   474A      2.565662  
     475A      2.566641   476A      2.572890   477A      2.603910  
     478A      2.626638   479A      2.636013   480A      2.639359  
     481A      2.647944   482A      2.658746   483A      2.680330  
     484A      2.683655   485A      2.685438   486A      2.694705  
     487A      2.700744   488A      2.773167   489A      2.791188  
     490A      2.807406   491A      2.826797   492A      2.828790  
     493A      2.829063   494A      2.843095   495A      2.858572  
     496A      2.887310   497A      2.909472   498A      2.912520  
     499A      2.930181   500A      2.935833   501A      2.991808  
     502A      3.011301   503A      3.027116   504A      3.034624  
     505A      3.065808   506A      3.068761   507A      3.078923  
     508A      3.089521   509A      3.134613   510A      3.151289  
     511A      3.154891   512A      3.184508   513A      3.189647  
     514A      3.227947   515A      3.235263   516A      3.244326  
     517A      3.256441   518A      3.264521   519A      3.271335  
     520A      3.297566   521A      3.313043   522A      3.338794  
     523A      3.342953   524A      3.348171   525A      3.352014  
     526A      3.364335   527A      3.399453   528A      3.414019  
     529A      3.414228   530A      3.419372   531A      3.421325  
     532A      3.421447   533A      3.447619   534A      3.451424  
     535A      3.461734   536A      3.462913   537A      3.478200  
     538A      3.490100   539A      3.494248   540A      3.498612  
     541A      3.530811   542A      3.546756   543A      3.548096  
     544A      3.548583   545A      3.560642   546A      3.560810  
     547A      3.580110   548A      3.590806   549A      3.596406  
     550A      3.603880   551A      3.611975   552A      3.623854  
     553A      3.629625   554A      3.635585   555A      3.640242  
     556A      3.643658   557A      3.653064   558A      3.669597  
     559A      3.678231   560A      3.694450   561A      3.705264  
     562A      3.709036   563A      3.712382   564A      3.714705  
     565A      3.721415   566A      3.729449   567A      3.736095  
     568A      3.759034   569A      3.773077   570A      3.774633  
     571A      3.774813   572A      3.807510   573A      3.809673  
     574A      3.812268   575A      3.814355   576A      3.826038  
     577A      3.834396   578A      3.840103   579A      3.855157  
     580A      3.856924   581A      3.877046   582A      3.898575  
     583A      3.907881   584A      3.913872   585A      3.918278  
     586A      3.918541   587A      3.919378   588A      3.932221  
     589A      3.955717   590A      3.957186   591A      3.960467  
     592A      3.971949   593A      3.990807   594A      3.995500  
     595A      3.995828   596A      3.996381   597A      4.027876  
     598A      4.032611   599A      4.052969   600A      4.058995  
     601A      4.068153   602A      4.077793   603A      4.079089  
     604A      4.088156   605A      4.094922   606A      4.100529  
     607A      4.119146   608A      4.119946   609A      4.120275  
     610A      4.128084   611A      4.157130   612A      4.158945  
     613A      4.177244   614A      4.179362   615A      4.184830  
     616A      4.187150   617A      4.192194   618A      4.194790  
     619A      4.208409   620A      4.211924   621A      4.222916  
     622A      4.255309   623A      4.263669   624A      4.266186  
     625A      4.273883   626A      4.280555   627A      4.285966  
     628A      4.287295   629A      4.296705   630A      4.322060  
     631A      4.328909   632A      4.333683   633A      4.350069  
     634A      4.353959   635A      4.362111   636A      4.375250  
     637A      4.399973   638A      4.401356   639A      4.402770  
     640A      4.423771   641A      4.429580   642A      4.431181  
     643A      4.434657   644A      4.435182   645A      4.435601  
     646A      4.436956   647A      4.476244   648A      4.478148  
     649A      4.483668   650A      4.504511   651A      4.518434  
     652A      4.528833   653A      4.539337   654A      4.550337  
     655A      4.559514   656A      4.559791   657A      4.560991  
     658A      4.591068   659A      4.608659   660A      4.613386  
     661A      4.617352   662A      4.627372   663A      4.650882  
     664A      4.653690   665A      4.671104   666A      4.733256  
     667A      4.734001   668A      4.748947   669A      4.765826  
     670A      4.768989   671A      4.776892   672A      4.779600  
     673A      4.783869   674A      4.802673   675A      4.823877  
     676A      4.835391   677A      4.862676   678A      4.874859  
     679A      4.878183   680A      4.903360   681A      4.916874  
     682A      4.917799   683A      4.918915   684A      4.951557  
     685A      4.963384   686A      4.977691   687A      4.999322  
     688A      5.006477   689A      5.019988   690A      5.025169  
     691A      5.034662   692A      5.047900   693A      5.053174  
     694A      5.058024   695A      5.073070   696A      5.083043  
     697A      5.088554   698A      5.095800   699A      5.106122  
     700A      5.131846   701A      5.139075   702A      5.146818  
     703A      5.164377   704A      5.202980   705A      5.210525  
     706A      5.213244   707A      5.217035   708A      5.228969  
     709A      5.239962   710A      5.240528   711A      5.246108  
     712A      5.274593   713A      5.289134   714A      5.302045  
     715A      5.323337   716A      5.325907   717A      5.350630  
     718A      5.357101   719A      5.390932   720A      5.410359  
     721A      5.413268   722A      5.419382   723A      5.427645  
     724A      5.436645   725A      5.468514   726A      5.489741  
     727A      5.503125   728A      5.521659   729A      5.528632  
     730A      5.566709   731A      5.601040   732A      5.644521  
     733A      5.682559   734A      5.699079   735A      5.703159  
     736A      5.728181   737A      5.730802   738A      5.732386  
     739A      5.777408   740A      5.792871   741A      5.801478  
     742A      5.813038   743A      5.855077   744A      5.876499  
     745A      5.896916   746A      5.927605   747A      5.959165  
     748A      6.003193   749A      6.027567   750A      6.072486  
     751A      6.105641   752A      6.142519   753A      6.152399  
     754A      6.156049   755A      6.207290   756A      6.239440  
     757A      6.326669   758A      6.361459   759A      6.363793  
     760A      6.381199   761A      6.438579   762A      6.441767  
     763A      6.534092   764A      6.543392   765A      6.599113  
     766A      6.635363   767A      6.647726   768A      6.659640  
     769A      6.751658   770A      6.794826   771A      6.816659  
     772A      6.837767   773A      6.900815   774A      6.926389  
     775A      6.946887   776A      6.962271   777A      7.000232  
     778A      7.056254   779A      7.106814   780A      7.148511  
     781A      7.224099   782A      7.245830   783A      7.274763  
     784A      7.534380   785A      7.537585   786A      7.555205  
     787A      7.637588   788A      7.841339   789A      7.861014  
     790A      7.942389   791A      8.075514   792A      8.129213  
     793A     16.062876   794A     16.191755   795A     16.221531  
     796A     16.486334   797A     17.138972   798A     18.890640  
     799A     19.315446   800A     19.784679   801A     20.039920  
     802A     20.174597   803A     20.179465   804A     20.188121  
     805A     21.829870  

    Final Occupation by Irrep:
              A 
    DOCC [    45 ]

  Energy converged.

  @DF-RHF Final Energy:  -551.18524254105398

   => Energetics <=

    Nuclear Repulsion Energy =            700.0763434776580425
    One-Electron Energy =               -2136.8355624451050971
    Two-Electron Energy =                 885.5739764263929601
    DFT Exchange-Correlation Energy =       0.0000000000000000
    Empirical Dispersion Energy =           0.0000000000000000
    PCM Polarization Energy =               0.0000000000000000
    EFP Energy =                            0.0000000000000000
    Total Energy =                       -551.1852425410539809



Properties will be evaluated at   0.000000,   0.000000,   0.000000 Bohr

Properties computed using the SCF density matrix

  Nuclear Dipole Moment: (a.u.)
     X:     5.8865      Y:    -3.1263      Z:    -3.6760

  Electronic Dipole Moment: (a.u.)
     X:     1.4832      Y:    -0.7902      Z:    -0.9263

  Dipole Moment: (a.u.)
     X:     7.3697      Y:    -3.9165      Z:    -4.6022     Total:     9.5306

  Dipole Moment: (Debye)
     X:    18.7318      Y:    -9.9548      Z:   -11.6977     Total:    24.2243


*** tstop() called on gpu-1-7.local at Sun Nov 12 16:59:44 2017
Module time:
	user time   =    1122.84 seconds =      18.71 minutes
	system time =      52.89 seconds =       0.88 minutes
	total time  =        459 seconds =       7.65 minutes
Total time:
	user time   =    1122.85 seconds =      18.71 minutes
	system time =      52.89 seconds =       0.88 minutes
	total time  =        459 seconds =       7.65 minutes

  //>>>>>>>>>>>>>>>>>>>>>>>>>>>>>>>>>>>//
  //               DFMP2               //
  //<<<<<<<<<<<<<<<<<<<<<<<<<<<<<<<<<<<//

   => Loading Basis Set <=

    Name: (AUG-CC-PVTZ AUX)
    Role: RIFIT
    Keyword: DF_BASIS_MP2
    atoms 1-11  entry C          line   147 file /cbio/jclab/home/chayas/anaconda/envs/py35/share/psi4/basis/aug-cc-pvtz-ri.gbs 
    atoms 12    entry N          line   205 file /cbio/jclab/home/chayas/anaconda/envs/py35/share/psi4/basis/aug-cc-pvtz-ri.gbs 
    atoms 13    entry O          line   263 file /cbio/jclab/home/chayas/anaconda/envs/py35/share/psi4/basis/aug-cc-pvtz-ri.gbs 
    atoms 14-22 entry H          line    29 file /cbio/jclab/home/chayas/anaconda/envs/py35/share/psi4/basis/aug-cc-pvtz-ri.gbs 

	 --------------------------------------------------------
	                          DF-MP2                         
	      2nd-Order Density-Fitted Moller-Plesset Theory     
	              RMP2 Wavefunction,   8 Threads             
	                                                         
	        Rob Parrish, Justin Turney, Andy Simmonett,      
	           Ed Hohenstein, and C. David Sherrill          
	 --------------------------------------------------------

   => Auxiliary Basis Set <=

  Basis Set: (AUG-CC-PVTZ AUX)
    Blend: AUG-CC-PVTZ-RI
    Number of shells: 490
    Number of basis function: 1792
    Number of Cartesian functions: 2263
    Spherical Harmonics?: true
    Max angular momentum: 4

	 --------------------------------------------------------
	                 NBF =   805, NAUX =  1792
	 --------------------------------------------------------
	   CLASS    FOCC     OCC    AOCC    AVIR     VIR    FVIR
	   PAIRS       0      45      45     760     760       0
	 --------------------------------------------------------


         ------------------------------------------------------------
                                     CPHF                           
                                  Rob Parrish                       
         ------------------------------------------------------------

  ==> Geometry <==

    Molecular point group: c1
    Full point group: C1

    Geometry (in Angstrom), charge = 0, multiplicity = 1:

       Center              X                  Y                   Z               Mass       
    ------------   -----------------  -----------------  -----------------  -----------------
           C         -1.297244481628     0.733884629177    -0.557202712863    12.000000000000
           C         -0.304244481628     0.117884629177     1.556797287137    12.000000000000
           C         -2.375244481628     1.306884629177     0.115797287137    12.000000000000
           C         -1.382244481628     0.690884629177     2.230797287137    12.000000000000
           C          1.977755518372     0.311884629177    -0.838202712863    12.000000000000
           C          0.814755518372    -1.797115370823    -0.906202712863    12.000000000000
           C          3.035755518372    -0.285115370823    -1.508202712863    12.000000000000
           C          1.902755518372    -2.340115370823    -1.575202712863    12.000000000000
           C         -0.261244481628     0.138884629177     0.162797287137    12.000000000000
           C          0.857755518372    -0.456115370823    -0.535202712863    12.000000000000
           C         -2.418244481628     1.285884629177     1.509797287137    12.000000000000
           N          2.968755518372    -1.578115370823    -1.853202712863    14.003074004780
           O         -3.409244481628     1.811884629177     2.128797287137    15.994914619560
           H         -1.278244481628     0.758884629177    -1.644202712863     1.007825032070
           H          0.495755518372    -0.342115370823     2.131797287137     1.007825032070
           H         -3.171244481628     1.763884629177    -0.470202712863     1.007825032070
           H         -1.391244481628     0.661884629177     3.318797287137     1.007825032070
           H          2.038755518372     1.359884629177    -0.560202712863     1.007825032070
           H         -0.046244481628    -2.419115370823    -0.683202712863     1.007825032070
           H          3.944755518372     0.233884629177    -1.783202712863     1.007825032070
           H          1.956755518372    -3.370115370823    -1.900202712863     1.007825032070
           H          3.756755518372    -1.996115370823    -2.347202712863     1.007825032070

  Nuclear repulsion =  700.076343477658043
  Reference energy  = -551.185242541053981

  ==> Basis Set <==

  Basis Set: AUG-CC-PVTZ
    Blend: AUG-CC-PVTZ
    Number of shells: 263
    Number of basis function: 805
    Number of Cartesian functions: 940
    Spherical Harmonics?: true
    Max angular momentum: 3

  ==> CGRSolver (by Rob Parrish) <==

   Number of roots    =         1
   Preconditioning    =    JACOBI
   Convergence cutoff =     1E-06
   Maximum iterations =       100

  ==> CPHFRHamiltonian (by Rob Parrish) <== 

  ==> DFJK: Density-Fitted J/K Matrices <==

    J tasked:                  Yes
    K tasked:                  Yes
    wK tasked:                  No
    OpenMP threads:              8
    Integrals threads:           8
    Memory (MB):              3576
    Algorithm:                Disk
    Integral Cache:           NONE
    Schwarz Cutoff:          1E-12
    Fitting Condition:       1E-12

   => Auxiliary Basis Set <=

  Basis Set: (AUG-CC-PVTZ AUX)
    Blend: AUG-CC-PVTZ-JKFIT
    Number of shells: 516
    Number of basis function: 1766
    Number of Cartesian functions: 2198
    Spherical Harmonics?: true
    Max angular momentum: 4

  ==> CPHF Iterations <==

  => Iterations <=

             Iter  Converged  Remaining    Residual
  CGR           1          0          1   1.436E-01
  CGR           2          0          1   5.619E-02
  CGR           3          0          1   3.130E-02
  CGR           4          0          1   9.628E-03
  CGR           5          0          1   3.932E-03
  CGR           6          0          1   2.009E-03
  CGR           7          0          1   6.360E-04
  CGR           8          0          1   2.445E-04
  CGR           9          0          1   9.559E-05
  CGR          10          0          1   2.950E-05
  CGR          11          0          1   1.396E-05
  CGR          12          0          1   6.335E-06
  CGR          13          0          1   2.296E-06
  CGR          14          1          0   8.293E-07

    CGRSolver converged.

  ==> DFCorrGrad: Density-Fitted Correlated Gradients <==

    OpenMP threads:              8
    Integrals threads:           8
    Memory (MB):              3576
    Schwarz Cutoff:          0E+00
    Fitting Condition:       1E-12

   => Auxiliary Basis Set <=

  Basis Set: (AUG-CC-PVTZ AUX)
    Blend: AUG-CC-PVTZ-JKFIT
    Number of shells: 516
    Number of basis function: 1766
    Number of Cartesian functions: 2198
    Spherical Harmonics?: true
    Max angular momentum: 4

	-----------------------------------------------------------
	 ==================> DF-MP2 Energies <==================== 
	-----------------------------------------------------------
	 Reference Energy          =    -551.1852425410539809 [Eh]
	 Singles Energy            =      -0.0000000000000003 [Eh]
	 Same-Spin Energy          =      -0.6051044811475577 [Eh]
	 Opposite-Spin Energy      =      -1.8335780169487144 [Eh]
	 Correlation Energy        =      -2.4386824980962722 [Eh]
	 Total Energy              =    -553.6239250391502082 [Eh]
	-----------------------------------------------------------
	 ================> DF-SCS-MP2 Energies <================== 
	-----------------------------------------------------------
	 SCS Same-Spin Scale       =       0.3333333333333333 [-]
	 SCS Opposite-Spin Scale   =       1.2000000000000000 [-]
	 SCS Same-Spin Energy      =      -0.2017014937158526 [Eh]
	 SCS Opposite-Spin Energy  =      -2.2002936203384573 [Eh]
	 SCS Correlation Energy    =      -2.4019951140543103 [Eh]
	 SCS Total Energy          =    -553.5872376551083107 [Eh]
	-----------------------------------------------------------


  -Total Gradient:
     Atom            X                  Y                   Z
    ------   -----------------  -----------------  -----------------
       1        0.013449805466    -0.007436897651    -0.000344155136
       2        0.007981885537    -0.003929549667    -0.013049435462
       3       -0.022744914227     0.011339418741     0.038210469797
       4       -0.040245949559     0.021991055517     0.001999514381
       5       -0.016702866589     0.008404835118     0.010008006218
       6       -0.016854908199     0.008441490673     0.010284794998
       7       -0.002529799377    -0.013656031048    -0.002776635200
       8        0.010882635794     0.009055507417    -0.002543779630
       9       -0.003848245001     0.002061346447     0.002353291857
      10        0.015037344949    -0.007543470466    -0.008933783251
      11        0.057319512499    -0.030282862462    -0.036318638676
      12       -0.002718822764     0.001076211976     0.001779361143
      13       -0.008325919711     0.004354684282     0.005276054331
      14       -0.001889564319     0.001157403288    -0.002422872735
      15        0.000668315606    -0.000471217726     0.003048736717
      16       -0.002760796872     0.001745752370    -0.008607189306
      17        0.004754775342    -0.002791764558     0.007013658822
      18        0.002384535541     0.006035531840     0.000730552991
      19       -0.003581125570    -0.004959278934     0.000235807855
      20        0.002760227441     0.001124953353    -0.000933427010
      21        0.000513577319    -0.002342619051    -0.000872618701
      22        0.006450296677    -0.003374499448    -0.004137713987


*** tstop() called on gpu-1-7.local at Sun Nov 12 17:31:48 2017
Module time:
	user time   =    5212.45 seconds =      86.87 minutes
	system time =     119.65 seconds =       1.99 minutes
	total time  =       2383 seconds =      39.72 minutes
Total time:
	user time   =    5212.46 seconds =      86.87 minutes
	system time =     119.65 seconds =       1.99 minutes
	total time  =       2383 seconds =      39.72 minutes

			-----------------------------------------
			 OPTKING 2.0: for geometry optimizations 
			  - R.A. King,  Bethel University        
			-----------------------------------------

	Internal coordinates to be generated automatically.
	Detected frag 1 with atoms:  1 2 3 4 5 6 7 8 9 10 11 12 13 14 15 16 17 18 19 20
	 21 22
	---Fragment 1 Bond Connectivity---
	 1 : 3 9 14
	 2 : 4 9 15
	 3 : 1 11 16
	 4 : 2 11 17
	 5 : 7 10 18
	 6 : 8 10 19
	 7 : 5 12 20
	 8 : 6 12 21
	 9 : 1 2 10
	 10 : 5 6 9
	 11 : 3 4 13
	 12 : 7 8 22
	 13 : 11
	 14 : 1
	 15 : 2
	 16 : 3
	 17 : 4
	 18 : 5
	 19 : 6
	 20 : 7
	 21 : 8
	 22 : 12

	Assuming in current code that numbering for constraints corresponds to unified fragment.
	Fixed dihedral atom list: 
	     1     9    10     5
	---Fragment 1 Geometry and Gradient---
	 C          -2.4514367977        1.3868409623       -1.0529605278
	 C          -0.5749387477        0.2227696644        2.9419205171
	 C          -4.4885615689        2.4696540364        0.2188251596
	 C          -2.6120635190        1.3055827386        4.2155959307
	 C           3.7374162875        0.5893765342       -1.5839735712
	 C           1.5396647950       -3.3960558801       -1.7124749482
	 C           5.7367465361       -0.5387899671       -2.8500900802
	 C           3.5956868276       -4.4221771702       -2.9767017311
	 C          -0.4936805240        0.2624539132        0.3076422879
	 C           1.6209230187       -0.8619331359       -1.0113865529
	 C          -4.5698197926        2.4299697876        2.8531033889
	 N           5.6101348852       -2.9822058570       -3.5020455960
	 O          -6.4425383903        3.4239657335        4.0228438651
	 H          -2.4155320012        1.4340841156       -3.1070928343
	 H           0.9368421586       -0.6465043567        4.0285130435
	 H          -5.9927835707        3.3332588792       -0.8885543543
	 H          -2.6290710542        1.2507806807        6.2716179633
	 H           3.8526895816        2.5698095215       -1.0586297062
	 H          -0.0873894054       -4.5714655347       -1.2910660206
	 H           7.4545075909        0.4419778958       -3.3697647667
	 H           3.6977320387       -6.3685950871       -3.5908627243
	 H           7.0992390779       -3.7721113805       -4.4355703057
	             0.0134498055       -0.0074368977       -0.0003441551
	             0.0079818855       -0.0039295497       -0.0130494355
	            -0.0227449142        0.0113394187        0.0382104698
	            -0.0402459496        0.0219910555        0.0019995144
	            -0.0167028666        0.0084048351        0.0100080062
	            -0.0168549082        0.0084414907        0.0102847950
	            -0.0025297994       -0.0136560310       -0.0027766352
	             0.0108826358        0.0090555074       -0.0025437796
	            -0.0038482450        0.0020613464        0.0023532919
	             0.0150373449       -0.0075434705       -0.0089337833
	             0.0573195125       -0.0302828625       -0.0363186387
	            -0.0027188228        0.0010762120        0.0017793611
	            -0.0083259197        0.0043546843        0.0052760543
	            -0.0018895643        0.0011574033       -0.0024228727
	             0.0006683156       -0.0004712177        0.0030487367
	            -0.0027607969        0.0017457524       -0.0086071893
	             0.0047547753       -0.0027917646        0.0070136588
	             0.0023845355        0.0060355318        0.0007305530
	            -0.0035811256       -0.0049592789        0.0002358079
	             0.0027602274        0.0011249534       -0.0009334270
	             0.0005135773       -0.0023426191       -0.0008726187
	             0.0064502967       -0.0033744994       -0.0041377140

	Previous optimization step data not found.  Starting new optimization.

	---Fragment 1 Intrafragment Coordinates---
	 - Coordinate -           - BOHR/RAD -       - ANG/DEG -
	 R(1,3)           =         2.634350	       1.394038
	 R(1,9)           =         2.635962	       1.394891
	 R(1,14)          =         2.054989	       1.087453
	 R(2,4)           =         2.635263	       1.394521
	 R(2,9)           =         2.635830	       1.394821
	 R(2,15)          =         2.054702	       1.087302
	 R(3,11)          =         2.635830	       1.394821
	 R(3,16)          =         2.057860	       1.088972
	 R(4,11)          =         2.636938	       1.395407
	 R(4,17)          =         2.056823	       1.088424
	 R(5,7)           =         2.621666	       1.387326
	 R(5,10)          =         2.629391	       1.391414
	 R(5,18)          =         2.052167	       1.085960
	 R(6,8)           =         2.622674	       1.387860
	 R(6,10)          =         2.630571	       1.392038
	 R(6,19)          =         2.050970	       1.085327
	 R(7,12)          =         2.532066	       1.339912
	 R(7,20)          =         2.045158	       1.082251
	 R(8,12)          =         2.531305	       1.339509
	 R(8,21)          =         2.043563	       1.081407
	 R(9,10)          =         2.734160	       1.446855
	 R(11,13)         =         2.421445	       1.281373
	 R(12,22)         =         1.926876	       1.019659
	 B(1,3,11)        =         2.094553	     120.009056
	 B(1,3,16)        =         2.069123	     118.552025
	 B(1,9,2)         =         2.093692	     119.959722
	 B(1,9,10)        =         2.095337	     120.053983
	 B(2,4,11)        =         2.093699	     119.960108
	 B(2,4,17)        =         2.069829	     118.592446
	 B(2,9,10)        =         2.094156	     119.986294
	 B(3,1,9)         =         2.094940	     120.031219
	 B(3,1,14)        =         2.079025	     119.119344
	 B(3,11,4)        =         2.094306	     119.994870
	 B(3,11,13)       =         2.094918	     120.029973
	 B(4,2,9)         =         2.095181	     120.045019
	 B(4,2,15)        =         2.079455	     119.143974
	 B(4,11,13)       =         2.093961	     119.975136
	 B(5,7,12)        =         2.096097	     120.097496
	 B(5,7,20)        =         2.161429	     123.840765
	 B(5,10,6)        =         2.092717	     119.903863
	 B(5,10,9)        =         2.095099	     120.040321
	 B(6,8,12)        =         2.095948	     120.088972
	 B(6,8,21)        =         2.161163	     123.825536
	 B(6,10,9)        =         2.095368	     120.055759
	 B(7,5,10)        =         2.073169	     118.783857
	 B(7,5,18)        =         2.089870	     119.740714
	 B(7,12,8)        =         2.135665	     122.364600
	 B(7,12,22)       =         2.073377	     118.795731
	 B(8,6,10)        =         2.072773	     118.761161
	 B(8,6,19)        =         2.090619	     119.783633
	 B(8,12,22)       =         2.074140	     118.839482
	 B(9,1,14)        =         2.109221	     120.849435
	 B(9,2,15)        =         2.108550	     120.811005
	 B(10,5,18)       =         2.120144	     121.475289
	 B(10,6,19)       =         2.119793	     121.455202
	 B(11,3,16)       =         2.119509	     121.438903
	 B(11,4,17)       =         2.119657	     121.447411
	 B(12,7,20)       =         2.025659	     116.061737
	 B(12,8,21)       =         2.026074	     116.085478
	 D(1,3,11,4)      =        -0.000325	      -0.018609
	 D(1,3,11,13)     =        -3.141004	    -179.966279
	 D(1,9,2,4)       =         0.000325	       0.018608
	 D(1,9,2,15)      =        -3.141527	    -179.996257
	 D(1,9,10,5)      =         1.569833	      89.944778
	 D(1,9,10,6)      =        -1.570233	     -89.967711
	 D(2,4,11,3)      =         0.000301	       0.017261
	 D(2,4,11,13)     =         3.140981	     179.964960
	 D(2,9,1,3)       =        -0.000348	      -0.019945
	 D(2,9,1,14)      =         3.141027	     179.967567
	 D(2,9,10,5)      =        -1.571543	     -90.042783
	 D(2,9,10,6)      =         1.571577	      90.044729
	 D(3,1,9,10)      =         3.141462	     179.992491
	 D(3,11,4,17)     =         3.140700	     179.948827
	 D(4,2,9,10)      =        -3.141485	    -179.993820
	 D(4,11,3,16)     =         3.140472	     179.935781
	 D(5,7,12,8)      =         0.000089	       0.005098
	 D(5,7,12,22)     =         3.138908	     179.846166
	 D(5,10,6,8)      =         0.001024	       0.058670
	 D(5,10,6,19)     =        -3.140920	    -179.961453
	 D(6,8,12,7)      =        -0.000566	      -0.032407
	 D(6,8,12,22)     =        -3.139383	    -179.873408
	 D(6,10,5,7)      =        -0.001483	      -0.084952
	 D(6,10,5,18)     =        -3.140692	    -179.948416
	 D(7,5,10,9)      =        -3.141550	    -179.997574
	 D(7,12,8,21)     =        -3.141438	    -179.991161
	 D(8,6,10,9)      =         3.141091	     179.971279
	 D(8,12,7,20)     =         3.141479	     179.993466
	 D(9,1,3,11)      =         0.000348	       0.019955
	 D(9,1,3,16)      =        -3.140471	    -179.935743
	 D(9,2,4,11)      =        -0.000301	      -0.017270
	 D(9,2,4,17)      =        -3.140734	    -179.950778
	 D(9,10,5,18)     =         0.002425	       0.138961
	 D(9,10,6,19)     =        -0.000852	      -0.048844
	 D(10,5,7,12)     =         0.000937	       0.053714
	 D(10,5,7,20)     =        -3.140436	    -179.933705
	 D(10,6,8,12)     =        -0.000000	      -0.000000
	 D(10,6,8,21)     =         3.140812	     179.955265
	 D(10,9,1,14)     =        -0.000349	      -0.019997
	 D(10,9,2,15)     =        -0.000152	      -0.008685
	 D(11,3,1,14)     =        -3.141030	    -179.967773
	 D(11,4,2,15)     =         3.141546	     179.997347
	 D(12,7,5,18)     =         3.140189	     179.919602
	 D(12,8,6,19)     =        -3.141250	    -179.980363
	 D(13,11,3,16)    =        -0.000207	      -0.011889
	 D(13,11,4,17)    =        -0.001806	      -0.103475
	 D(14,1,3,16)     =         0.001336	       0.076530
	 D(15,2,4,17)     =         0.001114	       0.063839
	 D(18,5,7,20)     =        -0.001184	      -0.067817
	 D(19,6,8,21)     =        -0.000436	      -0.024956
	 D(20,7,12,22)    =        -0.002888	      -0.165466
	 D(21,8,12,22)    =         0.002929	       0.167839

	Current energy   :      -553.6239250392

	Generating empirical Hessian (Schlegel '84) for each fragment.
	Adding user-defined constraint: Fragment 1; Coordinate 64:
		Value =     1.569833; Fixed value    =     1.570796
		Force =     0.000482; Force constant =     0.500000
	Removing off-diagonal coupling between coordinate 64 and others.
	Taking RFO optimization step.
	Going to follow RFO solution 1.
	Using RFO vector 1.

	Determining step-restricting scale parameter for RS-RFO.
	Maximum step size allowed    0.10000

	 Iter      |step|        alpha        rfo_root  
	------------------------------------------------
	    0     0.19979       1.00000           1
	    1     0.14657      12.51943           1
	    2     0.11618      30.02894           1
	    3     0.10305      43.87938           1
	    4     0.10015      47.82163           1
	    5     0.10000      48.02813           1
	------------------------------------------------
	Norm of target step-size    0.10000
	Projected energy change by RFO approximation:        -0.0062199457

	Back-transformation to cartesian coordinates...
	Successfully converged to displaced geometry.

	--- Internal Coordinate Step in ANG or DEG, aJ/ANG or AJ/DEG ---
	 ---------------------------------------------------------------------------
	   Coordinate                Previous        Force       Change         New 
	   ----------                --------       ------       ------       ------
	    1 R(1,3)          =      1.394038    -0.062568    -0.005226     1.388812
	    2 R(1,9)          =      1.394891     0.035035     0.002509     1.397400
	    3 R(1,14)         =      1.087453    -0.019900    -0.001958     1.085495
	    4 R(2,4)          =      1.394521    -0.065565    -0.005498     1.389023
	    5 R(2,9)          =      1.394821     0.035971     0.002580     1.397401
	    6 R(2,15)         =      1.087302    -0.018977    -0.001867     1.085435
	    7 R(3,11)         =      1.394821     0.232005     0.019874     1.414695
	    8 R(3,16)         =      1.088972    -0.060821    -0.006001     1.082971
	    9 R(4,11)         =      1.395407     0.228635     0.019609     1.415017
	   10 R(4,17)         =      1.088424    -0.058050    -0.005722     1.082702
	   11 R(5,7)          =      1.387326    -0.080970    -0.006665     1.380661
	   12 R(5,10)         =      1.391414     0.050414     0.004190     1.395604
	   13 R(5,18)         =      1.085960    -0.050630    -0.004969     1.080991
	   14 R(6,8)          =      1.387860    -0.084208    -0.006953     1.380907
	   15 R(6,10)         =      1.392038     0.046090     0.003830     1.395868
	   16 R(6,19)         =      1.085327    -0.047222    -0.004629     1.080698
	   17 R(7,12)         =      1.339912     0.026479     0.001952     1.341864
	   18 R(7,20)         =      1.082251    -0.025498    -0.002486     1.079765
	   19 R(8,12)         =      1.339509     0.029264     0.002149     1.341658
	   20 R(8,21)         =      1.081407    -0.020755    -0.002020     1.079387
	   21 R(9,10)         =      1.446855     0.046730     0.004361     1.451216
	   22 R(11,13)        =      1.281373    -0.088776    -0.005546     1.275827
	   23 R(12,22)        =      1.019659    -0.068981    -0.005943     1.013716
	   24 B(1,3,11)       =    120.009056     0.000691     1.041667   121.050724
	   25 B(1,3,16)       =    118.552025     0.000085     0.181533   118.733558
	   26 B(1,9,2)        =    119.959722    -0.000127    -0.325518   119.634204
	   27 B(1,9,10)       =    120.053983     0.000057     0.153957   120.207940
	   28 B(2,4,11)       =    119.960108     0.000706     1.058607   121.018715
	   29 B(2,4,17)       =    118.592446     0.000075     0.169149   118.761595
	   30 B(2,9,10)       =    119.986294     0.000070     0.171562   120.157856
	   31 B(3,1,9)        =    120.031219     0.000245     0.262965   120.294184
	   32 B(3,1,14)       =    119.119344     0.000051     0.152091   119.271436
	   33 B(3,11,4)       =    119.994870    -0.001762    -2.301006   117.693864
	   34 B(3,11,13)      =    120.029973     0.000873     1.140120   121.170093
	   35 B(4,2,9)        =    120.045019     0.000248     0.263286   120.308305
	   36 B(4,2,15)       =    119.143974     0.000045     0.143540   119.287514
	   37 B(4,11,13)      =    119.975136     0.000889     1.160891   121.136027
	   38 B(5,7,12)       =    120.097496    -0.000322    -0.472627   119.624869
	   39 B(5,7,20)       =    123.840765     0.000129     0.183095   124.023860
	   40 B(5,10,6)       =    119.903863    -0.000768    -1.060851   118.843012
	   41 B(5,10,9)       =    120.040321     0.000388     0.536125   120.576446
	   42 B(6,8,12)       =    120.088972    -0.000314    -0.464037   119.624935
	   43 B(6,8,21)       =    123.825536     0.000126     0.180529   124.006065
	   44 B(6,10,9)       =    120.055759     0.000380     0.524745   120.580503
	   45 B(7,5,10)       =    118.783857     0.000567     0.807794   119.591652
	   46 B(7,5,18)       =    119.740714    -0.000111    -0.122720   119.617994
	   47 B(7,12,8)       =    122.364600     0.000263     0.372747   122.737347
	   48 B(7,12,22)      =    118.795731    -0.000129    -0.181785   118.613947
	   49 B(8,6,10)       =    118.761161     0.000575     0.816987   119.578148
	   50 B(8,6,19)       =    119.783633    -0.000120    -0.134830   119.648803
	   51 B(8,12,22)      =    118.839482    -0.000134    -0.190942   118.648540
	   52 B(9,1,14)       =    120.849435    -0.000296    -0.415057   120.434379
	   53 B(9,2,15)       =    120.811005    -0.000293    -0.406826   120.404179
	   54 B(10,5,18)      =    121.475289    -0.000456    -0.685051   120.790238
	   55 B(10,6,19)      =    121.455202    -0.000455    -0.682156   120.773046
	   56 B(11,3,16)      =    121.438903    -0.000776    -1.223199   120.215704
	   57 B(11,4,17)      =    121.447411    -0.000781    -1.227751   120.219661
	   58 B(12,7,20)      =    116.061737     0.000194     0.289533   116.351270
	   59 B(12,8,21)      =    116.085478     0.000189     0.283510   116.368988
	   60 D(1,3,11,4)     =     -0.018609     0.000000     0.002766    -0.015843
	   61 D(1,3,11,13)    =   -179.966279    -0.000000    -0.003990  -179.970269
	   62 D(1,9,2,4)      =      0.018608    -0.000001    -0.005132     0.013475
	   63 D(1,9,2,15)     =   -179.996257    -0.000001    -0.003743  -180.000000
	   64 D(1,9,10,5)     =     89.944778     0.000003     0.022349    89.967127
	   65 D(1,9,10,6)     =    -89.967711     0.000002     0.007589   -89.960122
	   66 D(2,4,11,3)     =      0.017261    -0.000000    -0.002940     0.014321
	   67 D(2,4,11,13)    =    179.964960     0.000000     0.003804   179.968764
	   68 D(2,9,1,3)      =     -0.019945     0.000001     0.004963    -0.014982
	   69 D(2,9,1,14)     =    179.967567     0.000001     0.004926   179.972493
	   70 D(2,9,10,5)     =    -90.042783     0.000002     0.014108   -90.028674
	   71 D(2,9,10,6)     =     90.044729     0.000000    -0.000652    90.044077
	   72 D(3,1,9,10)     =    179.992491    -0.000001    -0.003297   179.989195
	   73 D(3,11,4,17)    =    179.948827     0.000000     0.002556   179.951383
	   74 D(4,2,9,10)     =   -179.993820     0.000001     0.003121  -179.990699
	   75 D(4,11,3,16)    =    179.935781     0.000000     0.005149   179.940930
	   76 D(5,7,12,8)     =      0.005098    -0.000000    -0.000718     0.004380
	   77 D(5,7,12,22)    =    179.846166     0.000001     0.007962   179.854127
	   78 D(5,10,6,8)     =      0.058670    -0.000001    -0.009663     0.049007
	   79 D(5,10,6,19)    =   -179.961453    -0.000001    -0.007303  -179.968756
	   80 D(6,8,12,7)     =     -0.032407     0.000000     0.003528    -0.028880
	   81 D(6,8,12,22)    =   -179.873408    -0.000001    -0.005170  -179.878578
	   82 D(6,10,5,7)     =     -0.084952     0.000001     0.011935    -0.073017
	   83 D(6,10,5,18)    =   -179.948416     0.000000     0.000142  -179.948274
	   84 D(7,5,10,9)     =   -179.997574    -0.000001    -0.003940  -180.001514
	   85 D(7,12,8,21)    =   -179.991161     0.000000     0.000758  -179.990403
	   86 D(8,6,10,9)     =    179.971279     0.000001     0.006222   179.977501
	   87 D(8,12,7,20)    =    179.993466    -0.000000    -0.000726   179.992740
	   88 D(9,1,3,11)     =      0.019955    -0.000000    -0.003478     0.016476
	   89 D(9,1,3,16)     =   -179.935743    -0.000001    -0.005181  -179.940924
	   90 D(9,2,4,11)     =     -0.017270     0.000000     0.003834    -0.013436
	   91 D(9,2,4,17)     =   -179.950778     0.000000    -0.000619  -179.951397
	   92 D(9,10,5,18)    =      0.138961    -0.000002    -0.015733     0.123229
	   93 D(9,10,6,19)    =     -0.048844     0.000001     0.008583    -0.040262
	   94 D(10,5,7,12)    =      0.053714    -0.000001    -0.006420     0.047294
	   95 D(10,5,7,20)    =   -179.933705    -0.000001    -0.006416  -179.940121
	   96 D(10,6,8,12)    =      0.000000     0.000000     0.001146     0.001146
	   97 D(10,6,8,21)    =    179.955265     0.000000     0.004296   179.959561
	   98 D(10,9,1,14)    =     -0.019997    -0.000001    -0.003333    -0.023330
	   99 D(10,9,2,15)    =     -0.008685     0.000001     0.005049    -0.003636
	  100 D(11,3,1,14)    =   -179.967773    -0.000000    -0.003371  -179.971144
	  101 D(11,4,2,15)    =    179.997347     0.000000     0.002653   180.000000
	  102 D(12,7,5,18)    =    179.919602     0.000000     0.004426   179.924028
	  103 D(12,8,6,19)    =   -179.980363    -0.000000    -0.000930  -179.981293
	  104 D(13,11,3,16)   =     -0.011889    -0.000000    -0.001608    -0.013496
	  105 D(13,11,4,17)   =     -0.103475     0.000001     0.009300    -0.094174
	  106 D(14,1,3,16)    =      0.076530    -0.000001    -0.005074     0.071456
	  107 D(15,2,4,17)    =      0.063839    -0.000000    -0.002443     0.061396
	  108 D(18,5,7,20)    =     -0.067817     0.000000     0.004430    -0.063387
	  109 D(19,6,8,21)    =     -0.024956     0.000000     0.002078    -0.022879
	  110 D(20,7,12,22)   =     -0.165466     0.000001     0.007954    -0.157512
	  111 D(21,8,12,22)   =      0.167839    -0.000001    -0.007939     0.159899
	 ---------------------------------------------------------------------------
	Successfully symmetrized geometry.
	 Forces used to impose fixed constraints are not included.
	  Forces zeroed: 64 

  ==> Convergence Check <==

  Measures of convergence in internal coordinates in au.
  Criteria marked as inactive (o), active & met (*), and active & unmet ( ).
  --------------------------------------------------------------------------------------------- ~
   Step     Total Energy     Delta E     MAX Force     RMS Force      MAX Disp      RMS Disp    ~
  --------------------------------------------------------------------------------------------- ~
    Convergence Criteria    1.00e-06 *    3.00e-04 *             o    1.20e-03 *             o  ~
  --------------------------------------------------------------------------------------------- ~
      1    -553.62392504   -5.54e+02      2.82e-02      6.07e-03 o    4.02e-02      9.49e-03 o  ~
  ---------------------------------------------------------------------------------------------

	Writing optimization data to binary file.
	Structure for next step:
	Cartesian Geometry (in Angstrom)
	    C    -1.3028104455   0.7367422024  -0.5539910595
	    C    -0.3096862484   0.1208946533   1.5604806148
	    C    -2.3778652152   1.3081225033   0.1142750131
	    C    -1.3825302305   0.6909266402   2.2338713610
	    C     1.9882807174   0.3031773148  -0.8455410143
	    C     0.8278826347  -1.8002902683  -0.9134367904
	    C     3.0444671839  -0.2852138764  -1.5122414138
	    C     1.9071721579  -2.3467403750  -1.5793420225
	    C    -0.2630456436   0.1399820913   0.1639883812
	    C     0.8593054087  -0.4567234880  -0.5362252571
	    C    -2.4462176868   1.3005118904   1.5272969803
	    N     2.9730875634  -1.5803463491  -1.8559494377
	    O    -3.4329954149   1.8242363427   2.1435090393
	    H    -1.2796315363   0.7592912043  -1.6390045328
	    H     0.4911512648  -0.3392766457   2.1306301812
	    H    -3.1702254838   1.7628819310  -0.4672625561
	    H    -1.3926902350   0.6627228340   3.3161577888
	    H     2.0464126576   1.3462114613  -0.5676157907
	    H    -0.0307811688  -2.4173430871  -0.6901658359
	    H     3.9507911227   0.2340207854  -1.7858566923
	    H     1.9591623214  -3.3751361799  -1.9030315319
	    H     3.7563876805  -1.9961897430  -2.3470051075
			--------------------------
			 OPTKING Finished Execution 
			--------------------------

    Structure for next step:
    Molecular point group: c1
    Full point group: C1

    Geometry (in Angstrom), charge = 0, multiplicity = 1:

    C           -1.300714452454     0.735594488890    -0.555287480145
    C           -0.307590255348     0.119746939789     1.559184194187
    C           -2.375769222218     1.306974789815     0.112978592427
    C           -1.380434237544     0.689778926671     2.232574940325
    C            1.990376710431     0.302029601276    -0.846837434941
    C            0.829978627658    -1.801437981782    -0.914733211036
    C            3.046563176915    -0.286361589883    -1.513537834460
    C            1.909268150874    -2.347888088543    -1.580638443181
    C           -0.260949650593     0.138834377741     0.162691960550
    C            0.861401401731    -0.457871201528    -0.537521677705
    C           -2.444121693807     1.299364176894     1.526000559642
    N            2.975183556371    -1.581494062601    -1.857245858372
    O           -3.430899421897     1.823088629225     2.142212618704
    H           -1.277535543248     0.758143490753    -1.640300953472
    H            0.493247257831    -0.340424359255     2.129333760585
    H           -3.168129490828     1.761734217442    -0.468558976705
    H           -1.390594241956     0.661575120514     3.314861368184
    H            2.048508650600     1.345063747808    -0.568912211364
    H           -0.028685175802    -2.418490800563    -0.691462256575
    H            3.952887115679     0.232873071842    -1.787153112898
    H            1.961258314393    -3.376283893404    -1.904327952572
    H            3.758483673455    -1.997337456465    -2.348301528148

gradient() will perform analytic gradient computation.

*** tstart() called on gpu-1-7.local
*** at Sun Nov 12 17:31:50 2017

    SCF Algorithm Type (re)set to DF.

*** tstart() called on gpu-1-7.local
*** at Sun Nov 12 17:31:50 2017

   => Loading Basis Set <=

    Name: AUG-CC-PVTZ
    Role: ORBITAL
    Keyword: BASIS
    atoms 1-11  entry C          line   221 file /cbio/jclab/home/chayas/anaconda/envs/py35/share/psi4/basis/aug-cc-pvtz.gbs 
    atoms 12    entry N          line   267 file /cbio/jclab/home/chayas/anaconda/envs/py35/share/psi4/basis/aug-cc-pvtz.gbs 
    atoms 13    entry O          line   313 file /cbio/jclab/home/chayas/anaconda/envs/py35/share/psi4/basis/aug-cc-pvtz.gbs 
    atoms 14-22 entry H          line    34 file /cbio/jclab/home/chayas/anaconda/envs/py35/share/psi4/basis/aug-cc-pvtz.gbs 


         ---------------------------------------------------------
                                   SCF
            by Justin Turney, Rob Parrish, and Andy Simmonett
                              RHF Reference
                        8 Threads,   4768 MiB Core
         ---------------------------------------------------------

  ==> Geometry <==

    Molecular point group: c1
    Full point group: C1

    Geometry (in Angstrom), charge = 0, multiplicity = 1:

       Center              X                  Y                   Z               Mass       
    ------------   -----------------  -----------------  -----------------  -----------------
           C         -1.300714452454     0.735594488890    -0.555287480145    12.000000000000
           C         -0.307590255348     0.119746939789     1.559184194187    12.000000000000
           C         -2.375769222218     1.306974789815     0.112978592427    12.000000000000
           C         -1.380434237544     0.689778926671     2.232574940325    12.000000000000
           C          1.990376710431     0.302029601276    -0.846837434941    12.000000000000
           C          0.829978627658    -1.801437981782    -0.914733211036    12.000000000000
           C          3.046563176915    -0.286361589883    -1.513537834460    12.000000000000
           C          1.909268150874    -2.347888088543    -1.580638443181    12.000000000000
           C         -0.260949650593     0.138834377741     0.162691960550    12.000000000000
           C          0.861401401731    -0.457871201528    -0.537521677705    12.000000000000
           C         -2.444121693807     1.299364176894     1.526000559642    12.000000000000
           N          2.975183556371    -1.581494062601    -1.857245858372    14.003074004780
           O         -3.430899421897     1.823088629225     2.142212618704    15.994914619560
           H         -1.277535543248     0.758143490753    -1.640300953472     1.007825032070
           H          0.493247257831    -0.340424359255     2.129333760585     1.007825032070
           H         -3.168129490828     1.761734217442    -0.468558976705     1.007825032070
           H         -1.390594241956     0.661575120514     3.314861368184     1.007825032070
           H          2.048508650600     1.345063747808    -0.568912211364     1.007825032070
           H         -0.028685175802    -2.418490800563    -0.691462256575     1.007825032070
           H          3.952887115679     0.232873071842    -1.787153112898     1.007825032070
           H          1.961258314393    -3.376283893404    -1.904327952572     1.007825032070
           H          3.758483673455    -1.997337456465    -2.348301528148     1.007825032070

  Running in c1 symmetry.

  Rotational constants: A =      0.09644  B =      0.01284  C =      0.01281 [cm^-1]
  Rotational constants: A =   2891.18876  B =    385.00287  C =    384.08430 [MHz]
  Nuclear repulsion =  698.463600933148314

  Charge       = 0
  Multiplicity = 1
  Electrons    = 90
  Nalpha       = 45
  Nbeta        = 45

  ==> Algorithm <==

  SCF Algorithm Type is DF.
  DIIS enabled.
  MOM disabled.
  Fractional occupation disabled.
  Guess Type is READ.
  Energy threshold   = 1.00e-10
  Density threshold  = 1.00e-10
  Integral threshold = 0.00e+00

  ==> Primary Basis <==

  Basis Set: AUG-CC-PVTZ
    Blend: AUG-CC-PVTZ
    Number of shells: 263
    Number of basis function: 805
    Number of Cartesian functions: 940
    Spherical Harmonics?: true
    Max angular momentum: 3

   => Loading Basis Set <=

    Name: (AUG-CC-PVTZ AUX)
    Role: JKFIT
    Keyword: DF_BASIS_SCF
    atoms 1-11  entry C          line   161 file /cbio/jclab/home/chayas/anaconda/envs/py35/share/psi4/basis/aug-cc-pvtz-jkfit.gbs 
    atoms 12    entry N          line   223 file /cbio/jclab/home/chayas/anaconda/envs/py35/share/psi4/basis/aug-cc-pvtz-jkfit.gbs 
    atoms 13    entry O          line   285 file /cbio/jclab/home/chayas/anaconda/envs/py35/share/psi4/basis/aug-cc-pvtz-jkfit.gbs 
    atoms 14-22 entry H          line    69 file /cbio/jclab/home/chayas/anaconda/envs/py35/share/psi4/basis/aug-cc-pvtz-jkfit.gbs 

  Reading orbitals from file 180, no projection.

  ==> Pre-Iterations <==

   -------------------------------------------------------
    Irrep   Nso     Nmo     Nalpha   Nbeta   Ndocc  Nsocc
   -------------------------------------------------------
     A        805     805       0       0       0       0
   -------------------------------------------------------
    Total     805     805      45      45      45       0
   -------------------------------------------------------

  ==> Integral Setup <==

  ==> DFJK: Density-Fitted J/K Matrices <==

    J tasked:                  Yes
    K tasked:                  Yes
    wK tasked:                  No
    OpenMP threads:              8
    Integrals threads:           8
    Memory (MB):              3576
    Algorithm:                Disk
    Integral Cache:           NONE
    Schwarz Cutoff:          1E-12
    Fitting Condition:       1E-12

   => Auxiliary Basis Set <=

  Basis Set: (AUG-CC-PVTZ AUX)
    Blend: AUG-CC-PVTZ-JKFIT
    Number of shells: 516
    Number of basis function: 1766
    Number of Cartesian functions: 2198
    Spherical Harmonics?: true
    Max angular momentum: 4

  Minimum eigenvalue in the overlap matrix is 7.1939868461E-07.
  Using Symmetric Orthogonalization.

  SCF Guess: Orbitals guess was supplied from a previous computation.

  ==> Iterations <==

                           Total Energy        Delta E     RMS |[F,P]|

   @DF-RHF iter   0:  -551.25770126757004   -5.51258e+02   4.59227e-04 
   @DF-RHF iter   1:  -551.19104408667124    6.66572e-02   9.58498e-05 
   @DF-RHF iter   2:  -551.19128988262287   -2.45796e-04   8.71422e-05 DIIS
   @DF-RHF iter   3:  -551.19153582939884   -2.45947e-04   7.61349e-06 DIIS
   @DF-RHF iter   4:  -551.19154035767804   -4.52828e-06   3.30191e-06 DIIS
   @DF-RHF iter   5:  -551.19154177329449   -1.41562e-06   1.12610e-06 DIIS
   @DF-RHF iter   6:  -551.19154220977146   -4.36477e-07   7.87294e-07 DIIS
   @DF-RHF iter   7:  -551.19154233073948   -1.20968e-07   3.63299e-07 DIIS
   @DF-RHF iter   8:  -551.19154235454687   -2.38074e-08   1.48525e-07 DIIS
   @DF-RHF iter   9:  -551.19154235835072   -3.80385e-09   4.85502e-08 DIIS
   @DF-RHF iter  10:  -551.19154235878955   -4.38831e-10   1.96787e-08 DIIS
   @DF-RHF iter  11:  -551.19154235885890   -6.93490e-11   6.10686e-09 DIIS
   @DF-RHF iter  12:  -551.19154235884525    1.36424e-11   2.58817e-09 DIIS
   @DF-RHF iter  13:  -551.19154235884957   -4.32010e-12   9.33364e-10 DIIS
   @DF-RHF iter  14:  -551.19154235884275    6.82121e-12   3.33497e-10 DIIS
   @DF-RHF iter  15:  -551.19154235885617   -1.34150e-11   9.06807e-11 DIIS

  ==> Post-Iterations <==

    Orbital Energies (a.u.)
    -----------------------

    Doubly Occupied:                                                      

       1A    -20.390648     2A    -15.742224     3A    -11.385906  
       4A    -11.385876     5A    -11.333504     6A    -11.309507  
       7A    -11.309463     8A    -11.214885     9A    -11.207510  
      10A    -11.207479    11A    -11.190822    12A    -11.159589  
      13A    -11.159559    14A     -1.417937    15A     -1.221568  
      16A     -1.194525    17A     -1.141189    18A     -1.094685  
      19A     -0.991258    20A     -0.969581    21A     -0.964120  
      22A     -0.903931    23A     -0.868370    24A     -0.784376  
      25A     -0.774356    26A     -0.766889    27A     -0.730450  
      28A     -0.700605    29A     -0.696656    30A     -0.682409  
      31A     -0.622736    32A     -0.605570    33A     -0.595319  
      34A     -0.586578    35A     -0.542297    36A     -0.516400  
      37A     -0.477786    38A     -0.473992    39A     -0.453610  
      40A     -0.444909    41A     -0.441048    42A     -0.388219  
      43A     -0.305509    44A     -0.301279    45A     -0.210091  

    Virtual:                                                              

      46A     -0.020367    47A      0.001400    48A      0.003136  
      49A      0.016387    50A      0.025467    51A      0.033057  
      52A      0.034946    53A      0.038009    54A      0.049003  
      55A      0.049201    56A      0.057832    57A      0.066162  
      58A      0.069298    59A      0.072762    60A      0.073408  
      61A      0.080977    62A      0.086555    63A      0.094828  
      64A      0.098559    65A      0.105784    66A      0.106642  
      67A      0.121485    68A      0.122869    69A      0.126867  
      70A      0.126951    71A      0.128184    72A      0.129557  
      73A      0.129843    74A      0.131876    75A      0.149531  
      76A      0.156042    77A      0.157588    78A      0.159416  
      79A      0.160327    80A      0.164974    81A      0.170387  
      82A      0.177553    83A      0.183843    84A      0.184410  
      85A      0.190210    86A      0.190542    87A      0.193042  
      88A      0.194334    89A      0.199377    90A      0.206937  
      91A      0.209603    92A      0.209695    93A      0.209964  
      94A      0.222515    95A      0.222884    96A      0.239890  
      97A      0.242200    98A      0.242559    99A      0.245419  
     100A      0.245447   101A      0.245576   102A      0.260506  
     103A      0.260985   104A      0.261927   105A      0.267858  
     106A      0.270973   107A      0.277857   108A      0.282951  
     109A      0.290258   110A      0.296387   111A      0.297868  
     112A      0.298392   113A      0.308220   114A      0.313642  
     115A      0.320861   116A      0.321818   117A      0.322516  
     118A      0.322801   119A      0.331967   120A      0.337942  
     121A      0.339006   122A      0.339115   123A      0.349785  
     124A      0.355301   125A      0.357085   126A      0.357268  
     127A      0.359171   128A      0.361178   129A      0.371094  
     130A      0.376095   131A      0.379650   132A      0.383781  
     133A      0.387167   134A      0.392677   135A      0.394414  
     136A      0.403864   137A      0.405161   138A      0.406059  
     139A      0.412591   140A      0.415725   141A      0.418074  
     142A      0.427747   143A      0.431930   144A      0.435593  
     145A      0.441451   146A      0.449822   147A      0.451320  
     148A      0.452383   149A      0.458862   150A      0.461185  
     151A      0.463716   152A      0.476235   153A      0.477338  
     154A      0.478141   155A      0.479571   156A      0.485223  
     157A      0.488312   158A      0.489438   159A      0.492175  
     160A      0.499843   161A      0.502215   162A      0.502528  
     163A      0.514335   164A      0.514616   165A      0.524539  
     166A      0.526497   167A      0.528538   168A      0.534363  
     169A      0.534816   170A      0.541382   171A      0.548026  
     172A      0.549525   173A      0.552096   174A      0.557505  
     175A      0.562673   176A      0.566182   177A      0.571335  
     178A      0.590468   179A      0.591199   180A      0.597130  
     181A      0.599164   182A      0.603306   183A      0.604591  
     184A      0.606188   185A      0.607537   186A      0.608633  
     187A      0.612602   188A      0.622965   189A      0.632166  
     190A      0.639992   191A      0.642799   192A      0.651868  
     193A      0.666042   194A      0.672161   195A      0.672280  
     196A      0.674607   197A      0.678262   198A      0.690035  
     199A      0.691389   200A      0.692164   201A      0.695633  
     202A      0.713607   203A      0.718182   204A      0.718638  
     205A      0.726200   206A      0.734331   207A      0.737428  
     208A      0.738051   209A      0.743680   210A      0.752687  
     211A      0.760188   212A      0.762708   213A      0.766807  
     214A      0.770102   215A      0.777490   216A      0.780361  
     217A      0.785056   218A      0.792182   219A      0.796713  
     220A      0.804693   221A      0.811671   222A      0.813996  
     223A      0.826755   224A      0.835695   225A      0.841448  
     226A      0.851970   227A      0.854716   228A      0.858765  
     229A      0.859071   230A      0.864311   231A      0.868110  
     232A      0.872474   233A      0.878000   234A      0.892872  
     235A      0.899175   236A      0.905530   237A      0.908368  
     238A      0.909721   239A      0.909917   240A      0.924930  
     241A      0.925567   242A      0.931136   243A      0.935712  
     244A      0.935833   245A      0.941644   246A      0.943955  
     247A      0.952050   248A      0.956408   249A      0.959751  
     250A      0.960654   251A      0.967761   252A      0.975134  
     253A      0.978129   254A      0.982599   255A      0.987743  
     256A      0.995608   257A      0.997180   258A      0.999998  
     259A      1.006778   260A      1.010580   261A      1.012282  
     262A      1.015889   263A      1.020687   264A      1.031766  
     265A      1.037697   266A      1.048235   267A      1.052020  
     268A      1.058551   269A      1.060604   270A      1.066642  
     271A      1.069767   272A      1.071585   273A      1.075266  
     274A      1.077994   275A      1.081952   276A      1.083765  
     277A      1.083831   278A      1.091202   279A      1.097413  
     280A      1.102838   281A      1.108440   282A      1.111599  
     283A      1.113207   284A      1.122746   285A      1.122990  
     286A      1.128025   287A      1.130317   288A      1.136871  
     289A      1.142020   290A      1.165235   291A      1.168381  
     292A      1.169236   293A      1.173715   294A      1.175145  
     295A      1.180326   296A      1.182076   297A      1.193017  
     298A      1.202925   299A      1.209142   300A      1.210093  
     301A      1.210200   302A      1.212899   303A      1.222785  
     304A      1.226846   305A      1.232852   306A      1.236504  
     307A      1.238036   308A      1.250499   309A      1.256793  
     310A      1.258851   311A      1.260268   312A      1.260807  
     313A      1.280078   314A      1.286710   315A      1.287849  
     316A      1.296323   317A      1.303021   318A      1.303450  
     319A      1.305862   320A      1.325737   321A      1.327307  
     322A      1.330408   323A      1.331914   324A      1.346421  
     325A      1.347422   326A      1.353721   327A      1.355894  
[...]
	 B(1,9,10)        =         2.106688	     120.704339
	 B(2,4,11)        =         2.148012	     123.072016
	 B(2,4,17)        =         2.092011	     119.863385
	 B(2,9,10)        =         2.106729	     120.706681
	 B(3,1,9)         =         2.107203	     120.733858
	 B(3,1,14)        =         2.089128	     119.698239
	 B(3,11,4)        =         1.986177	     113.799562
	 B(3,11,13)       =         2.148510	     123.100561
	 B(4,2,9)         =         2.107200	     120.733654
	 B(4,2,15)        =         2.089130	     119.698347
	 B(4,11,13)       =         2.148497	     123.099807
	 B(5,7,12)        =         2.078187	     119.071367
	 B(5,7,20)        =         2.169546	     124.305836
	 B(5,10,6)        =         2.038986	     116.825314
	 B(5,10,9)        =         2.122107	     121.587766
	 B(6,8,12)        =         2.078188	     119.071407
	 B(6,8,21)        =         2.169546	     124.305856
	 B(6,10,9)        =         2.122092	     121.586920
	 B(7,5,10)        =         2.112759	     121.052148
	 B(7,5,18)        =         2.091377	     119.827057
	 B(7,12,8)        =         2.145496	     122.927840
	 B(7,12,22)       =         2.068844	     118.536014
	 B(8,6,10)        =         2.112755	     121.051924
	 B(8,6,19)        =         2.091380	     119.827239
	 B(8,12,22)       =         2.068846	     118.536147
	 B(9,1,14)        =         2.086854	     119.567903
	 B(9,2,15)        =         2.086855	     119.567999
	 B(10,5,18)       =         2.079050	     119.120795
	 B(10,6,19)       =         2.079051	     119.120837
	 B(11,3,16)       =         2.043172	     117.065129
	 B(11,4,17)       =         2.043163	     117.064599
	 B(12,7,20)       =         2.035452	     116.622797
	 B(12,8,21)       =         2.035451	     116.622737
	 D(1,3,11,4)      =         0.000758	       0.043406
	 D(1,3,11,13)     =         3.140706	     179.949189
	 D(1,9,2,4)       =         0.000143	       0.008208
	 D(1,9,2,15)      =        -3.141423	    -179.990304
	 D(1,9,10,5)      =         1.570794	      89.999891
	 D(1,9,10,6)      =        -1.570791	     -89.999697
	 D(2,4,11,3)      =        -0.000735	      -0.042108
	 D(2,4,11,13)     =        -3.140683	    -179.947892
	 D(2,9,1,3)       =        -0.000121	      -0.006942
	 D(2,9,1,14)      =         3.141429	     179.990599
	 D(2,9,10,5)      =        -1.570663	     -89.992389
	 D(2,9,10,6)      =         1.570936	      90.008023
	 D(3,1,9,10)      =         3.141593	     180.000000
	 D(3,11,4,17)     =         3.140972	     179.964435
	 D(4,2,9,10)      =         3.141593	     180.000000
	 D(4,11,3,16)     =        -3.140975	    -179.964623
	 D(5,7,12,8)      =        -0.000041	      -0.002357
	 D(5,7,12,22)     =         3.141593	     180.000000
	 D(5,10,6,8)      =        -0.000025	      -0.001455
	 D(5,10,6,19)     =         3.141568	     179.998593
	 D(6,8,12,7)      =         0.000055	       0.003144
	 D(6,8,12,22)     =        -3.141578	    -179.999145
	 D(6,10,5,7)      =         0.000039	       0.002249
	 D(6,10,5,18)     =        -3.141568	    -179.998604
	 D(7,5,10,9)      =        -3.141547	    -179.997357
	 D(7,12,8,21)     =         3.141593	     180.000000
	 D(8,6,10,9)      =         3.141560	     179.998151
	 D(8,12,7,20)     =         3.141577	     179.999082
	 D(9,1,3,11)      =        -0.000363	      -0.020781
	 D(9,1,3,16)      =         3.141374	     179.987463
	 D(9,2,4,11)      =         0.000317	       0.018183
	 D(9,2,4,17)      =        -3.141393	    -179.988536
	 D(9,10,5,18)     =         0.000031	       0.001789
	 D(9,10,6,19)     =        -0.000031	      -0.001801
	 D(10,5,7,12)     =        -0.000000	      -0.000000
	 D(10,5,7,20)     =         3.141558	     179.997995
	 D(10,6,8,12)     =        -0.000020	      -0.001136
	 D(10,6,8,21)     =        -3.141552	    -179.997657
	 D(10,9,1,14)     =        -0.000032	      -0.001842
	 D(10,9,2,15)     =         0.000037	       0.002137
	 D(11,3,1,14)     =         3.141273	     179.981681
	 D(11,4,2,15)     =        -3.141301	    -179.983308
	 D(12,7,5,18)     =         3.141593	     180.000000
	 D(12,8,6,19)     =         3.141572	     179.998816
	 D(13,11,3,16)    =        -0.001027	      -0.058840
	 D(13,11,4,17)    =         0.001024	       0.058651
	 D(14,1,3,16)     =        -0.000176	      -0.010074
	 D(15,2,4,17)     =         0.000174	       0.009974
	 D(18,5,7,20)     =        -0.000020	      -0.001146
	 D(19,6,8,21)     =         0.000040	       0.002294
	 D(20,7,12,22)    =         0.000024	       0.001370
	 D(21,8,12,22)    =        -0.000041	      -0.002359

	Current energy   :      -553.6318814946

	Energy change for the previous step:
		Projected    :        -0.0000002090
		Actual       :        -0.0000001931

	Performing BFGS update.
	Previous computed or guess Hessian on step 1.
	Steps to be used in Hessian update: 5 4
	Adding user-defined constraint: Fragment 1; Coordinate 64:
		Value =     1.570794; Fixed value    =     1.570800
		Force =     0.000003; Force constant =     0.625000
	Removing off-diagonal coupling between coordinate 64 and others.
	Taking RFO optimization step.
	Going to follow RFO solution 1.
	Using RFO vector 1.
	Norm of target step-size    0.00300
	Projected energy change by RFO approximation:        -0.0000006867

	Back-transformation to cartesian coordinates...
	Could not converge backtransformation.
	Using first guess instead.

	--- Internal Coordinate Step in ANG or DEG, aJ/ANG or AJ/DEG ---
	 ---------------------------------------------------------------------------
	   Coordinate                Previous        Force       Change         New 
	   ----------                --------       ------       ------       ------
	    1 R(1,3)          =      1.377686    -0.000020    -0.000006     1.377680
	    2 R(1,9)          =      1.401296    -0.000310    -0.000040     1.401256
	    3 R(1,14)         =      1.083935    -0.000101    -0.000015     1.083921
	    4 R(2,4)          =      1.377686    -0.000031    -0.000007     1.377679
	    5 R(2,9)          =      1.401297    -0.000319    -0.000042     1.401255
	    6 R(2,15)         =      1.083934    -0.000093    -0.000014     1.083920
	    7 R(3,11)         =      1.439051    -0.000183    -0.000043     1.439008
	    8 R(3,16)         =      1.080922    -0.000308    -0.000064     1.080858
	    9 R(4,11)         =      1.439054    -0.000192    -0.000045     1.439009
	   10 R(4,17)         =      1.080920    -0.000305    -0.000063     1.080857
	   11 R(5,7)          =      1.374898    -0.000070     0.000004     1.374902
	   12 R(5,10)         =      1.401023    -0.000022    -0.000001     1.401022
	   13 R(5,18)         =      1.078263    -0.000207    -0.000035     1.078229
	   14 R(6,8)          =      1.374900    -0.000086     0.000002     1.374902
	   15 R(6,10)         =      1.401025    -0.000024    -0.000001     1.401023
	   16 R(6,19)         =      1.078263    -0.000211    -0.000034     1.078230
	   17 R(7,12)         =      1.343863    -0.000051    -0.000015     1.343848
	   18 R(7,20)         =      1.077219    -0.000051    -0.000009     1.077209
	   19 R(8,12)         =      1.343865    -0.000062    -0.000016     1.343848
	   20 R(8,21)         =      1.077217    -0.000041    -0.000007     1.077210
	   21 R(9,10)         =      1.446599     0.000577     0.000080     1.446679
	   22 R(11,13)        =      1.254831    -0.000035     0.000008     1.254839
	   23 R(12,22)        =      1.010014    -0.000196    -0.000025     1.009990
	   24 B(1,3,11)       =    123.071915    -0.000001    -0.003172   123.068743
	   25 B(1,3,16)       =    119.862955     0.000001     0.007370   119.870325
	   26 B(1,9,2)        =    118.588980    -0.000000    -0.001584   118.587397
	   27 B(1,9,10)       =    120.704339     0.000000     0.000809   120.705147
	   28 B(2,4,11)       =    123.072016    -0.000000    -0.003171   123.068845
	   29 B(2,4,17)       =    119.863385     0.000001     0.007086   119.870471
	   30 B(2,9,10)       =    120.706681    -0.000000     0.000775   120.707456
	   31 B(3,1,9)        =    120.733858     0.000000     0.002100   120.735959
	   32 B(3,1,14)       =    119.698239     0.000001     0.007811   119.706050
	   33 B(3,11,4)       =    113.799562     0.000000     0.003616   113.803178
	   34 B(3,11,13)      =    123.100561    -0.000000    -0.001941   123.098620
	   35 B(4,2,9)        =    120.733654     0.000001     0.002225   120.735879
	   36 B(4,2,15)       =    119.698347     0.000001     0.007471   119.705818
	   37 B(4,11,13)      =    123.099807     0.000000    -0.001606   123.098200
	   38 B(5,7,12)       =    119.071367     0.000000     0.002417   119.073783
	   39 B(5,7,20)       =    124.305836     0.000000     0.000581   124.306417
	   40 B(5,10,6)       =    116.825314    -0.000002    -0.005323   116.819991
	   41 B(5,10,9)       =    121.587766     0.000001     0.002293   121.590059
	   42 B(6,8,12)       =    119.071407     0.000000     0.002424   119.073831
	   43 B(6,8,21)       =    124.305856     0.000000     0.000548   124.306403
	   44 B(6,10,9)       =    121.586920     0.000001     0.003030   121.589950
	   45 B(7,5,10)       =    121.052148     0.000001     0.002436   121.054583
	   46 B(7,5,18)       =    119.827057    -0.000000     0.000636   119.827694
	   47 B(7,12,8)       =    122.927840    -0.000001    -0.004501   122.923338
	   48 B(7,12,22)      =    118.536014     0.000000     0.002343   118.538356
	   49 B(8,6,10)       =    121.051924     0.000001     0.002549   121.054473
	   50 B(8,6,19)       =    119.827239    -0.000000     0.000480   119.827719
	   51 B(8,12,22)      =    118.536147     0.000000     0.002159   118.538306
	   52 B(9,1,14)       =    119.567903    -0.000002    -0.009912   119.557991
	   53 B(9,2,15)       =    119.567999    -0.000002    -0.009695   119.558304
	   54 B(10,5,18)      =    119.120795    -0.000001    -0.003072   119.117723
	   55 B(10,6,19)      =    119.120837    -0.000001    -0.003029   119.117808
	   56 B(11,3,16)      =    117.065129    -0.000000    -0.004198   117.060932
	   57 B(11,4,17)      =    117.064599    -0.000000    -0.003915   117.060683
	   58 B(12,7,20)      =    116.622797    -0.000000    -0.002997   116.619799
	   59 B(12,8,21)      =    116.622737    -0.000000    -0.002971   116.619766
	   60 D(1,3,11,4)     =      0.043406    -0.000001    -0.048849    -0.005444
	   61 D(1,3,11,13)    =    179.949189     0.000001     0.061318   180.010506
	   62 D(1,9,2,4)      =      0.008208    -0.000000    -0.006347     0.001860
	   63 D(1,9,2,15)     =   -179.990304    -0.000000    -0.009696  -180.000000
	   64 D(1,9,10,5)     =     89.999891     0.000000     0.000630    90.000521
	   65 D(1,9,10,6)     =    -89.999697     0.000000     0.004311   -89.995385
	   66 D(2,4,11,3)     =     -0.042108     0.000001     0.050104     0.007996
	   67 D(2,4,11,13)    =   -179.947892    -0.000001    -0.060062  -180.007954
	   68 D(2,9,1,3)      =     -0.006942     0.000000     0.006942     0.000000
	   69 D(2,9,1,14)     =    179.990599     0.000000     0.007120   179.997718
	   70 D(2,9,10,5)     =    -89.992389     0.000000    -0.002789   -89.995178
	   71 D(2,9,10,6)     =     90.008023     0.000000     0.000892    90.008915
	   72 D(3,1,9,10)     =    180.000000     0.000000     0.004840   180.004840
	   73 D(3,11,4,17)    =    179.964435     0.000000     0.040914   180.005348
	   74 D(4,2,9,10)     =    180.000000    -0.000000    -0.002351   179.997649
	   75 D(4,11,3,16)    =   -179.964623    -0.000000    -0.039181  -180.003804
	   76 D(5,7,12,8)     =     -0.002357     0.000000     0.002357     0.000000
	   77 D(5,7,12,22)    =    180.000000     0.000000     0.000000   180.000000
	   78 D(5,10,6,8)     =     -0.001455     0.000000     0.002844     0.001388
	   79 D(5,10,6,19)    =    179.998593     0.000000     0.001407   180.000000
	   80 D(6,8,12,7)     =      0.003144    -0.000000    -0.001181     0.001962
	   81 D(6,8,12,22)    =   -179.999145    -0.000000     0.000735  -179.998410
	   82 D(6,10,5,7)     =      0.002249    -0.000000    -0.002249     0.000000
	   83 D(6,10,5,18)    =   -179.998604    -0.000000    -0.005155  -180.003759
	   84 D(7,5,10,9)     =   -179.997357    -0.000000     0.001616  -179.995741
	   85 D(7,12,8,21)    =    180.000000     0.000000     0.000000   180.000000
	   86 D(8,6,10,9)     =    179.998151    -0.000000    -0.000670   179.997481
	   87 D(8,12,7,20)    =    179.999082     0.000000     0.002684   180.001766
	   88 D(9,1,3,11)     =     -0.020781     0.000000     0.022210     0.001429
	   89 D(9,1,3,16)     =    179.987463     0.000000     0.012537   180.000000
	   90 D(9,2,4,11)     =      0.018183    -0.000000    -0.024722    -0.006539
	   91 D(9,2,4,17)     =   -179.988536    -0.000000    -0.015284  -180.003820
	   92 D(9,10,5,18)    =      0.001789     0.000000    -0.001789     0.000000
	   93 D(9,10,6,19)    =     -0.001801    -0.000000    -0.002115    -0.003916
	   94 D(10,5,7,12)    =      0.000000     0.000000    -0.000939    -0.000939
	   95 D(10,5,7,20)    =    179.997995     0.000000    -0.001102   179.996893
	   96 D(10,6,8,12)    =     -0.001136     0.000000    -0.001398    -0.002533
	   97 D(10,6,8,21)    =   -179.997657    -0.000000    -0.002343  -180.000000
	   98 D(10,9,1,14)    =     -0.001842     0.000000     0.003772     0.001929
	   99 D(10,9,2,15)    =      0.002137    -0.000000    -0.005621    -0.003484
	  100 D(11,3,1,14)    =    179.981681     0.000000     0.022662   180.004344
	  101 D(11,4,2,15)    =   -179.983308    -0.000000    -0.022096  -180.005404
	  102 D(12,7,5,18)    =    180.000000     0.000000     0.003200   180.003200
	  103 D(12,8,6,19)    =    179.998816     0.000000     0.000058   179.998874
	  104 D(13,11,3,16)   =     -0.058840     0.000001     0.070986     0.012146
	  105 D(13,11,4,17)   =      0.058651    -0.000001    -0.069253    -0.010602
	  106 D(14,1,3,16)    =     -0.010074     0.000000     0.012734     0.002660
	  107 D(15,2,4,17)    =      0.009974    -0.000000    -0.012659    -0.002685
	  108 D(18,5,7,20)    =     -0.001146     0.000000     0.002178     0.001033
	  109 D(19,6,8,21)    =      0.002294    -0.000000    -0.000525     0.001769
	  110 D(20,7,12,22)   =      0.001370    -0.000000     0.000767     0.002138
	  111 D(21,8,12,22)   =     -0.002359     0.000000     0.001274    -0.001085
	 ---------------------------------------------------------------------------
	Successfully symmetrized geometry.
	 Forces used to impose fixed constraints are not included.
	  Forces zeroed: 64 

  ==> Convergence Check <==

  Measures of convergence in internal coordinates in au.
  Criteria marked as inactive (o), active & met (*), and active & unmet ( ).
  ---------------------------------------------------------------------------------------------
   Step     Total Energy     Delta E     MAX Force     RMS Force      MAX Disp      RMS Disp   
  ---------------------------------------------------------------------------------------------
    Convergence Criteria    1.00e-06 *    3.00e-04 *             o    1.20e-03 *             o
  ---------------------------------------------------------------------------------------------
      6    -553.63188149   -1.93e-07 *    7.00e-05 *    1.67e-05 o    1.24e-03      2.85e-04 o  ~
  ---------------------------------------------------------------------------------------------


  **** Optimization is complete! (in 6 steps) ****

  ==> Optimization Summary <==

  Measures of convergence in internal coordinates in au.
  --------------------------------------------------------------------------------------------------------------- ~
   Step         Total Energy             Delta E       MAX Force       RMS Force        MAX Disp        RMS Disp  ~
  --------------------------------------------------------------------------------------------------------------- ~
      1    -553.623925039150   -553.623925039150      0.02816036      0.00606856      0.04016014      0.00949138  ~
      2    -553.628840465795     -0.004915426645      0.01391197      0.00352404      0.04074443      0.00949205  ~
      3    -553.631360584647     -0.002520118852      0.00560850      0.00137207      0.02812867      0.00692365  ~
      4    -553.631877768978     -0.000517184330      0.00074557      0.00013150      0.00199434      0.00054244  ~
      5    -553.631881301468     -0.000003532490      0.00010315      0.00002976      0.00169449      0.00043269  ~
      6    -553.631881494613     -0.000000193145      0.00007000      0.00001673      0.00123894      0.00028450  ~
  --------------------------------------------------------------------------------------------------------------- ~

	Writing optimization data to binary file.
	Final energy is   -553.6318814946133
	Final (previous) structure:
	Cartesian Geometry (in Angstrom)
	    C    -1.3062728662   0.7382830217  -0.5480819680
	    C    -0.3159276676   0.1239777724   1.5610395276
	    C    -2.3718981742   1.3046914767   0.1164803103
	    C    -1.3810074025   0.6900170702   2.2267900630
	    C     2.0045375869   0.2853903095  -0.8580245955
	    C     0.8520200101  -1.8037379857  -0.9255263717
	    C     3.0614467318  -0.2908909564  -1.5222436599
	    C     1.9213424692  -2.3575387951  -1.5890057891
	    C    -0.2578210711   0.1369762339   0.1610084400
	    C     0.8608079869  -0.4575627317  -0.5374478346
	    C    -2.4843997100   1.3199155590   1.5510461617
	    N     2.9878048165  -1.5880531956  -1.8656321908
	    O    -3.4542895922   1.8364700279   2.1569219212
	    H    -1.2774559787   0.7574278186  -1.6314649589
	    H     0.4866057806  -0.3368036510   2.1254269849
	    H    -3.1729770286   1.7649823929  -0.4445869125
	    H    -1.4113720603   0.6722177066   3.3071370341
	    H     2.0506760127   1.3252823107  -0.5766924988
	    H    -0.0099822212  -2.4100010612  -0.6973830150
	    H     3.9642162453   0.2300035521  -1.7944129710
	    H     1.9703215197  -3.3842796691  -1.9111855445
	    H     3.7688117454  -2.0031535279  -2.3533296868
	Saving final (previous) structure.
			--------------------------
			 OPTKING Finished Execution 
			--------------------------

    Final optimized geometry and variables:
    Molecular point group: c1
    Full point group: C1

    Geometry (in Angstrom), charge = 0, multiplicity = 1:

    C           -1.306272866221     0.738283021725    -0.548081968048
    C           -0.315927667570     0.123977772445     1.561039527573
    C           -2.371898174239     1.304691476726     0.116480310294
    C           -1.381007402482     0.690017070238     2.226790062955
    C            2.004537586905     0.285390309492    -0.858024595459
    C            0.852020010087    -1.803737985698    -0.925526371724
    C            3.061446731775    -0.290890956385    -1.522243659853
    C            1.921342469189    -2.357538795052    -1.589005789097
    C           -0.257821071148     0.136976233916     0.161008440009
    C            0.860807986895    -0.457562731681    -0.537447834578
    C           -2.484399710029     1.319915558976     1.551046161714
    N            2.987804816488    -1.588053195572    -1.865632190817
    O           -3.454289592212     1.836470027914     2.156921921200
    H           -1.277455978747     0.757427818585    -1.631464958882
    H            0.486605780593    -0.336803650966     2.125426984890
    H           -3.172977028555     1.764982392938    -0.444586912489
    H           -1.411372060261     0.672217706553     3.307137034082
    H            2.050676012676     1.325282310674    -0.576692498774
    H           -0.009982221165    -2.410001061204    -0.697383014962
    H            3.964216245313     0.230003552148    -1.794412970965
    H            1.970321519728    -3.384279669113    -1.911185544454
    H            3.768811745383    -2.003153527929    -2.353329686754

	Cleaning optimization helper files.

*** Psi4 exiting successfully. Buy a developer a beer!
