
    -----------------------------------------------------------------------
          Psi4: An Open-Source Ab Initio Electronic Structure Package
                               Psi4 1.1 release

                         Git: Rev {HEAD} add49b9 


    R. M. Parrish, L. A. Burns, D. G. A. Smith, A. C. Simmonett,
    A. E. DePrince III, E. G. Hohenstein, U. Bozkaya, A. Yu. Sokolov,
    R. Di Remigio, R. M. Richard, J. F. Gonthier, A. M. James,
    H. R. McAlexander, A. Kumar, M. Saitow, X. Wang, B. P. Pritchard,
    P. Verma, H. F. Schaefer III, K. Patkowski, R. A. King, E. F. Valeev,
    F. A. Evangelista, J. M. Turney, T. D. Crawford, and C. D. Sherrill,
    J. Chem. Theory Comput. in press (2017).
    (doi: 10.1021/acs.jctc.7b00174)

    -----------------------------------------------------------------------


    Psi4 started on: Saturday, 11 November 2017 07:23PM

    Process ID:   5090
    PSIDATADIR: /cbio/jclab/home/chayas/anaconda/envs/py35/share/psi4
    Memory:     500.0 MiB
    Threads:    8
    
  ==> Input File <==

--------------------------------------------------------------------------

memory 5 Gb

molecule phepyrFOH_cation {
  symmetry C1
  1 1 
  C      1.885   -1.036   -0.112
  C      0.807   -0.463   0.561
  C      4.830   -1.443   -0.930
  C      4.321   -3.578   0.063
  C      1.800   -1.079   2.676
  C      5.894   -2.040   -1.592
  C      5.398   -4.120   -0.624
  C      2.921   -1.631   0.608
  C      4.038   -2.225   -0.095
  C      0.764   -0.484   1.955
  C      2.878   -1.652   2.002
  N      6.144   -3.345   -1.422
  O      -0.289   0.076   2.612
  F      3.866   -2.220   2.709
  H      1.904   -1.012   -1.199
  H      0.002   -0.002   -0.006
  H      4.632   -0.385   -1.072
  H      3.719   -4.212   0.708
  H      1.772   -1.099   3.762
  H      6.561   -1.511   -2.259
  H      5.691   -5.159   -0.561
  H      6.930   -3.764   -1.918
  H      -0.796   0.644   2.011
  units Angstrom
}

dih_string = "2 10 13 23 345"
set optking fixed_dihedral = $dih_string

optimize('MP2/aug-cc-PVTZ')
--------------------------------------------------------------------------

  Memory set to   4.657 GiB by Python driver.
gradient() will perform analytic gradient computation.

*** tstart() called on gpu-1-7.local
*** at Sat Nov 11 19:23:54 2017

    SCF Algorithm Type (re)set to DF.

*** tstart() called on gpu-1-7.local
*** at Sat Nov 11 19:23:54 2017

   => Loading Basis Set <=

    Name: AUG-CC-PVTZ
    Role: ORBITAL
    Keyword: BASIS
    atoms 1-11  entry C          line   221 file /cbio/jclab/home/chayas/anaconda/envs/py35/share/psi4/basis/aug-cc-pvtz.gbs 
    atoms 12    entry N          line   267 file /cbio/jclab/home/chayas/anaconda/envs/py35/share/psi4/basis/aug-cc-pvtz.gbs 
    atoms 13    entry O          line   313 file /cbio/jclab/home/chayas/anaconda/envs/py35/share/psi4/basis/aug-cc-pvtz.gbs 
    atoms 14    entry F          line   359 file /cbio/jclab/home/chayas/anaconda/envs/py35/share/psi4/basis/aug-cc-pvtz.gbs 
    atoms 15-23 entry H          line    34 file /cbio/jclab/home/chayas/anaconda/envs/py35/share/psi4/basis/aug-cc-pvtz.gbs 


         ---------------------------------------------------------
                                   SCF
            by Justin Turney, Rob Parrish, and Andy Simmonett
                              RHF Reference
                        8 Threads,   4768 MiB Core
         ---------------------------------------------------------

  ==> Geometry <==

    Molecular point group: c1
    Full point group: C1

    Geometry (in Angstrom), charge = 1, multiplicity = 1:

       Center              X                  Y                   Z               Mass       
    ------------   -----------------  -----------------  -----------------  -----------------
           C         -1.334631868375     0.760432656497    -0.779864298620    12.000000000000
           C         -2.412631868375     1.333432656497    -0.106864298620    12.000000000000
           C          1.610368131625     0.353432656497    -1.597864298620    12.000000000000
           C          1.101368131625    -1.781567343503    -0.604864298620    12.000000000000
           C         -1.419631868375     0.717432656497     2.008135701380    12.000000000000
           C          2.674368131625    -0.243567343503    -2.259864298620    12.000000000000
           C          2.178368131625    -2.323567343503    -1.291864298620    12.000000000000
           C         -0.298631868375     0.165432656497    -0.059864298620    12.000000000000
           C          0.818368131625    -0.428567343503    -0.762864298620    12.000000000000
           C         -2.455631868375     1.312432656497     1.287135701380    12.000000000000
           C         -0.341631868375     0.144432656497     1.334135701380    12.000000000000
           N          2.924368131625    -1.548567343503    -2.089864298620    14.003074004780
           O         -3.508631868375     1.872432656497     1.944135701380    15.994914619560
           F          0.646368131625    -0.423567343503     2.041135701380    18.998403224000
           H         -1.315631868375     0.784432656497    -1.866864298620     1.007825032070
           H         -3.217631868375     1.794432656497    -0.673864298620     1.007825032070
           H          1.412368131625     1.411432656497    -1.739864298620     1.007825032070
           H          0.499368131625    -2.415567343503     0.040135701380     1.007825032070
           H         -1.447631868375     0.697432656497     3.094135701380     1.007825032070
           H          3.341368131625     0.285432656497    -2.926864298620     1.007825032070
           H          2.471368131625    -3.362567343503    -1.228864298620     1.007825032070
           H          3.710368131625    -1.967567343503    -2.585864298620     1.007825032070
           H         -4.015631868375     2.440432656497     1.343135701380     1.007825032070

  Running in c1 symmetry.

  Rotational constants: A =      0.06266  B =      0.01289  C =      0.01149 [cm^-1]
  Rotational constants: A =   1878.60587  B =    386.46181  C =    344.58862 [MHz]
  Nuclear repulsion =  829.324651386302776

  Charge       = 1
  Multiplicity = 1
  Electrons    = 98
  Nalpha       = 49
  Nbeta        = 49

  ==> Algorithm <==

  SCF Algorithm Type is DF.
  DIIS enabled.
  MOM disabled.
  Fractional occupation disabled.
  Guess Type is SAD.
  Energy threshold   = 1.00e-10
  Density threshold  = 1.00e-10
  Integral threshold = 0.00e+00

  ==> Primary Basis <==

  Basis Set: AUG-CC-PVTZ
    Blend: AUG-CC-PVTZ
    Number of shells: 277
    Number of basis function: 851
    Number of Cartesian functions: 995
    Spherical Harmonics?: true
    Max angular momentum: 3

   => Loading Basis Set <=

    Name: (AUG-CC-PVTZ AUX)
    Role: JKFIT
    Keyword: DF_BASIS_SCF
    atoms 1-11  entry C          line   161 file /cbio/jclab/home/chayas/anaconda/envs/py35/share/psi4/basis/aug-cc-pvtz-jkfit.gbs 
    atoms 12    entry N          line   223 file /cbio/jclab/home/chayas/anaconda/envs/py35/share/psi4/basis/aug-cc-pvtz-jkfit.gbs 
    atoms 13    entry O          line   285 file /cbio/jclab/home/chayas/anaconda/envs/py35/share/psi4/basis/aug-cc-pvtz-jkfit.gbs 
    atoms 14    entry F          line   347 file /cbio/jclab/home/chayas/anaconda/envs/py35/share/psi4/basis/aug-cc-pvtz-jkfit.gbs 
    atoms 15-23 entry H          line    69 file /cbio/jclab/home/chayas/anaconda/envs/py35/share/psi4/basis/aug-cc-pvtz-jkfit.gbs 

  ==> Pre-Iterations <==

   -------------------------------------------------------
    Irrep   Nso     Nmo     Nalpha   Nbeta   Ndocc  Nsocc
   -------------------------------------------------------
     A        851     851       0       0       0       0
   -------------------------------------------------------
    Total     851     851      49      49      49       0
   -------------------------------------------------------

  ==> Integral Setup <==

  ==> DFJK: Density-Fitted J/K Matrices <==

    J tasked:                  Yes
    K tasked:                  Yes
    wK tasked:                  No
    OpenMP threads:              8
    Integrals threads:           8
    Memory (MB):              3576
    Algorithm:                Disk
    Integral Cache:           NONE
    Schwarz Cutoff:          1E-12
    Fitting Condition:       1E-12

   => Auxiliary Basis Set <=

  Basis Set: (AUG-CC-PVTZ AUX)
    Blend: AUG-CC-PVTZ-JKFIT
    Number of shells: 546
    Number of basis function: 1870
    Number of Cartesian functions: 2329
    Spherical Harmonics?: true
    Max angular momentum: 4

  Minimum eigenvalue in the overlap matrix is 6.8895224689E-07.
  Using Symmetric Orthogonalization.

  SCF Guess: Superposition of Atomic Densities via on-the-fly atomic UHF.

  ==> Iterations <==

                           Total Energy        Delta E     RMS |[F,P]|

   @DF-RHF iter   0:  -654.16224330841590   -6.54162e+02   1.51537e-02 
   @DF-RHF iter   1:  -650.19809854044729    3.96414e+00   1.41605e-03 
   @DF-RHF iter   2:  -650.50119121423893   -3.03093e-01   5.37243e-04 DIIS
   @DF-RHF iter   3:  -650.54515410073827   -4.39629e-02   3.51223e-04 DIIS
   @DF-RHF iter   4:  -650.55717383499859   -1.20197e-02   6.99817e-05 DIIS
   @DF-RHF iter   5:  -650.55873180888602   -1.55797e-03   4.90317e-05 DIIS
   @DF-RHF iter   6:  -650.55904462019339   -3.12811e-04   1.14683e-05 DIIS
   @DF-RHF iter   7:  -650.55907960176467   -3.49816e-05   5.81086e-06 DIIS
   @DF-RHF iter   8:  -650.55908384511349   -4.24335e-06   2.13365e-06 DIIS
   @DF-RHF iter   9:  -650.55908472781414   -8.82701e-07   1.00131e-06 DIIS
   @DF-RHF iter  10:  -650.55908500590044   -2.78086e-07   4.35403e-07 DIIS
   @DF-RHF iter  11:  -650.55908507207334   -6.61729e-08   1.47012e-07 DIIS
   @DF-RHF iter  12:  -650.55908507924210   -7.16875e-09   5.64743e-08 DIIS
   @DF-RHF iter  13:  -650.55908507981894   -5.76847e-10   2.05082e-08 DIIS
   @DF-RHF iter  14:  -650.55908507990011   -8.11724e-11   6.08478e-09 DIIS
   @DF-RHF iter  15:  -650.55908507986408    3.60387e-11   2.52490e-09 DIIS
   @DF-RHF iter  16:  -650.55908507987760   -1.35287e-11   7.01430e-10 DIIS
   @DF-RHF iter  17:  -650.55908507989807   -2.04636e-11   3.72049e-10 DIIS
   @DF-RHF iter  18:  -650.55908507988602    1.20508e-11   1.71392e-10 DIIS
   @DF-RHF iter  19:  -650.55908507988670   -6.82121e-13   9.03765e-11 DIIS

  ==> Post-Iterations <==

    Orbital Energies (a.u.)
    -----------------------

    Doubly Occupied:                                                      

       1A    -26.442793     2A    -20.703788     3A    -15.843696  
       4A    -11.490368     5A    -11.488705     6A    -11.467957  
       7A    -11.451845     8A    -11.437604     9A    -11.422135  
      10A    -11.420715    11A    -11.385830    12A    -11.378466  
      13A    -11.358039    14A    -11.357391    15A     -1.760801  
      16A     -1.518996    17A     -1.518885    18A     -1.325434  
      19A     -1.270882    20A     -1.242959    21A     -1.163950  
      22A     -1.151677    23A     -1.072969    24A     -1.061676  
      25A     -0.986291    26A     -0.971076    27A     -0.965908  
      28A     -0.890209    29A     -0.878422    30A     -0.867915  
      31A     -0.836496    32A     -0.827513    33A     -0.821837  
      34A     -0.802698    35A     -0.798719    36A     -0.780812  
      37A     -0.767782    38A     -0.747085    39A     -0.725320  
      40A     -0.716385    41A     -0.708718    42A     -0.681643  
      43A     -0.666347    44A     -0.635190    45A     -0.618193  
      46A     -0.578450    47A     -0.540681    48A     -0.469535  
      49A     -0.447485  

    Virtual:                                                              

      50A     -0.105523    51A     -0.086825    52A     -0.067361  
      53A     -0.063681    54A     -0.059127    55A     -0.050330  
      56A     -0.044034    57A     -0.038978    58A     -0.034033  
      59A     -0.030242    60A     -0.024130    61A     -0.019380  
      62A     -0.012680    63A     -0.007973    64A     -0.006697  
      65A     -0.004205    66A      0.000209    67A      0.008439  
      68A      0.009232    69A      0.013043    70A      0.014878  
      71A      0.018421    72A      0.024851    73A      0.026888  
      74A      0.029171    75A      0.033537    76A      0.034943  
      77A      0.037131    78A      0.039539    79A      0.045024  
      80A      0.045549    81A      0.050104    82A      0.053436  
      83A      0.062508    84A      0.063190    85A      0.069161  
      86A      0.072997    87A      0.076421    88A      0.077503  
      89A      0.083444    90A      0.088788    91A      0.092976  
      92A      0.096091    93A      0.101465    94A      0.107407  
      95A      0.111505    96A      0.117525    97A      0.118493  
      98A      0.122988    99A      0.130162   100A      0.133707  
     101A      0.134875   102A      0.136751   103A      0.140470  
     104A      0.144039   105A      0.147298   106A      0.156878  
     107A      0.158718   108A      0.160725   109A      0.163645  
     110A      0.167250   111A      0.170183   112A      0.171673  
     113A      0.177986   114A      0.180450   115A      0.182909  
     116A      0.186929   117A      0.194382   118A      0.196176  
     119A      0.198635   120A      0.205778   121A      0.208428  
     122A      0.210797   123A      0.213169   124A      0.221635  
     125A      0.225146   126A      0.225877   127A      0.229652  
     128A      0.233474   129A      0.237121   130A      0.238899  
     131A      0.245115   132A      0.249107   133A      0.251898  
     134A      0.255064   135A      0.259919   136A      0.266351  
     137A      0.269013   138A      0.277970   139A      0.280691  
     140A      0.281592   141A      0.283504   142A      0.292445  
     143A      0.300343   144A      0.301320   145A      0.304057  
     146A      0.310695   147A      0.312840   148A      0.317607  
     149A      0.320155   150A      0.322189   151A      0.327401  
     152A      0.330793   153A      0.332551   154A      0.337063  
     155A      0.339137   156A      0.342375   157A      0.345779  
     158A      0.349985   159A      0.351434   160A      0.353162  
     161A      0.359742   162A      0.367414   163A      0.369467  
     164A      0.370069   165A      0.372846   166A      0.376462  
     167A      0.379181   168A      0.382617   169A      0.385622  
     170A      0.392726   171A      0.397225   172A      0.398813  
     173A      0.401815   174A      0.405279   175A      0.409297  
     176A      0.413178   177A      0.415984   178A      0.420957  
     179A      0.423076   180A      0.425813   181A      0.429006  
     182A      0.433624   183A      0.443753   184A      0.444761  
     185A      0.450059   186A      0.451660   187A      0.461133  
     188A      0.466694   189A      0.472738   190A      0.474306  
     191A      0.479313   192A      0.486039   193A      0.489673  
     194A      0.491685   195A      0.504532   196A      0.508600  
     197A      0.517448   198A      0.520967   199A      0.524840  
     200A      0.531675   201A      0.540287   202A      0.544824  
     203A      0.553469   204A      0.561391   205A      0.566077  
     206A      0.566982   207A      0.571480   208A      0.572213  
     209A      0.579045   210A      0.589304   211A      0.597195  
     212A      0.598140   213A      0.603149   214A      0.605384  
     215A      0.609817   216A      0.613289   217A      0.614691  
     218A      0.622327   219A      0.625603   220A      0.630287  
     221A      0.635557   222A      0.639800   223A      0.651577  
     224A      0.663261   225A      0.671677   226A      0.674737  
     227A      0.680250   228A      0.685165   229A      0.691823  
     230A      0.698493   231A      0.702832   232A      0.708497  
     233A      0.711879   234A      0.723050   235A      0.726388  
     236A      0.731077   237A      0.733402   238A      0.742155  
     239A      0.745395   240A      0.750888   241A      0.753207  
     242A      0.754650   243A      0.762950   244A      0.767931  
     245A      0.772863   246A      0.776674   247A      0.778365  
     248A      0.782921   249A      0.785897   250A      0.790621  
     251A      0.798298   252A      0.801693   253A      0.804584  
     254A      0.808618   255A      0.814597   256A      0.815506  
     257A      0.820060   258A      0.828163   259A      0.830429  
     260A      0.838755   261A      0.844877   262A      0.847929  
     263A      0.848328   264A      0.855004   265A      0.861942  
     266A      0.868292   267A      0.874297   268A      0.877419  
     269A      0.882275   270A      0.887424   271A      0.891465  
     272A      0.898703   273A      0.901450   274A      0.906998  
     275A      0.909808   276A      0.914083   277A      0.921602  
     278A      0.926864   279A      0.928853   280A      0.933913  
     281A      0.935142   282A      0.939760   283A      0.945083  
     284A      0.947511   285A      0.955300   286A      0.958686  
     287A      0.965807   288A      0.967242   289A      0.973773  
     290A      0.977374   291A      0.984395   292A      0.986305  
     293A      0.988132   294A      0.992894   295A      0.994333  
     296A      0.999377   297A      1.003712   298A      1.006938  
     299A      1.013712   300A      1.015967   301A      1.023200  
     302A      1.026043   303A      1.029940   304A      1.035473  
     305A      1.043911   306A      1.049747   307A      1.053881  
     308A      1.056928   309A      1.066253   310A      1.072037  
     311A      1.076525   312A      1.078269   313A      1.082261  
     314A      1.086973   315A      1.090444   316A      1.097697  
     317A      1.102619   318A      1.113830   319A      1.116619  
     320A      1.123247   321A      1.124696   322A      1.131740  
     323A      1.136569   324A      1.137883   325A      1.144817  
     326A      1.151843   327A      1.153155   328A      1.162599  
     329A      1.169510   330A      1.180805   331A      1.182526  
     332A      1.191280   333A      1.198236   334A      1.201799  
     335A      1.217660   336A      1.218692   337A      1.219284  
     338A      1.232189   339A      1.239428   340A      1.245611  
     341A      1.253150   342A      1.257467   343A      1.258614  
     344A      1.269389   345A      1.271449   346A      1.279559  
     347A      1.283359   348A      1.287090   349A      1.292306  
     350A      1.303727   351A      1.308237   352A      1.313337  
     353A      1.322549   354A      1.325317   355A      1.335623  
     356A      1.337068   357A      1.345252   358A      1.358126  
     359A      1.362672   360A      1.368381   361A      1.379116  
     362A      1.385180   363A      1.386075   364A      1.395546  
     365A      1.399554   366A      1.413167   367A      1.421866  
     368A      1.427941   369A      1.430705   370A      1.437187  
     371A      1.449199   372A      1.451568   373A      1.464411  
     374A      1.466707   375A      1.475357   376A      1.485262  
     377A      1.493731   378A      1.500877   379A      1.506872  
     380A      1.510648   381A      1.516523   382A      1.525725  
     383A      1.529049   384A      1.533947   385A      1.538411  
     386A      1.542986   387A      1.556273   388A      1.560119  
     389A      1.563407   390A      1.589877   391A      1.593498  
     392A      1.597937   393A      1.601156   394A      1.606626  
     395A      1.620146   396A      1.628709   397A      1.642065  
     398A      1.645137   399A      1.652052   400A      1.661316  
     401A      1.671442   402A      1.672980   403A      1.682074  
     404A      1.688717   405A      1.695162   406A      1.705863  
     407A      1.712706   408A      1.721178   409A      1.729405  
     410A      1.737082   411A      1.739204   412A      1.747108  
     413A      1.755721   414A      1.766107   415A      1.770838  
     416A      1.781267   417A      1.788438   418A      1.794683  
     419A      1.801622   420A      1.805216   421A      1.814507  
     422A      1.825473   423A      1.828200   424A      1.836583  
     425A      1.843073   426A      1.852340   427A      1.860288  
     428A      1.865122   429A      1.874296   430A      1.882459  
     431A      1.889385   432A      1.896217   433A      1.904709  
     434A      1.912081   435A      1.920501   436A      1.924541  
     437A      1.931484   438A      1.931874   439A      1.943878  
     440A      1.955251   441A      1.960779   442A      1.977354  
     443A      1.981395   444A      1.981930   445A      1.993189  
     446A      2.003792   447A      2.022670   448A      2.024832  
     449A      2.035702   450A      2.045346   451A      2.052992  
     452A      2.054025   453A      2.063403   454A      2.072776  
     455A      2.076745   456A      2.082737   457A      2.086106  
     458A      2.098675   459A      2.117194   460A      2.121530  
     461A      2.131506   462A      2.136527   463A      2.166135  
     464A      2.167291   465A      2.177179   466A      2.184123  
     467A      2.195329   468A      2.205818   469A      2.222773  
     470A      2.224963   471A      2.227513   472A      2.237534  
     473A      2.257913   474A      2.266896   475A      2.271282  
     476A      2.277996   477A      2.294591   478A      2.301126  
     479A      2.310069   480A      2.314140   481A      2.333087  
     482A      2.337366   483A      2.351581   484A      2.365753  
     485A      2.375923   486A      2.383204   487A      2.396080  
     488A      2.402765   489A      2.410318   490A      2.413624  
     491A      2.434704   492A      2.437203   493A      2.469021  
     494A      2.476553   495A      2.485820   496A      2.496427  
     497A      2.517350   498A      2.528494   499A      2.534692  
     500A      2.542354   501A      2.565731   502A      2.575176  
     503A      2.579265   504A      2.597087   505A      2.600931  
     506A      2.625125   507A      2.631329   508A      2.642055  
     509A      2.656042   510A      2.692921   511A      2.698641  
     512A      2.715169   513A      2.730792   514A      2.754742  
     515A      2.770698   516A      2.788085   517A      2.810464  
     518A      2.814283   519A      2.846546   520A      2.857396  
     521A      2.913735   522A      2.922689   523A      2.927444  
     524A      2.943114   525A      2.950624   526A      2.962426  
     527A      2.970558   528A      2.984336   529A      2.995707  
     530A      3.003689   531A      3.027249   532A      3.033517  
     533A      3.044071   534A      3.056729   535A      3.076742  
     536A      3.080648   537A      3.103421   538A      3.112946  
     539A      3.118378   540A      3.136810   541A      3.151431  
     542A      3.157131   543A      3.158870   544A      3.178306  
     545A      3.191817   546A      3.207978   547A      3.214991  
     548A      3.222576   549A      3.233780   550A      3.246032  
     551A      3.253903   552A      3.266799   553A      3.272206  
     554A      3.286287   555A      3.289757   556A      3.306710  
     557A      3.313170   558A      3.325782   559A      3.327031  
     560A      3.337018   561A      3.352345   562A      3.361189  
     563A      3.367275   564A      3.375031   565A      3.379320  
     566A      3.384449   567A      3.391308   568A      3.401405  
     569A      3.412442   570A      3.418181   571A      3.429947  
     572A      3.438030   573A      3.443692   574A      3.453189  
     575A      3.458020   576A      3.468310   577A      3.485354  
     578A      3.493208   579A      3.506119   580A      3.509123  
     581A      3.517656   582A      3.537987   583A      3.544377  
     584A      3.548520   585A      3.556289   586A      3.561466  
     587A      3.576724   588A      3.582466   589A      3.588500  
     590A      3.603513   591A      3.611243   592A      3.622052  
     593A      3.624320   594A      3.642128   595A      3.649109  
     596A      3.657582   597A      3.661753   598A      3.675751  
     599A      3.686140   600A      3.691578   601A      3.701788  
     602A      3.707848   603A      3.715542   604A      3.718086  
     605A      3.729704   606A      3.738372   607A      3.745316  
     608A      3.754553   609A      3.765344   610A      3.770410  
     611A      3.775441   612A      3.790125   613A      3.792484  
     614A      3.802453   615A      3.816509   616A      3.819408  
     617A      3.823180   618A      3.837163   619A      3.851649  
     620A      3.854697   621A      3.862827   622A      3.865747  
     623A      3.878929   624A      3.884813   625A      3.895885  
     626A      3.897570   627A      3.904839   628A      3.928969  
     629A      3.932326   630A      3.948207   631A      3.949635  
     632A      3.951870   633A      3.968029   634A      3.984847  
     635A      3.987352   636A      3.994014   637A      4.004142  
     638A      4.011563   639A      4.023213   640A      4.030314  
     641A      4.038102   642A      4.048174   643A      4.060621  
     644A      4.069781   645A      4.075251   646A      4.078615  
     647A      4.087495   648A      4.101651   649A      4.109801  
     650A      4.114554   651A      4.130953   652A      4.138848  
     653A      4.148417   654A      4.158850   655A      4.171968  
     656A      4.181289   657A      4.183350   658A      4.204710  
     659A      4.208328   660A      4.216279   661A      4.222640  
     662A      4.226477   663A      4.232403   664A      4.241469  
     665A      4.249933   666A      4.254513   667A      4.265398  
     668A      4.267455   669A      4.287712   670A      4.290265  
     671A      4.295793   672A      4.304301   673A      4.311000  
     674A      4.316817   675A      4.336286   676A      4.342016  
     677A      4.357810   678A      4.364985   679A      4.373240  
     680A      4.377970   681A      4.385058   682A      4.415050  
     683A      4.419764   684A      4.433321   685A      4.442990  
     686A      4.446520   687A      4.451818   688A      4.459562  
     689A      4.477597   690A      4.490048   691A      4.496970  
     692A      4.513282   693A      4.526696   694A      4.566281  
     695A      4.578115   696A      4.586972   697A      4.592062  
     698A      4.619093   699A      4.622790   700A      4.628379  
     701A      4.634443   702A      4.637171   703A      4.653760  
     704A      4.679179   705A      4.683465   706A      4.702166  
     707A      4.717870   708A      4.734425   709A      4.740558  
     710A      4.757703   711A      4.759671   712A      4.780201  
     713A      4.787301   714A      4.810295   715A      4.813613  
     716A      4.821026   717A      4.830413   718A      4.844721  
     719A      4.845302   720A      4.855261   721A      4.888232  
     722A      4.899314   723A      4.916205   724A      4.918382  
     725A      4.926537   726A      4.932269   727A      4.935261  
     728A      4.951899   729A      4.970756   730A      4.989077  
     731A      4.999835   732A      5.010117   733A      5.024899  
     734A      5.028059   735A      5.039618   736A      5.050240  
     737A      5.059477   738A      5.071230   739A      5.075590  
     740A      5.095815   741A      5.111654   742A      5.156203  
     743A      5.168096   744A      5.173859   745A      5.187048  
     746A      5.202212   747A      5.209278   748A      5.215012  
     749A      5.241048   750A      5.247954   751A      5.266686  
     752A      5.270327   753A      5.315716   754A      5.333059  
     755A      5.349312   756A      5.354570   757A      5.372224  
     758A      5.383227   759A      5.387091   760A      5.411686  
     761A      5.443244   762A      5.478867   763A      5.495657  
     764A      5.508970   765A      5.532593   766A      5.547866  
     767A      5.563016   768A      5.590321   769A      5.605204  
     770A      5.625045   771A      5.641056   772A      5.660514  
     773A      5.684980   774A      5.693706   775A      5.723183  
     776A      5.758028   777A      5.778643   778A      5.831308  
     779A      5.837945   780A      5.880166   781A      5.917578  
     782A      5.932131   783A      5.973720   784A      5.981221  
     785A      6.010357   786A      6.055083   787A      6.092005  
     788A      6.137321   789A      6.152004   790A      6.181865  
     791A      6.213368   792A      6.236006   793A      6.265806  
     794A      6.338139   795A      6.348664   796A      6.404080  
     797A      6.426340   798A      6.463261   799A      6.513154  
     800A      6.559088   801A      6.591201   802A      6.608549  
     803A      6.651884   804A      6.728291   805A      6.743576  
     806A      6.802541   807A      6.824457   808A      6.836268  
     809A      6.885035   810A      6.908961   811A      6.961665  
     812A      6.974543   813A      7.074654   814A      7.172792  
     815A      7.283043   816A      7.332436   817A      7.371893  
     818A      7.446229   819A      7.539478   820A      7.572536  
     821A      7.596468   822A      7.650381   823A      7.881574  
     824A      8.274416   825A      8.513653   826A      8.889671  
     827A      8.930798   828A      9.153999   829A      9.172962  
     830A      9.290878   831A      9.403694   832A      9.423907  
     833A      9.476338   834A      9.529491   835A      9.599977  
     836A      9.917014   837A      9.963552   838A     15.840780  
     839A     16.071346   840A     16.427340   841A     16.472785  
     842A     16.806548   843A     16.885989   844A     18.720861  
     845A     19.118513   846A     19.444313   847A     19.600550  
     848A     20.040467   849A     20.143756   850A     20.375084  
     851A     21.705606  

    Final Occupation by Irrep:
              A 
    DOCC [    49 ]

  Energy converged.

  @DF-RHF Final Energy:  -650.55908507988670

   => Energetics <=

    Nuclear Repulsion Energy =            829.3246513863027758
    One-Electron Energy =               -2518.8309345080701860
    Two-Electron Energy =                1038.9471980418807107
    DFT Exchange-Correlation Energy =       0.0000000000000000
    Empirical Dispersion Energy =           0.0000000000000000
    PCM Polarization Energy =               0.0000000000000000
    EFP Energy =                            0.0000000000000000
    Total Energy =                       -650.5590850798866995



Properties will be evaluated at   0.000000,   0.000000,   0.000000 Bohr

Properties computed using the SCF density matrix

  Nuclear Dipole Moment: (a.u.)
     X:     0.7133      Y:     0.1017      Z:    -8.0456

  Electronic Dipole Moment: (a.u.)
     X:     1.9329      Y:    -1.3021      Z:     4.7617

  Dipole Moment: (a.u.)
     X:     2.6462      Y:    -1.2004      Z:    -3.2839     Total:     4.3849

  Dipole Moment: (Debye)
     X:     6.7259      Y:    -3.0510      Z:    -8.3469     Total:    11.1453


*** tstop() called on gpu-1-7.local at Sat Nov 11 19:32:01 2017
Module time:
	user time   =    1185.07 seconds =      19.75 minutes
	system time =      50.03 seconds =       0.83 minutes
	total time  =        487 seconds =       8.12 minutes
Total time:
	user time   =    1185.08 seconds =      19.75 minutes
	system time =      50.03 seconds =       0.83 minutes
	total time  =        487 seconds =       8.12 minutes

  //>>>>>>>>>>>>>>>>>>>>>>>>>>>>>>>>>>>//
  //               DFMP2               //
  //<<<<<<<<<<<<<<<<<<<<<<<<<<<<<<<<<<<//

   => Loading Basis Set <=

    Name: (AUG-CC-PVTZ AUX)
    Role: RIFIT
    Keyword: DF_BASIS_MP2
    atoms 1-11  entry C          line   147 file /cbio/jclab/home/chayas/anaconda/envs/py35/share/psi4/basis/aug-cc-pvtz-ri.gbs 
    atoms 12    entry N          line   205 file /cbio/jclab/home/chayas/anaconda/envs/py35/share/psi4/basis/aug-cc-pvtz-ri.gbs 
    atoms 13    entry O          line   263 file /cbio/jclab/home/chayas/anaconda/envs/py35/share/psi4/basis/aug-cc-pvtz-ri.gbs 
    atoms 14    entry F          line   321 file /cbio/jclab/home/chayas/anaconda/envs/py35/share/psi4/basis/aug-cc-pvtz-ri.gbs 
    atoms 15-23 entry H          line    29 file /cbio/jclab/home/chayas/anaconda/envs/py35/share/psi4/basis/aug-cc-pvtz-ri.gbs 

	 --------------------------------------------------------
	                          DF-MP2                         
	      2nd-Order Density-Fitted Moller-Plesset Theory     
	              RMP2 Wavefunction,   8 Threads             
	                                                         
	        Rob Parrish, Justin Turney, Andy Simmonett,      
	           Ed Hohenstein, and C. David Sherrill          
	 --------------------------------------------------------

   => Auxiliary Basis Set <=

  Basis Set: (AUG-CC-PVTZ AUX)
    Blend: AUG-CC-PVTZ-RI
    Number of shells: 518
    Number of basis function: 1898
    Number of Cartesian functions: 2399
    Spherical Harmonics?: true
    Max angular momentum: 4

	 --------------------------------------------------------
	                 NBF =   851, NAUX =  1898
	 --------------------------------------------------------
	   CLASS    FOCC     OCC    AOCC    AVIR     VIR    FVIR
	   PAIRS       0      49      49     802     802       0
	 --------------------------------------------------------


         ------------------------------------------------------------
                                     CPHF                           
                                  Rob Parrish                       
         ------------------------------------------------------------

  ==> Geometry <==

    Molecular point group: c1
    Full point group: C1

    Geometry (in Angstrom), charge = 1, multiplicity = 1:

       Center              X                  Y                   Z               Mass       
    ------------   -----------------  -----------------  -----------------  -----------------
           C         -1.334631868375     0.760432656497    -0.779864298620    12.000000000000
           C         -2.412631868375     1.333432656497    -0.106864298620    12.000000000000
           C          1.610368131625     0.353432656497    -1.597864298620    12.000000000000
           C          1.101368131625    -1.781567343503    -0.604864298620    12.000000000000
           C         -1.419631868375     0.717432656497     2.008135701380    12.000000000000
           C          2.674368131625    -0.243567343503    -2.259864298620    12.000000000000
           C          2.178368131625    -2.323567343503    -1.291864298620    12.000000000000
           C         -0.298631868375     0.165432656497    -0.059864298620    12.000000000000
           C          0.818368131625    -0.428567343503    -0.762864298620    12.000000000000
           C         -2.455631868375     1.312432656497     1.287135701380    12.000000000000
           C         -0.341631868375     0.144432656497     1.334135701380    12.000000000000
           N          2.924368131625    -1.548567343503    -2.089864298620    14.003074004780
           O         -3.508631868375     1.872432656497     1.944135701380    15.994914619560
           F          0.646368131625    -0.423567343503     2.041135701380    18.998403224000
           H         -1.315631868375     0.784432656497    -1.866864298620     1.007825032070
           H         -3.217631868375     1.794432656497    -0.673864298620     1.007825032070
           H          1.412368131625     1.411432656497    -1.739864298620     1.007825032070
           H          0.499368131625    -2.415567343503     0.040135701380     1.007825032070
           H         -1.447631868375     0.697432656497     3.094135701380     1.007825032070
           H          3.341368131625     0.285432656497    -2.926864298620     1.007825032070
           H          2.471368131625    -3.362567343503    -1.228864298620     1.007825032070
           H          3.710368131625    -1.967567343503    -2.585864298620     1.007825032070
           H         -4.015631868375     2.440432656497     1.343135701380     1.007825032070

  Nuclear repulsion =  829.324651386302776
  Reference energy  = -650.559085079886700

  ==> Basis Set <==

  Basis Set: AUG-CC-PVTZ
    Blend: AUG-CC-PVTZ
    Number of shells: 277
    Number of basis function: 851
    Number of Cartesian functions: 995
    Spherical Harmonics?: true
    Max angular momentum: 3

  ==> CGRSolver (by Rob Parrish) <==

   Number of roots    =         1
   Preconditioning    =    JACOBI
   Convergence cutoff =     1E-06
   Maximum iterations =       100

  ==> CPHFRHamiltonian (by Rob Parrish) <== 

  ==> DFJK: Density-Fitted J/K Matrices <==

    J tasked:                  Yes
    K tasked:                  Yes
    wK tasked:                  No
    OpenMP threads:              8
    Integrals threads:           8
    Memory (MB):              3576
    Algorithm:                Disk
    Integral Cache:           NONE
    Schwarz Cutoff:          1E-12
    Fitting Condition:       1E-12

   => Auxiliary Basis Set <=

  Basis Set: (AUG-CC-PVTZ AUX)
    Blend: AUG-CC-PVTZ-JKFIT
    Number of shells: 546
    Number of basis function: 1870
    Number of Cartesian functions: 2329
    Spherical Harmonics?: true
    Max angular momentum: 4

  ==> CPHF Iterations <==

  => Iterations <=

             Iter  Converged  Remaining    Residual
  CGR           1          0          1   1.201E-01
  CGR           2          0          1   4.739E-02
  CGR           3          0          1   2.771E-02
  CGR           4          0          1   9.026E-03
  CGR           5          0          1   3.794E-03
  CGR           6          0          1   1.595E-03
  CGR           7          0          1   5.055E-04
  CGR           8          0          1   2.141E-04
  CGR           9          0          1   9.765E-05
  CGR          10          0          1   3.856E-05
  CGR          11          0          1   1.430E-05
  CGR          12          0          1   5.194E-06
  CGR          13          0          1   1.850E-06
  CGR          14          1          0   6.762E-07

    CGRSolver converged.

  ==> DFCorrGrad: Density-Fitted Correlated Gradients <==

    OpenMP threads:              8
    Integrals threads:           8
    Memory (MB):              3576
    Schwarz Cutoff:          0E+00
    Fitting Condition:       1E-12

   => Auxiliary Basis Set <=

  Basis Set: (AUG-CC-PVTZ AUX)
    Blend: AUG-CC-PVTZ-JKFIT
    Number of shells: 546
    Number of basis function: 1870
    Number of Cartesian functions: 2329
    Spherical Harmonics?: true
    Max angular momentum: 4

	-----------------------------------------------------------
	 ==================> DF-MP2 Energies <==================== 
	-----------------------------------------------------------
	 Reference Energy          =    -650.5590850798866995 [Eh]
	 Singles Energy            =      -0.0000000000000004 [Eh]
	 Same-Spin Energy          =      -0.6691144430346663 [Eh]
	 Opposite-Spin Energy      =      -2.0139847966512101 [Eh]
	 Correlation Energy        =      -2.6830992396858768 [Eh]
	 Total Energy              =    -653.2421843195726296 [Eh]
	-----------------------------------------------------------
	 ================> DF-SCS-MP2 Energies <================== 
	-----------------------------------------------------------
	 SCS Same-Spin Scale       =       0.3333333333333333 [-]
	 SCS Opposite-Spin Scale   =       1.2000000000000000 [-]
	 SCS Same-Spin Energy      =      -0.2230381476782221 [Eh]
	 SCS Opposite-Spin Energy  =      -2.4167817559814520 [Eh]
	 SCS Correlation Energy    =      -2.6398199036596743 [Eh]
	 SCS Total Energy          =    -653.1989049835464130 [Eh]
	-----------------------------------------------------------


  -Total Gradient:
     Atom            X                  Y                   Z
    ------   -----------------  -----------------  -----------------
       1        0.008999445404    -0.010532185363    -0.007994533203
       2       -0.008139517404     0.004174270707     0.008394961380
       3       -0.010578143644     0.008029579480     0.010284907827
       4       -0.014409657756     0.006683164179     0.005295215397
       5       -0.004183318075     0.003554036846    -0.005584264420
       6        0.002134997291    -0.011567339545     0.003262967689
       7        0.006168180971     0.007787780274    -0.007904538528
       8       -0.003280330932     0.001609869030    -0.002069137561
       9        0.003675762899    -0.002128074065    -0.004099970070
      10        0.006594453017    -0.006334773628     0.007061883636
      11        0.027196078996    -0.008841528482     0.000213641621
      12        0.000958312585    -0.001055891640    -0.000641827950
      13       -0.010876194263     0.002896840636    -0.001814286657
      14        0.000899473802    -0.001031060629     0.004940857214
      15       -0.001672522591     0.001654302177    -0.005466054693
      16       -0.003388991795     0.002775334302    -0.003101334658
      17       -0.001276184785     0.005453378652    -0.001558346642
      18       -0.003365853274    -0.003956573707     0.003753841113
      19       -0.000189735202    -0.000938398822     0.005457528410
      20        0.002099382377     0.000196012431    -0.002149621661
      21        0.001880249156    -0.002249287480    -0.000398518678
      22        0.004492565152    -0.002589403755    -0.003008289253
      23       -0.003738451937     0.006409948406    -0.002875080311


*** tstop() called on gpu-1-7.local at Sat Nov 11 20:12:52 2017
Module time:
	user time   =    6337.87 seconds =     105.63 minutes
	system time =     112.51 seconds =       1.88 minutes
	total time  =       2938 seconds =      48.97 minutes
Total time:
	user time   =    6337.88 seconds =     105.63 minutes
	system time =     112.51 seconds =       1.88 minutes
	total time  =       2938 seconds =      48.97 minutes

			-----------------------------------------
			 OPTKING 2.0: for geometry optimizations 
			  - R.A. King,  Bethel University        
			-----------------------------------------

	Internal coordinates to be generated automatically.
	Detected frag 1 with atoms:  1 2 3 4 5 6 7 8 9 10 11 12 13 14 15 16 17 18 19 20
	 21 22 23
	---Fragment 1 Bond Connectivity---
	 1 : 2 8 15
	 2 : 1 10 16
	 3 : 6 9 17
	 4 : 7 9 18
	 5 : 10 11 19
	 6 : 3 12 20
	 7 : 4 12 21
	 8 : 1 9 11
	 9 : 3 4 8
	 10 : 2 5 13
	 11 : 5 8 14
	 12 : 6 7 22
	 13 : 10 23
	 14 : 11
	 15 : 1
	 16 : 2
	 17 : 3
	 18 : 4
	 19 : 5
	 20 : 6
	 21 : 7
	 22 : 12
	 23 : 13

	Assuming in current code that numbering for constraints corresponds to unified fragment.
	Fixed dihedral atom list: 
	     2    10    13    23
	---Fragment 1 Geometry and Gradient---
	 C          -2.5220887194        1.4370094633       -1.4737299452
	 C          -4.5592134907        2.5198225374       -0.2019442578
	 C           3.0431547419        0.6678909272       -3.0195259219
	 C           2.0812841403       -3.3666743665       -1.1430278720
	 C          -2.6827154407        1.3557512396        3.7948265133
	 C           5.0538233473       -0.4602755741       -4.2705246219
	 C           4.1165191854       -4.3909059305       -2.4412697252
	 C          -0.5643324458        0.3126224142       -0.1131271295
	 C           1.5464916447       -0.8098749087       -1.4416046009
	 C          -4.6404717144        2.4801382886        2.4323339715
	 C          -0.6455906695        0.2729381654        2.5211510997
	 N           5.5262548805       -2.9263681776       -3.9492711793
	 O          -6.6303533323        3.5383849231        3.6738840408
	 F           1.2214587498       -0.8004262781        3.8571874757
	 H          -2.4861839229        1.4823628905       -3.5278622517
	 H          -6.0804430277        3.3909862847       -1.2734189751
	 H           2.6689889676        2.6672211758       -3.2878670328
	 H           0.9436690083       -4.5647607348        0.0758454838
	 H          -2.7356277725        1.3179567169        5.8470690936
	 H           6.3142706779        0.5393895502       -5.5309719525
	 H           4.6702089423       -6.3543313826       -2.3222169789
	 H           7.0115796210       -3.7181634272       -4.8865753412
	 H          -7.5884444817        4.6117493665        2.5381586349
	             0.0089994454       -0.0105321854       -0.0079945332
	            -0.0081395174        0.0041742707        0.0083949614
	            -0.0105781436        0.0080295795        0.0102849078
	            -0.0144096578        0.0066831642        0.0052952154
	            -0.0041833181        0.0035540368       -0.0055842644
	             0.0021349973       -0.0115673395        0.0032629677
	             0.0061681810        0.0077877803       -0.0079045385
	            -0.0032803309        0.0016098690       -0.0020691376
	             0.0036757629       -0.0021280741       -0.0040999701
	             0.0065944530       -0.0063347736        0.0070618836
	             0.0271960790       -0.0088415285        0.0002136416
	             0.0009583126       -0.0010558916       -0.0006418280
	            -0.0108761943        0.0028968406       -0.0018142867
	             0.0008994738       -0.0010310606        0.0049408572
	            -0.0016725226        0.0016543022       -0.0054660547
	            -0.0033889918        0.0027753343       -0.0031013347
	            -0.0012761848        0.0054533787       -0.0015583466
	            -0.0033658533       -0.0039565737        0.0037538411
	            -0.0001897352       -0.0009383988        0.0054575284
	             0.0020993824        0.0001960124       -0.0021496217
	             0.0018802492       -0.0022492875       -0.0003985187
	             0.0044925652       -0.0025894038       -0.0030082893
	            -0.0037384519        0.0064099484       -0.0028750803

	Previous optimization step data not found.  Starting new optimization.

	---Fragment 1 Intrafragment Coordinates---
	 - Coordinate -           - BOHR/RAD -       - ANG/DEG -
	 R(1,2)           =         2.634350	       1.394038
	 R(1,8)           =         2.635962	       1.394891
	 R(1,15)          =         2.054947	       1.087431
	 R(2,10)          =         2.635830	       1.394821
	 R(2,16)          =         2.054537	       1.087214
	 R(3,6)           =         2.623079	       1.388074
	 R(3,9)           =         2.629378	       1.391407
	 R(3,17)          =         2.051665	       1.085694
	 R(4,7)           =         2.622339	       1.387682
	 R(4,9)           =         2.629140	       1.391281
	 R(4,18)          =         2.053103	       1.086455
	 R(5,10)          =         2.636938	       1.395407
	 R(5,11)          =         2.635263	       1.394521
	 R(5,19)          =         2.053272	       1.086545
	 R(6,12)          =         2.531404	       1.339561
	 R(6,20)          =         2.043719	       1.081489
	 R(7,12)          =         2.531066	       1.339382
	 R(7,21)          =         2.043474	       1.081360
	 R(8,9)           =         2.735038	       1.447320
	 R(8,11)          =         2.635830	       1.394821
	 R(10,13)         =         2.573123	       1.361638
	 R(11,14)         =         2.534359	       1.341125
	 R(12,22)         =         1.926569	       1.019496
	 R(13,23)         =         1.833009	       0.969987
	 B(1,2,10)        =         2.094553	     120.009056
	 B(1,2,16)        =         2.088723	     119.675016
	 B(1,8,9)         =         2.091569	     119.838095
	 B(1,8,11)        =         2.093692	     119.959722
	 B(2,1,8)         =         2.094940	     120.031219
	 B(2,1,15)        =         2.079469	     119.144799
	 B(2,10,5)        =         2.094306	     119.994870
	 B(2,10,13)       =         2.094247	     119.991510
	 B(3,6,12)        =         2.096160	     120.101096
	 B(3,6,20)        =         2.160978	     123.814942
	 B(3,9,4)         =         2.093156	     119.928982
	 B(3,9,8)         =         2.094542	     120.008404
	 B(4,7,12)        =         2.095824	     120.081885
	 B(4,7,21)        =         2.161239	     123.829863
	 B(4,9,8)         =         2.095488	     120.062613
	 B(5,10,13)       =         2.094633	     120.013619
	 B(5,11,8)        =         2.095181	     120.045019
	 B(5,11,14)       =         2.081414	     119.256220
	 B(6,3,9)         =         2.072362	     118.737620
	 B(6,3,17)        =         2.090402	     119.771194
	 B(6,12,7)        =         2.135730	     122.368334
	 B(6,12,22)       =         2.074333	     118.850498
	 B(7,4,9)         =         2.073138	     118.782073
	 B(7,4,18)        =         2.089816	     119.737652
	 B(7,12,22)       =         2.073122	     118.781161
	 B(8,1,15)        =         2.108776	     120.823969
	 B(8,11,14)       =         2.106591	     120.698759
	 B(9,3,17)        =         2.120421	     121.491171
	 B(9,4,18)        =         2.120230	     121.480258
	 B(9,8,11)        =         2.097924	     120.202184
	 B(10,2,16)       =         2.099909	     120.315896
	 B(10,5,11)       =         2.093699	     119.960108
	 B(10,5,19)       =         2.100355	     120.341451
	 B(10,13,23)      =         1.924187	     110.247816
	 B(11,5,19)       =         2.089132	     119.698439
	 B(12,6,20)       =         2.026047	     116.083959
	 B(12,7,21)       =         2.026122	     116.088250
	 D(1,2,10,5)      =        -0.000325	      -0.018609
	 D(1,2,10,13)     =         3.141388	     179.988267
	 D(1,8,9,3)       =         1.047203	      60.000294
	 D(1,8,9,4)       =        -2.094232	    -119.990639
	 D(1,8,11,5)      =         0.000325	       0.018608
	 D(1,8,11,14)     =        -3.141528	    -179.996269
	 D(2,1,8,9)       =         3.141277	     179.981897
	 D(2,1,8,11)      =        -0.000348	      -0.019945
	 D(2,10,5,11)     =         0.000301	       0.017261
	 D(2,10,5,19)     =        -3.141029	    -179.967685
	 D(2,10,13,23)    =        -0.261610	     -14.989151
	 D(3,6,12,7)      =        -0.000167	      -0.009589
	 D(3,6,12,22)     =         3.140892	     179.959844
	 D(3,9,4,7)       =        -0.000213	      -0.012204
	 D(3,9,4,18)      =        -3.140964	    -179.964007
	 D(3,9,8,11)      =        -2.094358	    -119.997860
	 D(4,7,12,6)      =         0.000492	       0.028196
	 D(4,7,12,22)     =        -3.140567	    -179.941258
	 D(4,9,3,6)       =         0.000525	       0.030092
	 D(4,9,3,17)      =         3.141327	     179.984799
	 D(4,9,8,11)      =         1.047393	      60.011207
	 D(5,10,2,16)     =         3.140149	     179.917291
	 D(5,10,13,23)    =         2.880103	     165.017726
	 D(5,11,8,9)      =        -3.141300	    -179.983240
	 D(6,3,9,8)       =        -3.140909	    -179.960854
	 D(6,12,7,21)     =        -3.140902	    -179.960420
	 D(7,4,9,8)       =         3.141222	     179.978736
	 D(7,12,6,20)     =         3.141065	     179.969740
	 D(8,1,2,10)      =         0.000348	       0.019955
	 D(8,1,2,16)      =        -3.140133	    -179.916358
	 D(8,9,3,17)      =        -0.000107	      -0.006146
	 D(8,9,4,18)      =         0.000470	       0.026933
	 D(8,11,5,10)     =        -0.000301	      -0.017270
	 D(8,11,5,19)     =         3.141030	     179.967774
	 D(9,3,6,12)      =        -0.000344	      -0.019721
	 D(9,3,6,20)      =        -3.141547	    -179.997375
	 D(9,4,7,12)      =        -0.000293	      -0.016764
	 D(9,4,7,21)      =         3.141085	     179.970928
	 D(9,8,1,15)      =         0.000403	       0.023110
	 D(9,8,11,14)     =         0.000033	       0.001883
	 D(10,2,1,15)     =         3.141234	     179.979432
	 D(10,5,11,14)    =         3.141547	     179.997392
	 D(11,5,10,13)    =        -3.141411	    -179.989616
	 D(11,8,1,15)     =        -3.141221	    -179.978731
	 D(12,6,3,17)     =        -3.141160	    -179.975226
	 D(12,7,4,18)     =         3.140474	     179.935898
	 D(13,10,2,16)    =        -0.001324	      -0.075833
	 D(13,10,5,19)    =         0.000444	       0.025437
	 D(14,11,5,19)    =        -0.000307	      -0.017564
	 D(15,1,2,16)     =         0.000753	       0.043120
	 D(17,3,6,20)     =         0.000822	       0.047120
	 D(18,4,7,21)     =        -0.001334	      -0.076410
	 D(20,6,12,22)    =        -0.001062	      -0.060827
	 D(21,7,12,22)    =         0.001224	       0.070126
	 R(4,14)          =         5.685691	       3.008738

	Current energy   :      -653.2421843196

	Generating empirical Hessian (Schlegel '84) for each fragment.
	Adding user-defined constraint: Fragment 1; Coordinate 72:
		Value =    -0.261610; Fixed value    =    -0.261799
		Force =    -0.000095; Force constant =     0.500000
	Removing off-diagonal coupling between coordinate 72 and others.
	Taking RFO optimization step.
	Going to follow RFO solution 1.
	Using RFO vector 1.

	Determining step-restricting scale parameter for RS-RFO.
	Maximum step size allowed    0.10000

	 Iter      |step|        alpha        rfo_root  
	------------------------------------------------
	    0     0.31699       1.00000           1
	    1     0.21234       3.49296           1
	    2     0.15657       8.92728           1
	    3     0.12417      19.48329           1
	    4     0.10661      32.31727           1
	    5     0.10068      38.79834           1
	    6     0.10001      39.63150           1
	------------------------------------------------
	Norm of target step-size    0.10001
	Projected energy change by RFO approximation:        -0.0047807959

	Back-transformation to cartesian coordinates...
	Successfully converged to displaced geometry.
	First geometry is closer to target in internal coordinates, so am using that one.
	First geometry has RMS(Delta(q)) = 1.75e-04

	--- Internal Coordinate Step in ANG or DEG, aJ/ANG or AJ/DEG ---
	 ---------------------------------------------------------------------------
	   Coordinate                Previous        Force       Change         New 
	   ----------                --------       ------       ------       ------
	    1 R(1,2)          =      1.394038    -0.087807    -0.008474     1.385564
	    2 R(1,8)          =      1.394891    -0.018942    -0.001704     1.393187
	    3 R(1,15)         =      1.087431    -0.045076    -0.005345     1.082086
	    4 R(2,10)         =      1.394821    -0.004479    -0.000403     1.394419
	    5 R(2,16)         =      1.087214    -0.043694    -0.005193     1.082022
	    6 R(3,6)          =      1.388074    -0.094287    -0.009093     1.378981
	    7 R(3,9)          =      1.391407     0.027293     0.002716     1.394122
	    8 R(3,17)         =      1.085694    -0.047379    -0.005595     1.080099
	    9 R(4,7)          =      1.387682    -0.095754    -0.009184     1.378498
	   10 R(4,9)          =      1.391281     0.035661     0.003613     1.394894
	   11 R(4,18)         =      1.086455    -0.052748    -0.006257     1.080198
	   12 R(5,10)         =      1.395407    -0.084113    -0.008366     1.387041
	   13 R(5,11)         =      1.394521    -0.137003    -0.013534     1.380987
	   14 R(5,19)         =      1.086545    -0.045123    -0.005349     1.081196
	   15 R(6,12)         =      1.339561     0.015820     0.001402     1.340964
	   16 R(6,20)         =      1.081489    -0.022379    -0.002622     1.078867
	   17 R(7,12)         =      1.339382     0.021542     0.001847     1.341229
	   18 R(7,21)         =      1.081360    -0.021812    -0.002520     1.078839
	   19 R(8,9)          =      1.447320     0.086278     0.009823     1.457142
	   20 R(8,11)         =      1.394821    -0.044461    -0.004061     1.390760
	   21 R(10,13)        =      1.361638    -0.106007    -0.008804     1.352834
	   22 R(11,14)        =      1.341125    -0.028948    -0.002407     1.338718
	   23 R(12,22)        =      1.019496    -0.049362    -0.004999     1.014497
	   24 R(13,23)        =      0.969987    -0.061700    -0.005216     0.964770
	   25 B(1,2,10)       =    120.009056    -0.000065    -0.076672   119.932384
	   26 B(1,2,16)       =    119.675016     0.000065     0.108752   119.783768
	   27 B(1,8,9)        =    119.838095     0.000398     0.635833   120.473928
	   28 B(1,8,11)       =    119.959722    -0.000661    -1.140978   118.818744
	   29 B(2,1,8)        =    120.031219     0.000149     0.331515   120.362734
	   30 B(2,1,15)       =    119.144799     0.000104     0.221464   119.366263
	   31 B(2,10,5)       =    119.994870     0.000080     0.138047   120.132917
	   32 B(2,10,13)      =    119.991510     0.001057     1.827839   121.819349
	   33 B(3,6,12)       =    120.101096    -0.000321    -0.602510   119.498586
	   34 B(3,6,20)       =    123.814942     0.000063     0.091385   123.906327
	   35 B(3,9,4)        =    119.928982    -0.000518    -0.911288   119.017694
	   36 B(3,9,8)        =    120.008404     0.000184     0.303538   120.311943
	   37 B(4,7,12)       =    120.081885    -0.000320    -0.596856   119.485030
	   38 B(4,7,21)       =    123.829863     0.000061     0.084577   123.914440
	   39 B(4,9,8)        =    120.062613     0.000333     0.607704   120.670317
	   40 B(5,10,13)      =    120.013619    -0.001137    -1.966549   118.047070
	   41 B(5,11,8)       =    120.045019     0.000806     1.351966   121.396985
	   42 B(5,11,14)      =    119.256220    -0.000168    -0.308402   118.947818
	   43 B(6,3,9)        =    118.737620     0.000430     0.778218   119.515838
	   44 B(6,3,17)       =    119.771194    -0.000190    -0.337498   119.433696
	   45 B(6,12,7)       =    122.368334     0.000322     0.587047   122.955380
	   46 B(6,12,22)      =    118.850498    -0.000169    -0.307897   118.542601
	   47 B(7,4,9)        =    118.782073     0.000406     0.745352   119.527425
	   48 B(7,4,18)       =    119.737652    -0.000181    -0.326530   119.411122
	   49 B(7,12,22)      =    118.781161    -0.000154    -0.279146   118.502014
	   50 B(8,1,15)       =    120.823969    -0.000254    -0.553618   120.270351
	   51 B(8,11,14)      =    120.698759    -0.000638    -1.043993   119.654766
	   52 B(9,3,17)       =    121.491171    -0.000239    -0.440716   121.050455
	   53 B(9,4,18)       =    121.480258    -0.000226    -0.418814   121.061443
	   54 B(9,8,11)       =    120.202184     0.000263     0.505144   120.707328
	   55 B(10,2,16)      =    120.315896    -0.000000    -0.032083   120.283813
	   56 B(10,5,11)      =    119.960108    -0.000309    -0.604491   119.355617
	   57 B(10,5,19)      =    120.341451     0.000126     0.240397   120.581848
	   58 B(10,13,23)     =    110.247816    -0.000230    -0.501297   109.746519
	   59 B(11,5,19)      =    119.698439     0.000183     0.364085   120.062524
	   60 B(12,6,20)      =    116.083959     0.000258     0.510988   116.594946
	   61 B(12,7,21)      =    116.088250     0.000259     0.512265   116.600516
	   62 D(1,2,10,5)     =     -0.018609    -0.000011    -0.183366    -0.201975
	   63 D(1,2,10,13)    =    179.988267     0.000006     0.111846   180.100113
	   64 D(1,8,9,3)      =     60.000294    -0.000050    -0.814253    59.186041
	   65 D(1,8,9,4)      =   -119.990639    -0.000047    -0.744877  -120.735516
	   66 D(1,8,11,5)     =      0.018608    -0.000006    -0.100071    -0.081464
	   67 D(1,8,11,14)    =   -179.996269     0.000009     0.156328  -179.839941
	   68 D(2,1,8,9)      =    179.981897    -0.000008    -0.127053   179.854844
	   69 D(2,1,8,11)     =     -0.019945    -0.000008    -0.120477    -0.140422
	   70 D(2,10,5,11)    =      0.017261    -0.000003    -0.033967    -0.016706
	   71 D(2,10,5,19)    =   -179.967685    -0.000001    -0.011093  -179.978779
	   72 D(2,10,13,23)   =    -14.989151     0.000010     0.069746   -14.919405
	   73 D(3,6,12,7)     =     -0.009589     0.000003     0.049509     0.039920
	   74 D(3,6,12,22)    =    179.959844     0.000004     0.056882   180.016726
	   75 D(3,9,4,7)      =     -0.012204     0.000002     0.047140     0.034936
	   76 D(3,9,4,18)     =   -179.964007     0.000002     0.035226  -179.928781
	   77 D(3,9,8,11)     =   -119.997860    -0.000051    -0.820924  -120.818784
	   78 D(4,7,12,6)     =      0.028196     0.000000    -0.003821     0.024374
	   79 D(4,7,12,22)    =   -179.941258    -0.000001    -0.011182  -179.952440
	   80 D(4,9,3,6)      =      0.030092     0.000001    -0.001963     0.028129
	   81 D(4,9,3,17)     =    179.984799     0.000006     0.083168   180.067968
	   82 D(4,9,8,11)     =     60.011207    -0.000048    -0.751548    59.259659
	   83 D(5,10,2,16)    =    179.917291    -0.000011    -0.186851   179.730440
	   84 D(5,10,13,23)   =    165.017726     0.000027     0.358898   165.376625
	   85 D(5,11,8,9)     =   -179.983240    -0.000005    -0.093477  -180.076717
	   86 D(6,3,9,8)      =   -179.960854     0.000004     0.066138  -179.894716
	   87 D(6,12,7,21)    =   -179.960420    -0.000004    -0.057467  -180.017887
	   88 D(7,4,9,8)      =    179.978736    -0.000001    -0.021240   179.957496
	   89 D(7,12,6,20)    =    179.969740    -0.000004    -0.060912   179.908829
	   90 D(8,1,2,10)     =      0.019955     0.000016     0.261210     0.281164
	   91 D(8,1,2,16)     =   -179.916358     0.000016     0.264767  -179.651591
	   92 D(8,9,3,17)     =     -0.006146     0.000009     0.151269     0.145123
	   93 D(8,9,4,18)     =      0.026933    -0.000002    -0.033154    -0.006221
	   94 D(8,11,5,10)    =     -0.017270     0.000011     0.176753     0.159483
	   95 D(8,11,5,19)    =    179.967774     0.000009     0.153983   180.121756
	   96 D(9,3,6,12)     =     -0.019721    -0.000004    -0.045729    -0.065450
	   97 D(9,3,6,20)     =   -179.997375     0.000004     0.073165  -179.924210
	   98 D(9,4,7,12)     =     -0.016764    -0.000003    -0.044714    -0.061479
	   99 D(9,4,7,21)     =    179.970928     0.000001     0.013129   179.984056
	  100 D(9,8,1,15)     =      0.023110     0.000008     0.127191     0.150301
	  101 D(9,8,11,14)    =      0.001883     0.000010     0.162922     0.164805
	  102 D(10,2,1,15)    =    179.979432     0.000000     0.008934   179.988367
	  103 D(10,5,11,14)   =    179.997392    -0.000004    -0.077765   179.919627
	  104 D(11,5,10,13)   =   -179.989616    -0.000020    -0.317934  -180.307550
	  105 D(11,8,1,15)    =   -179.978731     0.000008     0.133767  -179.844964
	  106 D(12,6,3,17)    =   -179.975226    -0.000009    -0.129413  -180.104638
	  107 D(12,7,4,18)    =    179.935898    -0.000002    -0.033056   179.902842
	  108 D(13,10,2,16)   =     -0.075833     0.000006     0.108361     0.032528
	  109 D(13,10,5,19)   =      0.025437    -0.000018    -0.295061    -0.269623
	  110 D(14,11,5,19)   =     -0.017564    -0.000005    -0.100536    -0.118100
	  111 D(15,1,2,16)    =      0.043120     0.000001     0.012492     0.055611
	  112 D(17,3,6,20)    =      0.047120    -0.000001    -0.010519     0.036601
	  113 D(18,4,7,21)    =     -0.076410     0.000002     0.024787    -0.051623
	  114 D(20,6,12,22)   =     -0.060827    -0.000003    -0.053539    -0.114366
	  115 D(21,7,12,22)   =      0.070126    -0.000004    -0.064828     0.005299
	  116 R(4,14)         =      3.008738    -0.009732    -0.003166     3.005572
	 ---------------------------------------------------------------------------
	Successfully symmetrized geometry.
	 Forces used to impose fixed constraints are not included.
	  Forces zeroed: 72 

  ==> Convergence Check <==

  Measures of convergence in internal coordinates in au.
  Criteria marked as inactive (o), active & met (*), and active & unmet ( ).
  --------------------------------------------------------------------------------------------- ~
   Step     Total Energy     Delta E     MAX Force     RMS Force      MAX Disp      RMS Disp    ~
  --------------------------------------------------------------------------------------------- ~
    Convergence Criteria    1.00e-06 *    3.00e-04 *             o    1.20e-03 *             o  ~
  --------------------------------------------------------------------------------------------- ~
      1    -653.24218432   -6.53e+02      1.66e-02      4.60e-03 o    3.43e-02      9.27e-03 o  ~
  ---------------------------------------------------------------------------------------------

	Writing optimization data to binary file.
	Structure for next step:
	Cartesian Geometry (in Angstrom)
	    C    -1.3416837426   0.7743334522  -0.7802878970
	    C    -2.4141886997   1.3428873415  -0.1122564633
	    C     1.6169269908   0.3411771846  -1.6110797953
	    C     1.1167051083  -1.7843787515  -0.6072278278
	    C    -1.4338561416   0.7195084119   1.9997369413
	    C     2.6785075296  -0.2453582529  -2.2672888754
	    C     2.1884231511  -2.3291617416  -1.2816822668
	    C    -0.3081116841   0.1704224821  -0.0675540944
	    C     0.8193997776  -0.4310211652  -0.7677308968
	    C    -2.4588548649   1.3169817463   1.2812057041
	    C    -0.3728582542   0.1524867456   1.3215818731
	    N     2.9290422733  -1.5498371856  -2.0835756217
	    O    -3.4882202919   1.8585669318   1.9720404133
	    F     0.6127662271  -0.4205416322   2.0232579681
	    H    -1.3164689833   0.7994448421  -1.8617885562
	    H    -3.2145826264   1.8044764737  -0.6753513971
	    H     1.4171111916   1.3923464697  -1.7584959498
	    H     0.5200819544  -2.4134758604   0.0370589462
	    H    -1.4612598632   0.6949935804   3.0803071485
	    H     3.3409010752   0.2844633811  -2.9339811431
	    H     2.4816130168  -3.3648854784  -1.2094991197
	    H     3.7138179876  -1.9663800415  -2.5732934171
	    H    -4.0047441042   2.4309021659   1.3920254588
			--------------------------
			 OPTKING Finished Execution 
			--------------------------

    Structure for next step:
    Molecular point group: c1
    Full point group: C1

    Geometry (in Angstrom), charge = 1, multiplicity = 1:

    C           -1.338718064207     0.774179378494    -0.777867261818
    C           -2.411223021303     1.342733267790    -0.109835828170
    C            1.619892669212     0.341023110889    -1.608659160172
    C            1.119670786631    -1.784532825172    -0.604807192649
    C           -1.430890463203     0.719354338179     2.002157576475
    C            2.681473207931    -0.245512326555    -2.264868240251
    C            2.191388829456    -2.329315815303    -1.279261631681
    C           -0.305146005775     0.170268408396    -0.065133459278
    C            0.822365455930    -0.431175238837    -0.765310261685
    C           -2.455889186562     1.316827672628     1.283626339257
    C           -0.369892575811     0.152332671933     1.324002508265
    N            2.932007951679    -1.549991259318    -2.081154986537
    O           -3.485254613497     1.858412858162     1.974461048456
    F            0.615731905461    -0.420695705878     2.025678603224
    H           -1.313503304887     0.799290768393    -1.859367920985
    H           -3.211616948079     1.804322400068    -0.672930761889
    H            1.420076869993     1.392192396052    -1.756075314658
    H            0.523047632747    -2.413629934054     0.039479581388
    H           -1.458294184863     0.694839506695     3.082727783701
    H            3.343866753609     0.284309307438    -2.931560507922
    H            2.484578695205    -3.365039552092    -1.207078484584
    H            3.716783665933    -1.966534115141    -2.570872781922
    H           -4.001778425827     2.430748092236     1.394446093960

gradient() will perform analytic gradient computation.

*** tstart() called on gpu-1-7.local
*** at Sat Nov 11 20:12:54 2017

    SCF Algorithm Type (re)set to DF.

*** tstart() called on gpu-1-7.local
*** at Sat Nov 11 20:12:54 2017

   => Loading Basis Set <=

    Name: AUG-CC-PVTZ
    Role: ORBITAL
    Keyword: BASIS
    atoms 1-11  entry C          line   221 file /cbio/jclab/home/chayas/anaconda/envs/py35/share/psi4/basis/aug-cc-pvtz.gbs 
    atoms 12    entry N          line   267 file /cbio/jclab/home/chayas/anaconda/envs/py35/share/psi4/basis/aug-cc-pvtz.gbs 
    atoms 13    entry O          line   313 file /cbio/jclab/home/chayas/anaconda/envs/py35/share/psi4/basis/aug-cc-pvtz.gbs 
    atoms 14    entry F          line   359 file /cbio/jclab/home/chayas/anaconda/envs/py35/share/psi4/basis/aug-cc-pvtz.gbs 
    atoms 15-23 entry H          line    34 file /cbio/jclab/home/chayas/anaconda/envs/py35/share/psi4/basis/aug-cc-pvtz.gbs 


         ---------------------------------------------------------
                                   SCF
            by Justin Turney, Rob Parrish, and Andy Simmonett
                              RHF Reference
                        8 Threads,   4768 MiB Core
         ---------------------------------------------------------

  ==> Geometry <==

    Molecular point group: c1
    Full point group: C1

    Geometry (in Angstrom), charge = 1, multiplicity = 1:

       Center              X                  Y                   Z               Mass       
    ------------   -----------------  -----------------  -----------------  -----------------
           C         -1.338718064207     0.774179378494    -0.777867261818    12.000000000000
           C         -2.411223021303     1.342733267790    -0.109835828170    12.000000000000
           C          1.619892669212     0.341023110889    -1.608659160172    12.000000000000
           C          1.119670786631    -1.784532825172    -0.604807192649    12.000000000000
           C         -1.430890463203     0.719354338179     2.002157576475    12.000000000000
           C          2.681473207931    -0.245512326555    -2.264868240251    12.000000000000
           C          2.191388829456    -2.329315815303    -1.279261631681    12.000000000000
           C         -0.305146005775     0.170268408396    -0.065133459278    12.000000000000
           C          0.822365455930    -0.431175238837    -0.765310261685    12.000000000000
           C         -2.455889186562     1.316827672628     1.283626339257    12.000000000000
           C         -0.369892575811     0.152332671933     1.324002508265    12.000000000000
           N          2.932007951679    -1.549991259318    -2.081154986537    14.003074004780
           O         -3.485254613497     1.858412858162     1.974461048456    15.994914619560
           F          0.615731905461    -0.420695705878     2.025678603224    18.998403224000
           H         -1.313503304887     0.799290768393    -1.859367920985     1.007825032070
           H         -3.211616948079     1.804322400068    -0.672930761889     1.007825032070
           H          1.420076869993     1.392192396052    -1.756075314658     1.007825032070
           H          0.523047632747    -2.413629934054     0.039479581388     1.007825032070
           H         -1.458294184863     0.694839506695     3.082727783701     1.007825032070
           H          3.343866753609     0.284309307438    -2.931560507922     1.007825032070
           H          2.484578695205    -3.365039552092    -1.207078484584     1.007825032070
           H          3.716783665933    -1.966534115141    -2.570872781922     1.007825032070
           H         -4.001778425827     2.430748092236     1.394446093960     1.007825032070

  Running in c1 symmetry.

  Rotational constants: A =      0.06343  B =      0.01287  C =      0.01148 [cm^-1]
  Rotational constants: A =   1901.44157  B =    385.80686  C =    344.24547 [MHz]
  Nuclear repulsion =  830.579057325715553

  Charge       = 1
  Multiplicity = 1
  Electrons    = 98
  Nalpha       = 49
  Nbeta        = 49

  ==> Algorithm <==

  SCF Algorithm Type is DF.
  DIIS enabled.
  MOM disabled.
  Fractional occupation disabled.
  Guess Type is READ.
  Energy threshold   = 1.00e-10
  Density threshold  = 1.00e-10
  Integral threshold = 0.00e+00

  ==> Primary Basis <==

  Basis Set: AUG-CC-PVTZ
    Blend: AUG-CC-PVTZ
    Number of shells: 277
    Number of basis function: 851
    Number of Cartesian functions: 995
    Spherical Harmonics?: true
    Max angular momentum: 3

   => Loading Basis Set <=

    Name: (AUG-CC-PVTZ AUX)
    Role: JKFIT
    Keyword: DF_BASIS_SCF
    atoms 1-11  entry C          line   161 file /cbio/jclab/home/chayas/anaconda/envs/py35/share/psi4/basis/aug-cc-pvtz-jkfit.gbs 
    atoms 12    entry N          line   223 file /cbio/jclab/home/chayas/anaconda/envs/py35/share/psi4/basis/aug-cc-pvtz-jkfit.gbs 
    atoms 13    entry O          line   285 file /cbio/jclab/home/chayas/anaconda/envs/py35/share/psi4/basis/aug-cc-pvtz-jkfit.gbs 
    atoms 14    entry F          line   347 file /cbio/jclab/home/chayas/anaconda/envs/py35/share/psi4/basis/aug-cc-pvtz-jkfit.gbs 
    atoms 15-23 entry H          line    69 file /cbio/jclab/home/chayas/anaconda/envs/py35/share/psi4/basis/aug-cc-pvtz-jkfit.gbs 

  Reading orbitals from file 180, no projection.

  ==> Pre-Iterations <==

   -------------------------------------------------------
    Irrep   Nso     Nmo     Nalpha   Nbeta   Ndocc  Nsocc
   -------------------------------------------------------
     A        851     851       0       0       0       0
   -------------------------------------------------------
    Total     851     851      49      49      49       0
   -------------------------------------------------------

  ==> Integral Setup <==

  ==> DFJK: Density-Fitted J/K Matrices <==

    J tasked:                  Yes
    K tasked:                  Yes
    wK tasked:                  No
    OpenMP threads:              8
    Integrals threads:           8
    Memory (MB):              3576
    Algorithm:                Disk
    Integral Cache:           NONE
    Schwarz Cutoff:          1E-12
    Fitting Condition:       1E-12

   => Auxiliary Basis Set <=

  Basis Set: (AUG-CC-PVTZ AUX)
    Blend: AUG-CC-PVTZ-JKFIT
    Number of shells: 546
    Number of basis function: 1870
    Number of Cartesian functions: 2329
    Spherical Harmonics?: true
    Max angular momentum: 4

  Minimum eigenvalue in the overlap matrix is 6.6230457619E-07.
  Using Symmetric Orthogonalization.

  SCF Guess: Orbitals guess was supplied from a previous computation.

  ==> Iterations <==

                           Total Energy        Delta E     RMS |[F,P]|

   @DF-RHF iter   0:  -650.61477979073743   -6.50615e+02   4.40395e-04 
   @DF-RHF iter   1:  -650.56441420920999    5.03656e-02   5.51562e-05 
   @DF-RHF iter   2:  -650.56462663850982   -2.12429e-04   3.89429e-05 DIIS
   @DF-RHF iter   3:  -650.56472231695466   -9.56784e-05   8.91111e-06 DIIS
   @DF-RHF iter   4:  -650.56472938019090   -7.06324e-06   3.61612e-06 DIIS
   @DF-RHF iter   5:  -650.56473106529018   -1.68510e-06   1.22036e-06 DIIS
   @DF-RHF iter   6:  -650.56473140078401   -3.35494e-07   6.27428e-07 DIIS
   @DF-RHF iter   7:  -650.56473151120872   -1.10425e-07   2.08754e-07 DIIS
   @DF-RHF iter   8:  -650.56473154318871   -3.19800e-08   1.16003e-07 DIIS
   @DF-RHF iter   9:  -650.56473154687228   -3.68357e-09   4.45009e-08 DIIS
   @DF-RHF iter  10:  -650.56473154712876   -2.56478e-10   1.48823e-08 DIIS
   @DF-RHF iter  11:  -650.56473154716321   -3.44471e-11   3.83849e-09 DIIS
   @DF-RHF iter  12:  -650.56473154718435   -2.11458e-11   1.38203e-09 DIIS
   @DF-RHF iter  13:  -650.56473154715832    2.60343e-11   7.56391e-10 DIIS
   @DF-RHF iter  14:  -650.56473154720163   -4.33147e-11   3.10049e-10 DIIS
   @DF-RHF iter  15:  -650.56473154718879    1.28466e-11   1.55297e-10 DIIS
   @DF-RHF iter  16:  -650.56473154716514    2.36469e-11   5.71144e-11 DIIS

  ==> Post-Iterations <==

    Orbital Energies (a.u.)
    -----------------------

    Doubly Occupied:                                                      

       1A    -26.440270     2A    -20.705142     3A    -15.841748  
       4A    -11.488899     5A    -11.487093     6A    -11.464546  
       7A    -11.454377     8A    -11.436193     9A    -11.419925  
      10A    -11.418556    11A    -11.384236    12A    -11.377623  
      13A    -11.355424    14A    -11.352861    15A     -1.760358  
      16A     -1.525546    17A     -1.517795    18A     -1.324077  
      19A     -1.273857    20A     -1.245115    21A     -1.165949  
      22A     -1.153649    23A     -1.071383    24A     -1.063669  
      25A     -0.987428    26A     -0.973553    27A     -0.966605  
      28A     -0.892137    29A     -0.878996    30A     -0.868419  
      31A     -0.836881    32A     -0.826970    33A     -0.821486  
      34A     -0.803222    35A     -0.800478    36A     -0.780191  
      37A     -0.769231    38A     -0.749053    39A     -0.725036  
      40A     -0.715146    41A     -0.712360    42A     -0.683849  
      43A     -0.667909    44A     -0.638181    45A     -0.619399  
      46A     -0.578258    47A     -0.542558    48A     -0.471417  
      49A     -0.447313  

    Virtual:                                                              

      50A     -0.106569    51A     -0.086275    52A     -0.065069  
      53A     -0.063491    54A     -0.058796    55A     -0.050171  
      56A     -0.044029    57A     -0.038811    58A     -0.033855  
      59A     -0.030115    60A     -0.023975    61A     -0.019134  
      62A     -0.012116    63A     -0.007916    64A     -0.005879  
      65A     -0.003844    66A      0.000577    67A      0.008568  
      68A      0.009429    69A      0.013350    70A      0.015378  
      71A      0.018788    72A      0.025120    73A      0.027333  
      74A      0.028940    75A      0.033866    76A      0.035138  
      77A      0.036888    78A      0.039832    79A      0.045383  
      80A      0.045652    81A      0.050176    82A      0.053706  
      83A      0.062764    84A      0.063254    85A      0.069303  
      86A      0.073362    87A      0.076636    88A      0.077557  
      89A      0.083225    90A      0.088740    91A      0.092980  
      92A      0.096096    93A      0.101773    94A      0.107817  
      95A      0.112351    96A      0.117955    97A      0.118780  
      98A      0.123177    99A      0.130274   100A      0.133956  
     101A      0.134935   102A      0.136821   103A      0.140964  
     104A      0.143985   105A      0.147657   106A      0.156703  
     107A      0.158589   108A      0.160900   109A      0.164270  
     110A      0.167370   111A      0.170291   112A      0.171683  
     113A      0.177983   114A      0.180850   115A      0.182979  
     116A      0.186896   117A      0.195458   118A      0.196654  
     119A      0.198993   120A      0.206613   121A      0.209167  
     122A      0.211157   123A      0.213635   124A      0.221634  
     125A      0.225867   126A      0.226802   127A      0.230701  
     128A      0.234454   129A      0.237045   130A      0.239871  
     131A      0.246121   132A      0.249557   133A      0.252633  
     134A      0.255509   135A      0.259707   136A      0.267093  
     137A      0.270155   138A      0.278017   139A      0.281741  
     140A      0.282256   141A      0.283703   142A      0.293016  
     143A      0.300734   144A      0.301598   145A      0.305266  
     146A      0.311720   147A      0.313141   148A      0.318312  
     149A      0.320926   150A      0.322535   151A      0.327689  
     152A      0.331688   153A      0.332434   154A      0.337408  
     155A      0.340280   156A      0.341802   157A      0.346209  
     158A      0.350652   159A      0.351748   160A      0.353314  
     161A      0.360373   162A      0.367732   163A      0.370225  
     164A      0.370637   165A      0.372650   166A      0.376258  
     167A      0.380028   168A      0.383218   169A      0.385837  
     170A      0.393741   171A      0.397898   172A      0.400876  
     173A      0.402834   174A      0.406428   175A      0.409412  
     176A      0.413303   177A      0.416723   178A      0.420438  
     179A      0.424106   180A      0.427113   181A      0.430435  
     182A      0.434922   183A      0.444191   184A      0.445080  
     185A      0.449733   186A      0.452808   187A      0.461479  
     188A      0.466871   189A      0.473497   190A      0.474399  
     191A      0.479139   192A      0.485783   193A      0.489321  
[...]
	 D(1,2,10,13)     =        -3.119466	    -178.732228
	 D(1,8,9,3)       =         0.521806	      29.897256
	 D(1,8,9,4)       =        -2.605170	    -149.265230
	 D(1,8,11,5)      =        -0.007594	      -0.435085
	 D(1,8,11,14)     =        -3.104823	    -177.893228
	 D(2,1,8,9)       =         3.128474	     179.248331
	 D(2,1,8,11)      =        -0.013202	      -0.756412
	 D(2,10,5,11)     =         0.003235	       0.185372
	 D(2,10,5,19)     =         3.133077	     179.512061
	 D(2,10,13,23)    =        -0.259744	     -14.882232
	 D(3,6,12,7)      =         0.000896	       0.051340
	 D(3,6,12,22)     =        -3.136366	    -179.700522
	 D(3,9,4,7)       =        -0.004389	      -0.251461
	 D(3,9,4,18)      =        -3.123243	    -178.948625
	 D(3,9,8,11)      =        -2.619699	    -150.097695
	 D(4,7,12,6)      =        -0.002263	      -0.129643
	 D(4,7,12,22)     =         3.135000	     179.622255
	 D(4,9,3,6)       =         0.003044	       0.174385
	 D(4,9,3,17)      =        -3.103421	    -177.812922
	 D(4,9,8,11)      =         0.536511	      30.739819
	 D(5,10,2,16)     =         3.108830	     178.122848
	 D(5,10,13,23)    =         2.925858	     167.639311
	 D(5,11,8,9)      =         3.133914	     179.560074
	 D(6,3,9,8)       =        -3.124743	    -179.034596
	 D(6,12,7,21)     =         3.131754	     179.436311
	 D(7,4,9,8)       =         3.123073	     178.938875
	 D(7,12,6,20)     =         3.128966	     179.276541
	 D(8,1,2,10)      =         0.028581	       1.637565
	 D(8,1,2,16)      =        -3.103520	    -177.818578
	 D(8,9,3,17)      =         0.051978	       2.978097
	 D(8,9,4,18)      =         0.004219	       0.241711
	 D(8,11,5,10)     =         0.012435	       0.712491
	 D(8,11,5,19)     =        -3.117429	    -178.615542
	 D(9,3,6,12)      =        -0.001343	      -0.076958
	 D(9,3,6,20)      =        -3.128466	    -179.247925
	 D(9,4,7,12)      =         0.004066	       0.232939
	 D(9,4,7,21)      =        -3.129437	    -179.303543
	 D(9,8,1,15)      =         0.049550	       2.839021
	 D(9,8,11,14)     =         0.036686	       2.101930
	 D(10,2,1,15)     =         3.107958	     178.072862
	 D(10,5,11,14)    =         3.110176	     178.199960
	 D(11,5,10,13)    =         3.102516	     177.761100
	 D(11,8,1,15)     =        -3.092125	    -177.165723
	 D(12,6,3,17)     =         3.105962	     177.958511
	 D(12,7,4,18)     =         3.123500	     178.963372
	 D(13,10,2,16)    =         0.012621	       0.723134
	 D(13,10,5,19)    =        -0.050828	      -2.912211
	 D(14,11,5,19)    =        -0.019689	      -1.128073
	 D(15,1,2,16)     =        -0.024143	      -1.383282
	 D(17,3,6,20)     =        -0.021161	      -1.212457
	 D(18,4,7,21)     =        -0.010003	      -0.573110
	 D(20,6,12,22)    =        -0.008296	      -0.475321
	 D(21,7,12,22)    =        -0.014168	      -0.811791
	 R(4,14)          =         5.212105	       2.758127

	Current energy   :      -653.2508322457

	Energy change for the previous step:
		Projected    :        -0.0000003699
		Actual       :         0.0000000329

	Performing BFGS update.
	Previous computed or guess Hessian on step 1.
	Steps to be used in Hessian update: 15 14
	Adding user-defined constraint: Fragment 1; Coordinate 72:
		Value =    -0.259744; Fixed value    =    -0.261800
		Force =    -0.001799; Force constant =     0.875000
	Removing off-diagonal coupling between coordinate 72 and others.
	Taking RFO optimization step.
	Going to follow RFO solution 1.
	Rejecting RFO root 1 because normalization gives large value.
	Using RFO vector 2.
	Norm of target step-size    0.00237
	Projected energy change by RFO approximation:        -0.0000000587

	Back-transformation to cartesian coordinates...
	Successfully converged to displaced geometry.

	--- Internal Coordinate Step in ANG or DEG, aJ/ANG or AJ/DEG ---
	 ---------------------------------------------------------------------------
	   Coordinate                Previous        Force       Change         New 
	   ----------                --------       ------       ------       ------
	    1 R(1,2)          =      1.377241     0.000045     0.000012     1.377252
	    2 R(1,8)          =      1.400361     0.000347     0.000041     1.400402
	    3 R(1,15)         =      1.079331     0.000152     0.000045     1.079376
	    4 R(2,10)         =      1.394520     0.000371     0.000075     1.394595
	    5 R(2,16)         =      1.079323     0.000193     0.000050     1.079373
	    6 R(3,6)          =      1.371761     0.000059     0.000007     1.371768
	    7 R(3,9)          =      1.401459     0.000356     0.000049     1.401508
	    8 R(3,17)         =      1.077384     0.000223     0.000062     1.077446
	    9 R(4,7)          =      1.372552    -0.000032    -0.000014     1.372538
	   10 R(4,9)          =      1.402135     0.000316     0.000064     1.402199
	   11 R(4,18)         =      1.075490     0.000225     0.000038     1.075528
	   12 R(5,10)         =      1.389508     0.000388     0.000092     1.389600
	   13 R(5,11)         =      1.371395     0.000029    -0.000017     1.371378
	   14 R(5,19)         =      1.077582     0.000210     0.000051     1.077633
	   15 R(6,12)         =      1.342787     0.000552     0.000088     1.342875
	   16 R(6,20)         =      1.077091     0.000167     0.000043     1.077134
	   17 R(7,12)         =      1.342639     0.000458     0.000093     1.342732
	   18 R(7,21)         =      1.077143     0.000194     0.000048     1.077192
	   19 R(8,9)          =      1.444812    -0.000251    -0.000102     1.444710
	   20 R(8,11)         =      1.396396     0.000246     0.000025     1.396420
	   21 R(10,13)        =      1.342520    -0.000061    -0.000009     1.342511
	   22 R(11,14)        =      1.343614     0.000194     0.000049     1.343664
	   23 R(12,22)        =      1.011891    -0.000002    -0.000003     1.011888
	   24 R(13,23)        =      0.963825     0.000344     0.000063     0.963887
	   25 B(1,2,10)       =    119.804433    -0.000001    -0.002181   119.802252
	   26 B(1,2,16)       =    120.025688    -0.000000     0.000109   120.025797
	   27 B(1,8,9)        =    120.842205    -0.000001     0.008032   120.850237
	   28 B(1,8,11)       =    116.429808     0.000001     0.009000   116.438808
	   29 B(2,1,8)        =    121.778687     0.000000    -0.006133   121.772555
	   30 B(2,1,15)       =    118.689252     0.000000     0.012309   118.701560
	   31 B(2,10,5)       =    119.861394     0.000000     0.005907   119.867302
	   32 B(2,10,13)      =    123.509068     0.000000    -0.001917   123.507151
	   33 B(3,6,12)       =    119.358554    -0.000000     0.000103   119.358657
	   34 B(3,6,20)       =    123.627499    -0.000001    -0.000793   123.626707
	   35 B(3,9,4)        =    116.913615     0.000001     0.011674   116.925290
	   36 B(3,9,8)        =    120.453561     0.000000     0.004765   120.458326
	   37 B(4,7,12)       =    119.668839    -0.000001    -0.002743   119.666097
	   38 B(4,7,21)       =    123.398315    -0.000000     0.001734   123.400049
	   39 B(4,9,8)        =    122.627840    -0.000001    -0.016613   122.611227
	   40 B(5,10,13)      =    116.581826    -0.000001    -0.004488   116.577338
	   41 B(5,11,8)       =    123.121146    -0.000000    -0.000995   123.120151
	   42 B(5,11,14)      =    117.802110     0.000000     0.012136   117.814246
	   43 B(6,3,9)        =    120.980884    -0.000001    -0.008329   120.972555
	   44 B(6,3,17)       =    118.268859     0.000000     0.009560   118.278419
	   45 B(6,12,7)       =    122.454127     0.000000     0.004276   122.458404
	   46 B(6,12,22)      =    118.780304    -0.000000    -0.002248   118.778056
	   47 B(7,4,9)        =    120.623496     0.000000    -0.004997   120.618499
	   48 B(7,4,18)       =    118.382418     0.000001     0.011225   118.393643
	   49 B(7,12,22)      =    118.765116    -0.000000    -0.002013   118.763103
	   50 B(8,1,15)       =    119.437094    -0.000001    -0.006369   119.430725
	   51 B(8,11,14)      =    119.030064     0.000000    -0.011340   119.018724
	   52 B(9,3,17)       =    120.720673     0.000001    -0.001442   120.719231
	   53 B(9,4,18)       =    120.981665    -0.000001    -0.006438   120.975227
	   54 B(9,8,11)       =    122.727987     0.000000    -0.017033   122.710954
	   55 B(10,2,16)      =    120.167635     0.000001     0.002040   120.169676
	   56 B(10,5,11)      =    118.984676     0.000000    -0.005795   118.978881
	   57 B(10,5,19)      =    120.603030     0.000001     0.003600   120.606630
	   58 B(10,13,23)     =    110.591904    -0.000000    -0.000736   110.591167
	   59 B(11,5,19)      =    120.408840    -0.000001     0.002092   120.410933
	   60 B(12,6,20)      =    117.009061     0.000001     0.000667   117.009728
	   61 B(12,7,21)      =    116.931320     0.000001     0.000959   116.932279
	   62 D(1,2,10,5)     =     -1.332514    -0.000000    -0.013509    -1.346024
	   63 D(1,2,10,13)    =   -178.732228     0.000000     0.000122  -178.732106
	   64 D(1,8,9,3)      =     29.897256    -0.000000     0.019977    29.917233
	   65 D(1,8,9,4)      =   -149.265230     0.000000     0.034323  -149.230907
	   66 D(1,8,11,5)     =     -0.435085    -0.000000     0.000908    -0.434176
	   67 D(1,8,11,14)    =   -177.893228    -0.000000     0.006026  -177.887202
	   68 D(2,1,8,9)      =    179.248331    -0.000000     0.000599   179.248930
	   69 D(2,1,8,11)     =     -0.756412     0.000000    -0.002656    -0.759068
	   70 D(2,10,5,11)    =      0.185372     0.000000     0.011695     0.197066
	   71 D(2,10,5,19)    =    179.512061     0.000000     0.001853   179.513914
	   72 D(2,10,13,23)   =    -14.882232    -0.000002    -0.014840   -14.897072
	   73 D(3,6,12,7)     =      0.051340    -0.000000    -0.004598     0.046742
	   74 D(3,6,12,22)    =   -179.700522    -0.000000    -0.008895  -179.709417
	   75 D(3,9,4,7)      =     -0.251461    -0.000000    -0.005055    -0.256515
	   76 D(3,9,4,18)     =   -178.948625    -0.000000     0.005738  -178.942888
	   77 D(3,9,8,11)     =   -150.097695    -0.000000     0.023440  -150.074255
	   78 D(4,7,12,6)     =     -0.129643     0.000000    -0.000456    -0.130099
	   79 D(4,7,12,22)    =    179.622255     0.000000     0.003840   179.626095
	   80 D(4,9,3,6)      =      0.174385     0.000000     0.000009     0.174394
	   81 D(4,9,3,17)     =   -177.812922     0.000000     0.006963  -177.805958
	   82 D(4,9,8,11)     =     30.739819    -0.000000     0.037785    30.777605
	   83 D(5,10,2,16)    =    178.122848    -0.000000    -0.017412   178.105435
	   84 D(5,10,13,23)   =    167.639311    -0.000001    -0.001871   167.637440
	   85 D(5,11,8,9)     =    179.560074    -0.000000    -0.002411   179.557663
	   86 D(6,3,9,8)      =   -179.034596     0.000000     0.013790  -179.020806
	   87 D(6,12,7,21)    =    179.436311    -0.000000    -0.007381   179.428930
	   88 D(7,4,9,8)      =    178.938875    -0.000000    -0.018968   178.919907
	   89 D(7,12,6,20)    =    179.276541    -0.000000    -0.006418   179.270123
	   90 D(8,1,2,10)     =      1.637565     0.000000     0.008863     1.646428
	   91 D(8,1,2,16)     =   -177.818578     0.000000     0.012749  -177.805829
	   92 D(8,9,3,17)     =      2.978097     0.000000     0.020745     2.998842
	   93 D(8,9,4,18)     =      0.241711    -0.000000    -0.008176     0.233535
	   94 D(8,11,5,10)    =      0.712491    -0.000000    -0.005532     0.706958
	   95 D(8,11,5,19)    =   -178.615542    -0.000000     0.004279  -178.611263
	   96 D(9,3,6,12)     =     -0.076958     0.000000     0.004752    -0.072206
	   97 D(9,3,6,20)     =   -179.247925     0.000000     0.006687  -179.241239
	   98 D(9,4,7,12)     =      0.232939     0.000000     0.005363     0.238302
	   99 D(9,4,7,21)     =   -179.303543     0.000000     0.012763  -179.290780
	  100 D(9,8,1,15)     =      2.839021     0.000000     0.003804     2.842825
	  101 D(9,8,11,14)    =      2.101930     0.000000     0.002707     2.104637
	  102 D(10,2,1,15)    =    178.072862     0.000000     0.005036   178.077898
	  103 D(10,5,11,14)   =    178.199960    -0.000000    -0.011149   178.188810
	  104 D(11,5,10,13)   =    177.761100    -0.000000    -0.000971   177.760128
	  105 D(11,8,1,15)    =   -177.165723     0.000000     0.000549  -177.165173
	  106 D(12,6,3,17)    =    177.958511    -0.000000    -0.002243   177.956268
	  107 D(12,7,4,18)    =    178.963372     0.000000    -0.005376   178.957997
	  108 D(13,10,2,16)   =      0.723134     0.000000    -0.003781     0.719353
	  109 D(13,10,5,19)   =     -2.912211    -0.000000    -0.010813    -2.923023
	  110 D(14,11,5,19)   =     -1.128073    -0.000000    -0.001338    -1.129411
	  111 D(15,1,2,16)    =     -1.383282     0.000000     0.008923    -1.374359
	  112 D(17,3,6,20)    =     -1.212457    -0.000000    -0.000308    -1.212765
	  113 D(18,4,7,21)    =     -0.573110     0.000000     0.002025    -0.571085
	  114 D(20,6,12,22)   =     -0.475321    -0.000000    -0.010715    -0.486036
	  115 D(21,7,12,22)   =     -0.811791    -0.000000    -0.003085    -0.814876
	  116 R(4,14)         =      2.758127    -0.000090    -0.000868     2.757259
	 ---------------------------------------------------------------------------
	Successfully symmetrized geometry.
	 Forces used to impose fixed constraints are not included.
	  Forces zeroed: 72 

  ==> Convergence Check <==

  Measures of convergence in internal coordinates in au.
  Criteria marked as inactive (o), active & met (*), and active & unmet ( ).
  ---------------------------------------------------------------------------------------------
   Step     Total Energy     Delta E     MAX Force     RMS Force      MAX Disp      RMS Disp   
  ---------------------------------------------------------------------------------------------
    Convergence Criteria    1.00e-06 *    3.00e-04 *             o    1.20e-03 *             o
  ---------------------------------------------------------------------------------------------
     16    -653.25083225    3.29e-08 *    7.60e-05 *    1.80e-05 o    1.64e-03      2.20e-04 o  ~
  ---------------------------------------------------------------------------------------------


  **** Optimization is complete! (in 16 steps) ****

  ==> Optimization Summary <==

  Measures of convergence in internal coordinates in au.
  --------------------------------------------------------------------------------------------------------------- ~
   Step         Total Energy             Delta E       MAX Force       RMS Force        MAX Disp        RMS Disp  ~
  --------------------------------------------------------------------------------------------------------------- ~
      1    -653.242184319573   -653.242184319573      0.01662918      0.00460207      0.03432275      0.00926948  ~
      2    -653.245486761631     -0.003302442058      0.00626401      0.00179687      0.03712475      0.00925553  ~
      3    -653.246633520942     -0.001146759311      0.00289933      0.00074489      0.04616991      0.00925028  ~
      4    -653.247291208889     -0.000657687948      0.00284147      0.00059024      0.04719135      0.00924464  ~
      5    -653.247888556435     -0.000597347546      0.00273069      0.00055813      0.04683380      0.00923612  ~
      6    -653.248452405645     -0.000563849210      0.00254851      0.00053919      0.04597687      0.00923041  ~
      7    -653.248980712364     -0.000528306718      0.00231396      0.00049698      0.04489433      0.00922633  ~
      8    -653.249461226630     -0.000480514266      0.00222971      0.00044163      0.04664528      0.00922417  ~
      9    -653.249883027491     -0.000421800861      0.00200791      0.00038272      0.04862342      0.00922220  ~
     10    -653.250237306989     -0.000354279499      0.00167752      0.00031722      0.04951129      0.00922139  ~
     11    -653.250515477416     -0.000278170427      0.00124308      0.00024725      0.04883451      0.00922107  ~
     12    -653.250709759373     -0.000194281957      0.00069031      0.00017867      0.04507620      0.00922222  ~
     13    -653.250814755661     -0.000104996288      0.00062440      0.00012672      0.03110161      0.00618192  ~
     14    -653.250834284630     -0.000019528969      0.00046063      0.00007304      0.00420440      0.00046837  ~
     15    -653.250832278606      0.000002006024      0.00011828      0.00001905      0.00257112      0.00049045  ~
     16    -653.250832245673      0.000000032933      0.00011333      0.00002082      0.00164001      0.00022040  ~
  --------------------------------------------------------------------------------------------------------------- ~

	Writing optimization data to binary file.
	Final energy is   -653.2508322456730
	Final (previous) structure:
	Cartesian Geometry (in Angstrom)
	    C    -1.1430183870   1.0547000973  -0.7169409246
	    C    -2.2250024488   1.6231820263  -0.0821727732
	    C     1.4690462166   0.2656143814  -1.8103589343
	    C     1.3794807382  -1.6524979703  -0.3884508276
	    C    -1.5784790462   0.5408812553   1.9710253130
	    C     2.5200454066  -0.3010677052  -2.4856360504
	    C     2.4313081743  -2.1916728292  -1.0861967638
	    C    -0.2587552598   0.2013100145  -0.0455138657
	    C     0.8608920281  -0.3968645402  -0.7354837578
	    C    -2.4402811180   1.3786426624   1.2737555069
	    C    -0.5233727612  -0.0294257150   1.3060258323
	    N     2.9714480921  -1.5079000736  -2.1076586074
	    O    -3.4827188045   1.8736658453   1.9597839047
	    F     0.3161437409  -0.8058414293   2.0114975912
	    H    -1.0111365181   1.2303816694  -1.7736808290
	    H    -2.9084890011   2.2488037124  -0.6356903708
	    H     1.1427074819   1.2486890868  -2.1067095330
	    H     0.9517003523  -2.2253327124   0.4150063721
	    H    -1.7290494553   0.3498357379   3.0207934561
	    H     3.0259741164   0.1745305304  -3.3090242801
	    H     2.8572339476  -3.1560458309  -0.8652680080
	    H     3.7501129927  -1.9157122643  -2.6089507356
	    H    -3.9082469434   2.5828317263   1.4648416711
	Saving final (previous) structure.
			--------------------------
			 OPTKING Finished Execution 
			--------------------------

    Final optimized geometry and variables:
    Molecular point group: c1
    Full point group: C1

    Geometry (in Angstrom), charge = 1, multiplicity = 1:

    C           -1.143018386998     1.054700097306    -0.716940924593
    C           -2.225002448771     1.623182026333    -0.082172773240
    C            1.469046216563     0.265614381355    -1.810358934323
    C            1.379480738239    -1.652497970268    -0.388450827596
    C           -1.578479046186     0.540881255330     1.971025313023
    C            2.520045406600    -0.301067705200    -2.485636050365
    C            2.431308174252    -2.191672829184    -1.086196763801
    C           -0.258755259845     0.201310014548    -0.045513865678
    C            0.860892028075    -0.396864540180    -0.735483757765
    C           -2.440281117983     1.378642662441     1.273755506878
    C           -0.523372761207    -0.029425714959     1.306025832315
    N            2.971448092099    -1.507900073609    -2.107658607374
    O           -3.482718804503     1.873665845301     1.959783904659
    F            0.316143740929    -0.805841429285     2.011497591156
    H           -1.011136518117     1.230381669379    -1.773680829011
    H           -2.908489001059     2.248803712439    -0.635690370842
    H            1.142707481935     1.248689086793    -2.106709533006
    H            0.951700352256    -2.225332712442     0.415006372098
    H           -1.729049455329     0.349835737885     3.020793456125
    H            3.025974116367     0.174530530399    -3.309024280121
    H            2.857233947609    -3.156045830945    -0.865268007980
    H            3.750112992723    -1.915712264261    -2.608950735574
    H           -3.908246943415     2.582831726307     1.464841671108

	Cleaning optimization helper files.

*** Psi4 exiting successfully. Buy a developer a beer!
