
    -----------------------------------------------------------------------
          Psi4: An Open-Source Ab Initio Electronic Structure Package
                               Psi4 1.1 release

                         Git: Rev {HEAD} add49b9 


    R. M. Parrish, L. A. Burns, D. G. A. Smith, A. C. Simmonett,
    A. E. DePrince III, E. G. Hohenstein, U. Bozkaya, A. Yu. Sokolov,
    R. Di Remigio, R. M. Richard, J. F. Gonthier, A. M. James,
    H. R. McAlexander, A. Kumar, M. Saitow, X. Wang, B. P. Pritchard,
    P. Verma, H. F. Schaefer III, K. Patkowski, R. A. King, E. F. Valeev,
    F. A. Evangelista, J. M. Turney, T. D. Crawford, and C. D. Sherrill,
    J. Chem. Theory Comput. in press (2017).
    (doi: 10.1021/acs.jctc.7b00174)

    -----------------------------------------------------------------------


    Psi4 started on: Sunday, 12 November 2017 03:30AM

    Process ID:  24987
    PSIDATADIR: /cbio/jclab/home/chayas/anaconda/envs/py35/share/psi4
    Memory:     500.0 MiB
    Threads:    8
    
  ==> Input File <==

--------------------------------------------------------------------------

memory 5 Gb

molecule phepyrOH_anion {
  symmetry C1
  -1 1 
  C      1.885   -1.036   -0.112
  C      2.878   -1.652   2.002
  C      0.807   -0.463   0.561
  C      1.800   -1.079   2.676
  C      5.207   -2.536   0.598
  C      3.951   -2.491   -1.452
  C      6.249   -3.106   -0.116
  C      5.049   -3.062   -2.074
  C      2.921   -1.631   0.608
  C      4.040   -2.226   -0.090
  C      0.764   -0.484   1.955
  N      6.200   -3.378   -1.439
  O      -0.227   0.042   2.574
  H      1.904   -1.011   -1.199
  H      3.678   -2.112   2.577
  H      0.011   -0.006   -0.025
  H      1.791   -1.108   3.764
  H      5.314   -2.346   1.661
  H      3.057   -2.262   -2.022
  H      7.180   -3.369   0.376
  H      5.031   -3.287   -3.135
  units Angstrom
}

dih_string = "1 9 10 5 165"
set optking fixed_dihedral = $dih_string

optimize('MP2/aug-cc-PVTZ')
--------------------------------------------------------------------------

  Memory set to   4.657 GiB by Python driver.
gradient() will perform analytic gradient computation.

*** tstart() called on gpu-2-4.local
*** at Sun Nov 12 03:30:03 2017

    SCF Algorithm Type (re)set to DF.

*** tstart() called on gpu-2-4.local
*** at Sun Nov 12 03:30:03 2017

   => Loading Basis Set <=

    Name: AUG-CC-PVTZ
    Role: ORBITAL
    Keyword: BASIS
    atoms 1-11  entry C          line   221 file /cbio/jclab/home/chayas/anaconda/envs/py35/share/psi4/basis/aug-cc-pvtz.gbs 
    atoms 12    entry N          line   267 file /cbio/jclab/home/chayas/anaconda/envs/py35/share/psi4/basis/aug-cc-pvtz.gbs 
    atoms 13    entry O          line   313 file /cbio/jclab/home/chayas/anaconda/envs/py35/share/psi4/basis/aug-cc-pvtz.gbs 
    atoms 14-21 entry H          line    34 file /cbio/jclab/home/chayas/anaconda/envs/py35/share/psi4/basis/aug-cc-pvtz.gbs 


         ---------------------------------------------------------
                                   SCF
            by Justin Turney, Rob Parrish, and Andy Simmonett
                              RHF Reference
                        8 Threads,   4768 MiB Core
         ---------------------------------------------------------

  ==> Geometry <==

    Molecular point group: c1
    Full point group: C1

    Geometry (in Angstrom), charge = -1, multiplicity = 1:

       Center              X                  Y                   Z               Mass       
    ------------   -----------------  -----------------  -----------------  -----------------
           C         -1.278490445365     0.724812986517    -0.568926051111    12.000000000000
           C         -0.285490445365     0.108812986517     1.545073948889    12.000000000000
           C         -2.356490445365     1.297812986517     0.104073948889    12.000000000000
           C         -1.363490445365     0.681812986517     2.219073948889    12.000000000000
           C          2.043509554635    -0.775187013483     0.141073948889    12.000000000000
           C          0.787509554635    -0.730187013483    -1.908926051111    12.000000000000
           C          3.085509554635    -1.345187013483    -0.572926051111    12.000000000000
           C          1.885509554635    -1.301187013483    -2.530926051111    12.000000000000
           C         -0.242490445365     0.129812986517     0.151073948889    12.000000000000
           C          0.876509554635    -0.465187013483    -0.546926051111    12.000000000000
           C         -2.399490445365     1.276812986517     1.498073948889    12.000000000000
           N          3.036509554635    -1.617187013483    -1.895926051111    14.003074004780
           O         -3.390490445365     1.802812986517     2.117073948889    15.994914619560
           H         -1.259490445365     0.749812986517    -1.655926051111     1.007825032070
           H          0.514509554635    -0.351187013483     2.120073948889     1.007825032070
           H         -3.152490445365     1.754812986517    -0.481926051111     1.007825032070
           H         -1.372490445365     0.652812986517     3.307073948889     1.007825032070
           H          2.150509554635    -0.585187013483     1.204073948889     1.007825032070
           H         -0.106490445365    -0.501187013483    -2.478926051111     1.007825032070
           H          4.016509554635    -1.608187013483    -0.080926051111     1.007825032070
           H          1.867509554635    -1.526187013483    -3.591926051111     1.007825032070

  Running in c1 symmetry.

  Rotational constants: A =      0.09735  B =      0.01403  C =      0.01232 [cm^-1]
  Rotational constants: A =   2918.58739  B =    420.72593  C =    369.31136 [MHz]
  Nuclear repulsion =  687.440492760171196

  Charge       = -1
  Multiplicity = 1
  Electrons    = 90
  Nalpha       = 45
  Nbeta        = 45

  ==> Algorithm <==

  SCF Algorithm Type is DF.
  DIIS enabled.
  MOM disabled.
  Fractional occupation disabled.
  Guess Type is SAD.
  Energy threshold   = 1.00e-10
  Density threshold  = 1.00e-10
  Integral threshold = 0.00e+00

  ==> Primary Basis <==

  Basis Set: AUG-CC-PVTZ
    Blend: AUG-CC-PVTZ
    Number of shells: 254
    Number of basis function: 782
    Number of Cartesian functions: 915
    Spherical Harmonics?: true
    Max angular momentum: 3

   => Loading Basis Set <=

    Name: (AUG-CC-PVTZ AUX)
    Role: JKFIT
    Keyword: DF_BASIS_SCF
    atoms 1-11  entry C          line   161 file /cbio/jclab/home/chayas/anaconda/envs/py35/share/psi4/basis/aug-cc-pvtz-jkfit.gbs 
    atoms 12    entry N          line   223 file /cbio/jclab/home/chayas/anaconda/envs/py35/share/psi4/basis/aug-cc-pvtz-jkfit.gbs 
    atoms 13    entry O          line   285 file /cbio/jclab/home/chayas/anaconda/envs/py35/share/psi4/basis/aug-cc-pvtz-jkfit.gbs 
    atoms 14-21 entry H          line    69 file /cbio/jclab/home/chayas/anaconda/envs/py35/share/psi4/basis/aug-cc-pvtz-jkfit.gbs 

  ==> Pre-Iterations <==

   -------------------------------------------------------
    Irrep   Nso     Nmo     Nalpha   Nbeta   Ndocc  Nsocc
   -------------------------------------------------------
     A        782     782       0       0       0       0
   -------------------------------------------------------
    Total     782     782      45      45      45       0
   -------------------------------------------------------

  ==> Integral Setup <==

  ==> DFJK: Density-Fitted J/K Matrices <==

    J tasked:                  Yes
    K tasked:                  Yes
    wK tasked:                  No
    OpenMP threads:              8
    Integrals threads:           8
    Memory (MB):              3576
    Algorithm:                Disk
    Integral Cache:           NONE
    Schwarz Cutoff:          1E-12
    Fitting Condition:       1E-12

   => Auxiliary Basis Set <=

  Basis Set: (AUG-CC-PVTZ AUX)
    Blend: AUG-CC-PVTZ-JKFIT
    Number of shells: 502
    Number of basis function: 1720
    Number of Cartesian functions: 2143
    Spherical Harmonics?: true
    Max angular momentum: 4

  Minimum eigenvalue in the overlap matrix is 6.3220810586E-07.
  Using Symmetric Orthogonalization.

  SCF Guess: Superposition of Atomic Densities via on-the-fly atomic UHF.

  ==> Iterations <==

                           Total Energy        Delta E     RMS |[F,P]|

   @DF-RHF iter   0:  -563.84705430841905   -5.63847e+02   1.87560e-02 
   @DF-RHF iter   1:  -550.26173392749990    1.35853e+01   1.74232e-03 
   @DF-RHF iter   2:  -550.54657791237196   -2.84844e-01   1.25079e-03 DIIS
   @DF-RHF iter   3:  -550.69226904016591   -1.45691e-01   3.64749e-04 DIIS
   @DF-RHF iter   4:  -550.70991135330678   -1.76423e-02   1.24938e-04 DIIS
   @DF-RHF iter   5:  -550.71324720544828   -3.33585e-03   4.21158e-05 DIIS
   @DF-RHF iter   6:  -550.71376490624061   -5.17701e-04   2.02048e-05 DIIS
   @DF-RHF iter   7:  -550.71385058305395   -8.56768e-05   7.87652e-06 DIIS
   @DF-RHF iter   8:  -550.71386342448341   -1.28414e-05   2.64007e-06 DIIS
   @DF-RHF iter   9:  -550.71386657092546   -3.14644e-06   1.30841e-06 DIIS
   @DF-RHF iter  10:  -550.71386720284204   -6.31917e-07   5.94379e-07 DIIS
   @DF-RHF iter  11:  -550.71386732376823   -1.20926e-07   1.48416e-07 DIIS
   @DF-RHF iter  12:  -550.71386733156351   -7.79528e-09   5.33698e-08 DIIS
   @DF-RHF iter  13:  -550.71386733244799   -8.84484e-10   2.98609e-08 DIIS
   @DF-RHF iter  14:  -550.71386733270322   -2.55227e-10   8.66487e-09 DIIS
   @DF-RHF iter  15:  -550.71386733273550   -3.22871e-11   5.66472e-09 DIIS
   @DF-RHF iter  16:  -550.71386733273550    0.00000e+00   2.13232e-09 DIIS
   @DF-RHF iter  17:  -550.71386733274937   -1.38698e-11   1.13221e-09 DIIS
   @DF-RHF iter  18:  -550.71386733274085    8.52651e-12   4.57702e-10 DIIS
   @DF-RHF iter  19:  -550.71386733274039    4.54747e-13   1.94590e-10 DIIS
   @DF-RHF iter  20:  -550.71386733274699   -6.59384e-12   7.86063e-11 DIIS

  ==> Post-Iterations <==

    Orbital Energies (a.u.)
    -----------------------

    Doubly Occupied:                                                      

       1A    -20.302101     2A    -15.443723     3A    -11.164912  
       4A    -11.164755     5A    -11.142448     6A    -11.119476  
       7A    -11.114632     8A    -11.114598     9A    -11.102250  
      10A    -11.102200    11A    -11.076156    12A    -11.063895  
      13A    -11.063858    14A     -1.134902    15A     -1.132828  
      16A     -1.020395    17A     -0.957049    18A     -0.921201  
      19A     -0.870594    20A     -0.838515    21A     -0.747533  
      22A     -0.731980    23A     -0.679852    24A     -0.649116  
      25A     -0.599295    26A     -0.548568    27A     -0.545613  
      28A     -0.499389    29A     -0.492404    30A     -0.481567  
      31A     -0.481160    32A     -0.442456    33A     -0.431520  
      34A     -0.409298    35A     -0.407960    36A     -0.382756  
      37A     -0.355134    38A     -0.353220    39A     -0.316406  
      40A     -0.304114    41A     -0.242893    42A     -0.241013  
      43A     -0.218715    44A     -0.200563    45A     -0.106549  

    Virtual:                                                              

      46A      0.099127    47A      0.099809    48A      0.116327  
      49A      0.116452    50A      0.128324    51A      0.129888  
      52A      0.135350    53A      0.139183    54A      0.164139  
      55A      0.165952    56A      0.176843    57A      0.183883  
      58A      0.185581    59A      0.188660    60A      0.191144  
      61A      0.196167    62A      0.200211    63A      0.206527  
      64A      0.209191    65A      0.212849    66A      0.214671  
      67A      0.217633    68A      0.219373    69A      0.229384  
      70A      0.230337    71A      0.234471    72A      0.238545  
      73A      0.239867    74A      0.240696    75A      0.248724  
      76A      0.250085    77A      0.254498    78A      0.264057  
      79A      0.265302    80A      0.269083    81A      0.271531  
      82A      0.279198    83A      0.283839    84A      0.290363  
      85A      0.293645    86A      0.301220    87A      0.311530  
      88A      0.315246    89A      0.316674    90A      0.323073  
      91A      0.328752    92A      0.329984    93A      0.332058  
      94A      0.335151    95A      0.342367    96A      0.344942  
      97A      0.349169    98A      0.357618    99A      0.364389  
     100A      0.365412   101A      0.376211   102A      0.382685  
     103A      0.384483   104A      0.384906   105A      0.389542  
     106A      0.391165   107A      0.400821   108A      0.402492  
     109A      0.404972   110A      0.416304   111A      0.416912  
     112A      0.423931   113A      0.428157   114A      0.428952  
     115A      0.432086   116A      0.436467   117A      0.442110  
     118A      0.443977   119A      0.457704   120A      0.461070  
     121A      0.462174   122A      0.477539   123A      0.478512  
     124A      0.482073   125A      0.490232   126A      0.496556  
     127A      0.500116   128A      0.502239   129A      0.518980  
     130A      0.521705   131A      0.522051   132A      0.522386  
     133A      0.530527   134A      0.540504   135A      0.541828  
     136A      0.542574   137A      0.554733   138A      0.560812  
     139A      0.561217   140A      0.562037   141A      0.568054  
     142A      0.573008   143A      0.575826   144A      0.577719  
     145A      0.578580   146A      0.590080   147A      0.594241  
     148A      0.596411   149A      0.598639   150A      0.599713  
     151A      0.606092   152A      0.607036   153A      0.611325  
     154A      0.615062   155A      0.615950   156A      0.617148  
     157A      0.624642   158A      0.628756   159A      0.634522  
     160A      0.637061   161A      0.639707   162A      0.644289  
     163A      0.651101   164A      0.652800   165A      0.660978  
     166A      0.662496   167A      0.671099   168A      0.671282  
     169A      0.675222   170A      0.680642   171A      0.693359  
     172A      0.694771   173A      0.699669   174A      0.703544  
     175A      0.716519   176A      0.716550   177A      0.723338  
     178A      0.724575   179A      0.733663   180A      0.738392  
     181A      0.742389   182A      0.755213   183A      0.762730  
     184A      0.763311   185A      0.773046   186A      0.778952  
     187A      0.789631   188A      0.795149   189A      0.807809  
     190A      0.811165   191A      0.812980   192A      0.815007  
     193A      0.818206   194A      0.824242   195A      0.827175  
     196A      0.827287   197A      0.836423   198A      0.838729  
     199A      0.848330   200A      0.858248   201A      0.866153  
     202A      0.866855   203A      0.873426   204A      0.878564  
     205A      0.882260   206A      0.886216   207A      0.901701  
     208A      0.906856   209A      0.914289   210A      0.918415  
     211A      0.920689   212A      0.934125   213A      0.936574  
     214A      0.954142   215A      0.956558   216A      0.962690  
     217A      0.965374   218A      0.976393   219A      0.985631  
     220A      0.990063   221A      0.992837   222A      1.001141  
     223A      1.001711   224A      1.006221   225A      1.009463  
     226A      1.010042   227A      1.013140   228A      1.022578  
     229A      1.024067   230A      1.034366   231A      1.035492  
     232A      1.037498   233A      1.046977   234A      1.048341  
     235A      1.060039   236A      1.060556   237A      1.061349  
     238A      1.064726   239A      1.069923   240A      1.077983  
     241A      1.087542   242A      1.090166   243A      1.094499  
     244A      1.104020   245A      1.106473   246A      1.109294  
     247A      1.111516   248A      1.116685   249A      1.119589  
     250A      1.122458   251A      1.126139   252A      1.129783  
     253A      1.132477   254A      1.137595   255A      1.139647  
     256A      1.144728   257A      1.145484   258A      1.147431  
     259A      1.162599   260A      1.162954   261A      1.163028  
     262A      1.169744   263A      1.171617   264A      1.175147  
     265A      1.189389   266A      1.192917   267A      1.195491  
     268A      1.204088   269A      1.212963   270A      1.220536  
     271A      1.226624   272A      1.231411   273A      1.240620  
     274A      1.243071   275A      1.246411   276A      1.255356  
     277A      1.261439   278A      1.261604   279A      1.269929  
     280A      1.274091   281A      1.278366   282A      1.280597  
     283A      1.292530   284A      1.295577   285A      1.299635  
     286A      1.301648   287A      1.309861   288A      1.316377  
     289A      1.316942   290A      1.322106   291A      1.325132  
     292A      1.325474   293A      1.330602   294A      1.339493  
     295A      1.346958   296A      1.349528   297A      1.351654  
     298A      1.354001   299A      1.359559   300A      1.373782  
     301A      1.374015   302A      1.380190   303A      1.386407  
     304A      1.398278   305A      1.399441   306A      1.407195  
     307A      1.411844   308A      1.427187   309A      1.431548  
     310A      1.436730   311A      1.438728   312A      1.443184  
     313A      1.454370   314A      1.466816   315A      1.471980  
     316A      1.479242   317A      1.483591   318A      1.484279  
     319A      1.498481   320A      1.510122   321A      1.514776  
     322A      1.523475   323A      1.525358   324A      1.531247  
     325A      1.550030   326A      1.551140   327A      1.560403  
     328A      1.568279   329A      1.581483   330A      1.591490  
     331A      1.600445   332A      1.609884   333A      1.619720  
     334A      1.622432   335A      1.633030   336A      1.637539  
     337A      1.644127   338A      1.652319   339A      1.656355  
     340A      1.673855   341A      1.688780   342A      1.689386  
     343A      1.704874   344A      1.711847   345A      1.720960  
     346A      1.739110   347A      1.749556   348A      1.752229  
     349A      1.765809   350A      1.769453   351A      1.778842  
     352A      1.787809   353A      1.788235   354A      1.802009  
     355A      1.802945   356A      1.807236   357A      1.820139  
     358A      1.830235   359A      1.831984   360A      1.839163  
     361A      1.840092   362A      1.845406   363A      1.850386  
     364A      1.869771   365A      1.871928   366A      1.877348  
     367A      1.896274   368A      1.901919   369A      1.919797  
     370A      1.933465   371A      1.938663   372A      1.946655  
     373A      1.948480   374A      1.948713   375A      1.965669  
     376A      1.966181   377A      1.983493   378A      1.985729  
     379A      1.998499   380A      2.008444   381A      2.016086  
     382A      2.024616   383A      2.031280   384A      2.037873  
     385A      2.046924   386A      2.061045   387A      2.066671  
     388A      2.076945   389A      2.082126   390A      2.096134  
     391A      2.099336   392A      2.103629   393A      2.116098  
     394A      2.116448   395A      2.120342   396A      2.133260  
     397A      2.140069   398A      2.143127   399A      2.148916  
     400A      2.162636   401A      2.163051   402A      2.173038  
     403A      2.174463   404A      2.179151   405A      2.181713  
     406A      2.192720   407A      2.194958   408A      2.202888  
     409A      2.215677   410A      2.222461   411A      2.232169  
     412A      2.235141   413A      2.248575   414A      2.250231  
     415A      2.263206   416A      2.263913   417A      2.285371  
     418A      2.297651   419A      2.304200   420A      2.311270  
     421A      2.313615   422A      2.319208   423A      2.324399  
     424A      2.326652   425A      2.330854   426A      2.348984  
     427A      2.354211   428A      2.380875   429A      2.384920  
     430A      2.390834   431A      2.403727   432A      2.418522  
     433A      2.419445   434A      2.430572   435A      2.443937  
     436A      2.444459   437A      2.456158   438A      2.473407  
     439A      2.490321   440A      2.492834   441A      2.506356  
     442A      2.509427   443A      2.516685   444A      2.534118  
     445A      2.557878   446A      2.563637   447A      2.564868  
     448A      2.571433   449A      2.580301   450A      2.588204  
     451A      2.588526   452A      2.615403   453A      2.626048  
     454A      2.628229   455A      2.646837   456A      2.655798  
     457A      2.665337   458A      2.681314   459A      2.683363  
     460A      2.707720   461A      2.714161   462A      2.726052  
     463A      2.739969   464A      2.740626   465A      2.759981  
     466A      2.774273   467A      2.790780   468A      2.819023  
     469A      2.839746   470A      2.855178   471A      2.858309  
     472A      2.870021   473A      2.896923   474A      2.911183  
     475A      2.926655   476A      2.933502   477A      2.949513  
     478A      2.961624   479A      2.963146   480A      2.982172  
     481A      3.008083   482A      3.022804   483A      3.046180  
     484A      3.057027   485A      3.110131   486A      3.120872  
     487A      3.143715   488A      3.157359   489A      3.174284  
     490A      3.187912   491A      3.209900   492A      3.213040  
     493A      3.253064   494A      3.256420   495A      3.269353  
     496A      3.296046   497A      3.320238   498A      3.344039  
     499A      3.352680   500A      3.358943   501A      3.377082  
     502A      3.403764   503A      3.423747   504A      3.432268  
     505A      3.443446   506A      3.453331   507A      3.466111  
     508A      3.492631   509A      3.495609   510A      3.505394  
     511A      3.507746   512A      3.513728   513A      3.515866  
     514A      3.532251   515A      3.541831   516A      3.558244  
     517A      3.559401   518A      3.561664   519A      3.567582  
     520A      3.586803   521A      3.593771   522A      3.628546  
     523A      3.633461   524A      3.638323   525A      3.656887  
     526A      3.664487   527A      3.664536   528A      3.678486  
     529A      3.684496   530A      3.684836   531A      3.696390  
     532A      3.697053   533A      3.712833   534A      3.714419  
     535A      3.738317   536A      3.748487   537A      3.756387  
     538A      3.760955   539A      3.766449   540A      3.785170  
     541A      3.798095   542A      3.799698   543A      3.803672  
     544A      3.816444   545A      3.817307   546A      3.834239  
     547A      3.838541   548A      3.845843   549A      3.861291  
     550A      3.872128   551A      3.890169   552A      3.899307  
     553A      3.913342   554A      3.919759   555A      3.927008  
     556A      3.928616   557A      3.940195   558A      3.948652  
     559A      3.957785   560A      3.958110   561A      3.982174  
     562A      3.984746   563A      4.012112   564A      4.016545  
     565A      4.017017   566A      4.030193   567A      4.034337  
     568A      4.044056   569A      4.054169   570A      4.062874  
     571A      4.065798   572A      4.070477   573A      4.084676  
     574A      4.088938   575A      4.100397   576A      4.111027  
     577A      4.116341   578A      4.137395   579A      4.140469  
     580A      4.149462   581A      4.151556   582A      4.158837  
     583A      4.164679   584A      4.174673   585A      4.185963  
     586A      4.194100   587A      4.194872   588A      4.199206  
     589A      4.232106   590A      4.245731   591A      4.255952  
     592A      4.265719   593A      4.276301   594A      4.287129  
     595A      4.288200   596A      4.295833   597A      4.310572  
     598A      4.315062   599A      4.334913   600A      4.343223  
     601A      4.355393   602A      4.361501   603A      4.361612  
     604A      4.366265   605A      4.369474   606A      4.375776  
     607A      4.398170   608A      4.404929   609A      4.415830  
     610A      4.427725   611A      4.432627   612A      4.449008  
     613A      4.466053   614A      4.475683   615A      4.479062  
     616A      4.485742   617A      4.492936   618A      4.504983  
     619A      4.513605   620A      4.519203   621A      4.531547  
     622A      4.542218   623A      4.552587   624A      4.557353  
     625A      4.571569   626A      4.579597   627A      4.585817  
     628A      4.604379   629A      4.606262   630A      4.609729  
     631A      4.610205   632A      4.630860   633A      4.662638  
     634A      4.669540   635A      4.676704   636A      4.681767  
     637A      4.687524   638A      4.696942   639A      4.723600  
     640A      4.735751   641A      4.749727   642A      4.769839  
     643A      4.770576   644A      4.779284   645A      4.792087  
     646A      4.797164   647A      4.833067   648A      4.864555  
     649A      4.871680   650A      4.877797   651A      4.879551  
     652A      4.889751   653A      4.906448   654A      4.935831  
     655A      4.940645   656A      4.961044   657A      4.981112  
     658A      4.988912   659A      5.005333   660A      5.005736  
     661A      5.035960   662A      5.051499   663A      5.060657  
     664A      5.067240   665A      5.079032   666A      5.101214  
     667A      5.113244   668A      5.115366   669A      5.137182  
     670A      5.156662   671A      5.168740   672A      5.169334  
     673A      5.177181   674A      5.186310   675A      5.216738  
     676A      5.229775   677A      5.239616   678A      5.252234  
     679A      5.269433   680A      5.273772   681A      5.278580  
     682A      5.280327   683A      5.287759   684A      5.292111  
     685A      5.295759   686A      5.300058   687A      5.322015  
     688A      5.339427   689A      5.366171   690A      5.366512  
     691A      5.399303   692A      5.403456   693A      5.417245  
     694A      5.441074   695A      5.471273   696A      5.475306  
     697A      5.487814   698A      5.504853   699A      5.554567  
     700A      5.556637   701A      5.570991   702A      5.578096  
     703A      5.597700   704A      5.626159   705A      5.648022  
     706A      5.652578   707A      5.664693   708A      5.676922  
     709A      5.685835   710A      5.731205   711A      5.732254  
     712A      5.822527   713A      5.842923   714A      5.857299  
     715A      5.869917   716A      5.879711   717A      5.896318  
     718A      5.913116   719A      5.938517   720A      5.954316  
     721A      5.964794   722A      5.981211   723A      6.012077  
     724A      6.027878   725A      6.033310   726A      6.099937  
     727A      6.115326   728A      6.199840   729A      6.260852  
     730A      6.302190   731A      6.310866   732A      6.317301  
     733A      6.372394   734A      6.392483   735A      6.431080  
     736A      6.449799   737A      6.536762   738A      6.566890  
     739A      6.608634   740A      6.611440   741A      6.677870  
     742A      6.712917   743A      6.770896   744A      6.781109  
     745A      6.839936   746A      6.854129   747A      6.861244  
     748A      6.863140   749A      6.896249   750A      6.986695  
     751A      7.009450   752A      7.056850   753A      7.083128  
     754A      7.085024   755A      7.106674   756A      7.184875  
     757A      7.217148   758A      7.260966   759A      7.316813  
     760A      7.355492   761A      7.364944   762A      7.564695  
     763A      7.613468   764A      7.641294   765A      7.927838  
     766A      7.946980   767A      8.025507   768A      8.147736  
     769A      8.219642   770A     15.747562   771A     16.144098  
     772A     16.531290   773A     17.216335   774A     17.375030  
     775A     18.678968   776A     19.059747   777A     19.700372  
     778A     20.036522   779A     20.450596   780A     20.611493  
     781A     20.880165   782A     21.508890  

    Final Occupation by Irrep:
              A 
    DOCC [    45 ]

  Energy converged.

  @DF-RHF Final Energy:  -550.71386733274699

   => Energetics <=

    Nuclear Repulsion Energy =            687.4404927601711961
    One-Electron Energy =               -2124.8696016720004991
    Two-Electron Energy =                 886.7152415790822033
    DFT Exchange-Correlation Energy =       0.0000000000000000
    Empirical Dispersion Energy =           0.0000000000000000
    PCM Polarization Energy =               0.0000000000000000
    EFP Energy =                            0.0000000000000000
    Total Energy =                       -550.7138673327469860



Properties will be evaluated at   0.000000,   0.000000,   0.000000 Bohr

Properties computed using the SCF density matrix

  Nuclear Dipole Moment: (a.u.)
     X:     2.4668      Y:    -1.3127      Z:    -1.5390

  Electronic Dipole Moment: (a.u.)
     X:     0.1312      Y:    -0.0682      Z:    -0.0833

  Dipole Moment: (a.u.)
     X:     2.5979      Y:    -1.3809      Z:    -1.6223     Total:     3.3598

  Dipole Moment: (Debye)
     X:     6.6033      Y:    -3.5098      Z:    -4.1235     Total:     8.5397


*** tstop() called on gpu-2-4.local at Sun Nov 12 03:37:22 2017
Module time:
	user time   =     915.24 seconds =      15.25 minutes
	system time =     158.50 seconds =       2.64 minutes
	total time  =        439 seconds =       7.32 minutes
Total time:
	user time   =     915.25 seconds =      15.25 minutes
	system time =     158.50 seconds =       2.64 minutes
	total time  =        439 seconds =       7.32 minutes

  //>>>>>>>>>>>>>>>>>>>>>>>>>>>>>>>>>>>//
  //               DFMP2               //
  //<<<<<<<<<<<<<<<<<<<<<<<<<<<<<<<<<<<//

   => Loading Basis Set <=

    Name: (AUG-CC-PVTZ AUX)
    Role: RIFIT
    Keyword: DF_BASIS_MP2
    atoms 1-11  entry C          line   147 file /cbio/jclab/home/chayas/anaconda/envs/py35/share/psi4/basis/aug-cc-pvtz-ri.gbs 
    atoms 12    entry N          line   205 file /cbio/jclab/home/chayas/anaconda/envs/py35/share/psi4/basis/aug-cc-pvtz-ri.gbs 
    atoms 13    entry O          line   263 file /cbio/jclab/home/chayas/anaconda/envs/py35/share/psi4/basis/aug-cc-pvtz-ri.gbs 
    atoms 14-21 entry H          line    29 file /cbio/jclab/home/chayas/anaconda/envs/py35/share/psi4/basis/aug-cc-pvtz-ri.gbs 

	 --------------------------------------------------------
	                          DF-MP2                         
	      2nd-Order Density-Fitted Moller-Plesset Theory     
	              RMP2 Wavefunction,   8 Threads             
	                                                         
	        Rob Parrish, Justin Turney, Andy Simmonett,      
	           Ed Hohenstein, and C. David Sherrill          
	 --------------------------------------------------------

   => Auxiliary Basis Set <=

  Basis Set: (AUG-CC-PVTZ AUX)
    Blend: AUG-CC-PVTZ-RI
    Number of shells: 476
    Number of basis function: 1746
    Number of Cartesian functions: 2208
    Spherical Harmonics?: true
    Max angular momentum: 4

	 --------------------------------------------------------
	                 NBF =   782, NAUX =  1746
	 --------------------------------------------------------
	   CLASS    FOCC     OCC    AOCC    AVIR     VIR    FVIR
	   PAIRS       0      45      45     737     737       0
	 --------------------------------------------------------


         ------------------------------------------------------------
                                     CPHF                           
                                  Rob Parrish                       
         ------------------------------------------------------------

  ==> Geometry <==

    Molecular point group: c1
    Full point group: C1

    Geometry (in Angstrom), charge = -1, multiplicity = 1:

       Center              X                  Y                   Z               Mass       
    ------------   -----------------  -----------------  -----------------  -----------------
           C         -1.278490445365     0.724812986517    -0.568926051111    12.000000000000
           C         -0.285490445365     0.108812986517     1.545073948889    12.000000000000
           C         -2.356490445365     1.297812986517     0.104073948889    12.000000000000
           C         -1.363490445365     0.681812986517     2.219073948889    12.000000000000
           C          2.043509554635    -0.775187013483     0.141073948889    12.000000000000
           C          0.787509554635    -0.730187013483    -1.908926051111    12.000000000000
           C          3.085509554635    -1.345187013483    -0.572926051111    12.000000000000
           C          1.885509554635    -1.301187013483    -2.530926051111    12.000000000000
           C         -0.242490445365     0.129812986517     0.151073948889    12.000000000000
           C          0.876509554635    -0.465187013483    -0.546926051111    12.000000000000
           C         -2.399490445365     1.276812986517     1.498073948889    12.000000000000
           N          3.036509554635    -1.617187013483    -1.895926051111    14.003074004780
           O         -3.390490445365     1.802812986517     2.117073948889    15.994914619560
           H         -1.259490445365     0.749812986517    -1.655926051111     1.007825032070
           H          0.514509554635    -0.351187013483     2.120073948889     1.007825032070
           H         -3.152490445365     1.754812986517    -0.481926051111     1.007825032070
           H         -1.372490445365     0.652812986517     3.307073948889     1.007825032070
           H          2.150509554635    -0.585187013483     1.204073948889     1.007825032070
           H         -0.106490445365    -0.501187013483    -2.478926051111     1.007825032070
           H          4.016509554635    -1.608187013483    -0.080926051111     1.007825032070
           H          1.867509554635    -1.526187013483    -3.591926051111     1.007825032070

  Nuclear repulsion =  687.440492760171196
  Reference energy  = -550.713867332746986

  ==> Basis Set <==

  Basis Set: AUG-CC-PVTZ
    Blend: AUG-CC-PVTZ
    Number of shells: 254
    Number of basis function: 782
    Number of Cartesian functions: 915
    Spherical Harmonics?: true
    Max angular momentum: 3

  ==> CGRSolver (by Rob Parrish) <==

   Number of roots    =         1
   Preconditioning    =    JACOBI
   Convergence cutoff =     1E-06
   Maximum iterations =       100

  ==> CPHFRHamiltonian (by Rob Parrish) <== 

  ==> DFJK: Density-Fitted J/K Matrices <==

    J tasked:                  Yes
    K tasked:                  Yes
    wK tasked:                  No
    OpenMP threads:              8
    Integrals threads:           8
    Memory (MB):              3576
    Algorithm:                Disk
    Integral Cache:           NONE
    Schwarz Cutoff:          1E-12
    Fitting Condition:       1E-12

   => Auxiliary Basis Set <=

  Basis Set: (AUG-CC-PVTZ AUX)
    Blend: AUG-CC-PVTZ-JKFIT
    Number of shells: 502
    Number of basis function: 1720
    Number of Cartesian functions: 2143
    Spherical Harmonics?: true
    Max angular momentum: 4

  ==> CPHF Iterations <==

  => Iterations <=

             Iter  Converged  Remaining    Residual
  CGR           1          0          1   1.423E-01
  CGR           2          0          1   5.629E-02
  CGR           3          0          1   3.330E-02
  CGR           4          0          1   1.181E-02
  CGR           5          0          1   5.797E-03
  CGR           6          0          1   3.183E-03
  CGR           7          0          1   9.332E-04
  CGR           8          0          1   3.110E-04
  CGR           9          0          1   1.224E-04
  CGR          10          0          1   3.704E-05
  CGR          11          0          1   1.422E-05
  CGR          12          0          1   6.160E-06
  CGR          13          0          1   2.699E-06
  CGR          14          0          1   1.067E-06
  CGR          15          1          0   3.242E-07

    CGRSolver converged.

  ==> DFCorrGrad: Density-Fitted Correlated Gradients <==

    OpenMP threads:              8
    Integrals threads:           8
    Memory (MB):              3576
    Schwarz Cutoff:          0E+00
    Fitting Condition:       1E-12

   => Auxiliary Basis Set <=

  Basis Set: (AUG-CC-PVTZ AUX)
    Blend: AUG-CC-PVTZ-JKFIT
    Number of shells: 502
    Number of basis function: 1720
    Number of Cartesian functions: 2143
    Spherical Harmonics?: true
    Max angular momentum: 4

	-----------------------------------------------------------
	 ==================> DF-MP2 Energies <==================== 
	-----------------------------------------------------------
	 Reference Energy          =    -550.7138673327469860 [Eh]
	 Singles Energy            =      -0.0000000000000010 [Eh]
	 Same-Spin Energy          =      -0.6143282920190034 [Eh]
	 Opposite-Spin Energy      =      -1.8396304230818250 [Eh]
	 Correlation Energy        =      -2.4539587151008293 [Eh]
	 Total Energy              =    -553.1678260478478251 [Eh]
	-----------------------------------------------------------
	 ================> DF-SCS-MP2 Energies <================== 
	-----------------------------------------------------------
	 SCS Same-Spin Scale       =       0.3333333333333333 [-]
	 SCS Opposite-Spin Scale   =       1.2000000000000000 [-]
	 SCS Same-Spin Energy      =      -0.2047760973396678 [Eh]
	 SCS Opposite-Spin Energy  =      -2.2075565076981900 [Eh]
	 SCS Correlation Energy    =      -2.4123326050378586 [Eh]
	 SCS Total Energy          =    -553.1261999377848042 [Eh]
	-----------------------------------------------------------


  -Total Gradient:
     Atom            X                  Y                   Z
    ------   -----------------  -----------------  -----------------
       1        0.019752659066    -0.008033710954    -0.008440740843
       2        0.015664428458    -0.010774774480    -0.013707970945
       3       -0.023880635058     0.012028528103     0.040197003279
       4       -0.042399290011     0.023055900013     0.002078781146
       5       -0.015799160416     0.009978656893     0.009864156680
       6       -0.016754199765     0.007122345829     0.009507738118
       7        0.001276582821     0.002315843279     0.008368777004
       8       -0.007938234567     0.001276705538    -0.004528725469
       9       -0.015889982029     0.008353993189     0.009822198107
      10        0.025151144011    -0.013220557953    -0.015202067529
      11        0.050666681248    -0.026752789826    -0.032161106279
      12        0.005690569783    -0.003054182570    -0.003459499012
      13       -0.001123922016     0.000531797403     0.000779754267
      14       -0.000246026576    -0.001349377896    -0.005905597630
      15        0.005201372874    -0.001256277237     0.002699021658
      16       -0.002077750607     0.000883557101    -0.008977421827
      17        0.005714673436    -0.002799443904     0.006361478784
      18       -0.000049135843    -0.000127084382     0.007135261925
      19       -0.005115555772     0.002931293914    -0.003532682548
      20        0.001481954031    -0.000885792600     0.000309430866
      21        0.000673826922    -0.000224629458    -0.001207789744


*** tstop() called on gpu-2-4.local at Sun Nov 12 04:06:09 2017
Module time:
	user time   =    4357.16 seconds =      72.62 minutes
	system time =     354.74 seconds =       5.91 minutes
	total time  =       2166 seconds =      36.10 minutes
Total time:
	user time   =    4357.17 seconds =      72.62 minutes
	system time =     354.74 seconds =       5.91 minutes
	total time  =       2166 seconds =      36.10 minutes

			-----------------------------------------
			 OPTKING 2.0: for geometry optimizations 
			  - R.A. King,  Bethel University        
			-----------------------------------------

	Internal coordinates to be generated automatically.
	Detected frag 1 with atoms:  1 2 3 4 5 6 7 8 9 10 11 12 13 14 15 16 17 18 19 20
	 21
	---Fragment 1 Bond Connectivity---
	 1 : 3 9 14
	 2 : 4 9 15
	 3 : 1 11 16
	 4 : 2 11 17
	 5 : 7 10 18
	 6 : 8 10 19
	 7 : 5 12 20
	 8 : 6 12 21
	 9 : 1 2 10
	 10 : 5 6 9
	 11 : 3 4 13
	 12 : 7 8
	 13 : 11
	 14 : 1
	 15 : 2
	 16 : 3
	 17 : 4
	 18 : 5
	 19 : 6
	 20 : 7
	 21 : 8

	Assuming in current code that numbering for constraints corresponds to unified fragment.
	Fixed dihedral atom list: 
	     1     9    10     5
	---Fragment 1 Geometry and Gradient---
	 C          -2.4159968053        1.3696980421       -1.0751144265
	 C          -0.5394987553        0.2056267442        2.9197666185
	 C          -4.4531215765        2.4525111162        0.1966712610
	 C          -2.5766235265        1.2884398184        4.1934420320
	 C           3.8616734082       -1.4648911573        0.2665911279
	 C           1.4881773853       -1.3798534813       -3.6073474445
	 C           5.8307680387       -2.5420350530       -1.0826733310
	 C           3.5630966792       -2.4588871031       -4.7827570992
	 C          -0.4582405316        0.2453109930        0.2854883892
	 C           1.6563630111       -0.8790760561       -1.0335404515
	 C          -4.5343798002        2.4128268674        2.8309494902
	 N           5.7381714582       -3.0560405611       -3.5827810048
	 O          -6.4070983979        3.4068228133        4.0006899665
	 H          -2.3800920087        1.4169411954       -3.1292467329
	 H           0.9722821510       -0.6636472769        4.0063591449
	 H          -5.9573435783        3.3161159589       -0.9107082529
	 H          -2.5936310617        1.2336377605        6.2494640646
	 H           4.0638741044       -1.1058431920        2.2753700071
	 H          -0.2012377775       -0.9471061968       -4.6844913403
	 H           7.5901030684       -3.0390330259       -0.1529280736
	 H           3.5290816088       -2.8840754830       -6.7877565262
	             0.0197526591       -0.0080337110       -0.0084407408
	             0.0156644285       -0.0107747745       -0.0137079709
	            -0.0238806351        0.0120285281        0.0401970033
	            -0.0423992900        0.0230559000        0.0020787811
	            -0.0157991604        0.0099786569        0.0098641567
	            -0.0167541998        0.0071223458        0.0095077381
	             0.0012765828        0.0023158433        0.0083687770
	            -0.0079382346        0.0012767055       -0.0045287255
	            -0.0158899820        0.0083539932        0.0098221981
	             0.0251511440       -0.0132205580       -0.0152020675
	             0.0506666812       -0.0267527898       -0.0321611063
	             0.0056905698       -0.0030541826       -0.0034594990
	            -0.0011239220        0.0005317974        0.0007797543
	            -0.0002460266       -0.0013493779       -0.0059055976
	             0.0052013729       -0.0012562772        0.0026990217
	            -0.0020777506        0.0008835571       -0.0089774218
	             0.0057146734       -0.0027994439        0.0063614788
	            -0.0000491358       -0.0001270844        0.0071352619
	            -0.0051155558        0.0029312939       -0.0035326825
	             0.0014819540       -0.0008857926        0.0003094309
	             0.0006738269       -0.0002246295       -0.0012077897

	Previous optimization step data not found.  Starting new optimization.

	---Fragment 1 Intrafragment Coordinates---
	 - Coordinate -           - BOHR/RAD -       - ANG/DEG -
	 R(1,3)           =         2.634350	       1.394038
	 R(1,9)           =         2.635962	       1.394891
	 R(1,14)          =         2.054989	       1.087453
	 R(2,4)           =         2.635263	       1.394521
	 R(2,9)           =         2.635830	       1.394821
	 R(2,15)          =         2.054702	       1.087302
	 R(3,11)          =         2.635830	       1.394821
	 R(3,16)          =         2.057860	       1.088972
	 R(4,11)          =         2.636938	       1.395407
	 R(4,17)          =         2.056823	       1.088424
	 R(5,7)           =         2.618795	       1.385807
	 R(5,10)          =         2.626198	       1.389724
	 R(5,18)          =         2.050608	       1.085135
	 R(6,8)           =         2.617478	       1.385110
	 R(6,10)          =         2.627460	       1.390392
	 R(6,19)          =         2.049788	       1.084701
	 R(7,12)          =         2.554078	       1.351560
	 R(7,20)          =         2.051022	       1.085354
	 R(8,12)          =         2.554894	       1.351992
	 R(8,21)          =         2.049869	       1.084744
	 R(9,10)          =         2.734160	       1.446855
	 R(11,13)         =         2.421445	       1.281373
	 B(1,3,11)        =         2.094553	     120.009056
	 B(1,3,16)        =         2.069123	     118.552025
	 B(1,9,2)         =         2.093692	     119.959722
	 B(1,9,10)        =         2.095337	     120.053983
	 B(2,4,11)        =         2.093699	     119.960108
	 B(2,4,17)        =         2.069829	     118.592446
	 B(2,9,10)        =         2.094156	     119.986294
	 B(3,1,9)         =         2.094940	     120.031219
	 B(3,1,14)        =         2.079025	     119.119344
	 B(3,11,4)        =         2.094306	     119.994870
	 B(3,11,13)       =         2.094918	     120.029973
	 B(4,2,9)         =         2.095181	     120.045019
	 B(4,2,15)        =         2.079455	     119.143974
	 B(4,11,13)       =         2.093961	     119.975136
	 B(5,7,12)        =         2.165004	     124.045596
	 B(5,7,20)        =         2.107247	     120.736374
	 B(5,10,6)        =         2.090001	     119.748260
	 B(5,10,9)        =         2.097116	     120.155894
	 B(6,8,12)        =         2.165553	     124.077073
	 B(6,8,21)        =         2.107826	     120.769542
	 B(6,10,9)        =         2.096067	     120.095815
	 B(7,5,10)        =         2.057920	     117.910140
	 B(7,5,18)        =         2.097388	     120.171481
	 B(7,12,8)        =         2.030385	     116.332495
	 B(8,6,10)        =         2.057506	     117.886416
	 B(8,6,19)        =         2.099487	     120.291757
	 B(9,1,14)        =         2.109221	     120.849435
	 B(9,2,15)        =         2.108550	     120.811005
	 B(10,5,18)       =         2.127875	     121.918251
	 B(10,6,19)       =         2.126191	     121.821785
	 B(11,3,16)       =         2.119509	     121.438903
	 B(11,4,17)       =         2.119657	     121.447411
	 B(12,7,20)       =         2.010931	     115.217885
	 B(12,8,21)       =         2.009805	     115.153371
	 D(1,3,11,4)      =        -0.000325	      -0.018609
	 D(1,3,11,13)     =        -3.141004	    -179.966279
	 D(1,9,2,4)       =         0.000325	       0.018608
	 D(1,9,2,15)      =        -3.141527	    -179.996257
	 D(1,9,10,5)      =         2.879119	     164.961356
	 D(1,9,10,6)      =        -0.263576	     -15.101817
	 D(2,4,11,3)      =         0.000301	       0.017261
	 D(2,4,11,13)     =         3.140981	     179.964960
	 D(2,9,1,3)       =        -0.000348	      -0.019945
	 D(2,9,1,14)      =         3.141027	     179.967567
	 D(2,9,10,5)      =        -0.262257	     -15.026205
	 D(2,9,10,6)      =         2.878233	     164.910622
	 D(3,1,9,10)      =         3.141462	     179.992491
	 D(3,11,4,17)     =         3.140700	     179.948827
	 D(4,2,9,10)      =        -3.141485	    -179.993820
	 D(4,11,3,16)     =         3.140472	     179.935781
	 D(5,7,12,8)      =        -0.000029	      -0.001675
	 D(5,10,6,8)      =        -0.000335	      -0.019186
	 D(5,10,6,19)     =        -3.140619	    -179.944204
	 D(6,8,12,7)      =        -0.000697	      -0.039959
	 D(6,10,5,7)      =        -0.000316	      -0.018087
	 D(6,10,5,18)     =        -3.139639	    -179.888082
	 D(7,5,10,9)      =         3.140178	     179.918961
	 D(7,12,8,21)     =         3.140137	     179.916598
	 D(8,6,10,9)      =        -3.140829	    -179.956272
	 D(8,12,7,20)     =         3.139147	     179.859903
	 D(9,1,3,11)      =         0.000348	       0.019955
	 D(9,1,3,16)      =        -3.140471	    -179.935743
	 D(9,2,4,11)      =        -0.000301	      -0.017270
	 D(9,2,4,17)      =        -3.140734	    -179.950778
	 D(9,10,5,18)     =         0.000855	       0.048965
	 D(9,10,6,19)     =         0.002072	       0.118711
	 D(10,5,7,12)     =         0.000521	       0.029850
	 D(10,5,7,20)     =        -3.138529	    -179.824454
	 D(10,6,8,12)     =         0.000883	       0.050614
	 D(10,6,8,21)     =        -3.139911	    -179.903620
	 D(10,9,1,14)     =        -0.000349	      -0.019997
	 D(10,9,2,15)     =        -0.000152	      -0.008685
	 D(11,3,1,14)     =        -3.141030	    -179.967773
	 D(11,4,2,15)     =         3.141546	     179.997347
	 D(12,7,5,18)     =         3.139886	     179.902210
	 D(12,8,6,19)     =         3.141188	     179.976828
	 D(13,11,3,16)    =        -0.000207	      -0.011889
	 D(13,11,4,17)    =        -0.001806	      -0.103475
	 D(14,1,3,16)     =         0.001336	       0.076530
	 D(15,2,4,17)     =         0.001114	       0.063839
	 D(18,5,7,20)     =         0.000836	       0.047906
	 D(19,6,8,21)     =         0.000394	       0.022594

	Current energy   :      -553.1678260478

	Generating empirical Hessian (Schlegel '84) for each fragment.
	Adding user-defined constraint: Fragment 1; Coordinate 61:
		Value =     2.879119; Fixed value    =     2.879793
		Force =     0.000337; Force constant =     0.500000
	Removing off-diagonal coupling between coordinate 61 and others.
	Taking RFO optimization step.
	Going to follow RFO solution 1.
	Using RFO vector 1.

	Determining step-restricting scale parameter for RS-RFO.
	Maximum step size allowed    0.10000

	 Iter      |step|        alpha        rfo_root  
	------------------------------------------------
	    0     0.27592       1.00000           1
	    1     0.20302       6.55793           1
	    2     0.14686      21.08362           1
	    3     0.11578      41.90598           1
	    4     0.10283      57.45374           1
	    5     0.10012      61.56184           1
	    6     0.10000      61.75269           1
	------------------------------------------------
	Norm of target step-size    0.10000
	Projected energy change by RFO approximation:        -0.0076261474

	Back-transformation to cartesian coordinates...
	Could not converge backtransformation.
	Using first guess instead.

	--- Internal Coordinate Step in ANG or DEG, aJ/ANG or AJ/DEG ---
	 ---------------------------------------------------------------------------
	   Coordinate                Previous        Force       Change         New 
	   ----------                --------       ------       ------       ------
	    1 R(1,3)          =      1.394038    -0.068415    -0.004616     1.389422
	    2 R(1,9)          =      1.394891     0.078151     0.005206     1.400097
	    3 R(1,14)         =      1.087453    -0.048344    -0.003705     1.083748
	    4 R(2,4)          =      1.394521    -0.071485    -0.004838     1.389683
	    5 R(2,9)          =      1.394821     0.079112     0.005270     1.400091
	    6 R(2,15)         =      1.087302    -0.047667    -0.003651     1.083651
	    7 R(3,11)         =      1.394821     0.206764     0.014386     1.409207
	    8 R(3,16)         =      1.088972    -0.055369    -0.004269     1.084704
	    9 R(4,11)         =      1.395407     0.203454     0.014172     1.409579
	   10 R(4,17)         =      1.088424    -0.052615    -0.004053     1.084371
	   11 R(5,7)          =      1.385807    -0.008778    -0.000596     1.385211
	   12 R(5,10)         =      1.389724     0.083340     0.006045     1.395769
	   13 R(5,18)         =      1.085135    -0.057364    -0.004347     1.080788
	   14 R(6,8)          =      1.385110    -0.005397    -0.000368     1.384742
	   15 R(6,10)         =      1.390392     0.080482     0.005858     1.396250
	   16 R(6,19)         =      1.084701    -0.055128    -0.004173     1.080528
	   17 R(7,12)         =      1.351560    -0.105323    -0.006774     1.344786
	   18 R(7,20)         =      1.085354    -0.013398    -0.001024     1.084330
	   19 R(8,12)         =      1.351992    -0.106808    -0.006872     1.345120
	   20 R(8,21)         =      1.084744    -0.010024    -0.000764     1.083981
	   21 R(9,10)         =      1.446855     0.122069     0.009010     1.455866
	   22 R(11,13)        =      1.281373    -0.012063    -0.000640     1.280733
	   23 B(1,3,11)       =    120.009056     0.000761     0.808193   120.817249
	   24 B(1,3,16)       =    118.552025     0.000117     0.172720   118.724745
	   25 B(1,9,2)        =    119.959722    -0.001206    -1.306032   118.653690
	   26 B(1,9,10)       =    120.053983     0.000591     0.640841   120.694824
	   27 B(2,4,11)       =    119.960108     0.000776     0.822179   120.782288
	   28 B(2,4,17)       =    118.592446     0.000107     0.162933   118.755379
	   29 B(2,9,10)       =    119.986294     0.000615     0.665188   120.651482
	   30 B(3,1,9)        =    120.031219     0.000803     0.808783   120.840002
	   31 B(3,1,14)       =    119.119344    -0.000434    -0.444586   118.674758
	   32 B(3,11,4)       =    119.994870    -0.001939    -1.941827   118.053044
	   33 B(3,11,13)      =    120.029973     0.000962     0.962842   120.992815
	   34 B(4,2,9)        =    120.045019     0.000805     0.808684   120.853703
	   35 B(4,2,15)       =    119.143974    -0.000440    -0.450400   118.693575
	   36 B(4,11,13)      =    119.975136     0.000977     0.978984   120.954120
	   37 B(5,7,12)       =    124.045596     0.000307     0.283338   124.328934
	   38 B(5,7,20)       =    120.736374    -0.000198    -0.193139   120.543235
	   39 B(5,10,6)       =    119.748260    -0.002008    -1.994252   117.754008
	   40 B(5,10,9)       =    120.155894     0.001002     0.994915   121.150810
	   41 B(6,8,12)       =    124.077073     0.000293     0.268987   124.346060
	   42 B(6,8,21)       =    120.769542    -0.000196    -0.192132   120.577410
	   43 B(6,10,9)       =    120.095815     0.001006     0.999300   121.095115
	   44 B(7,5,10)       =    117.910140     0.000856     0.937270   118.847410
	   45 B(7,5,18)       =    120.171481    -0.000443    -0.490218   119.681263
	   46 B(7,12,8)       =    116.332495    -0.000313    -0.442036   115.890459
	   47 B(8,6,10)       =    117.886416     0.000865     0.946688   118.833104
	   48 B(8,6,19)       =    120.291757    -0.000460    -0.509617   119.782140
	   49 B(9,1,14)       =    120.849435    -0.000369    -0.364318   120.485117
	   50 B(9,2,15)       =    120.811005    -0.000365    -0.358401   120.452603
	   51 B(10,5,18)      =    121.918251    -0.000413    -0.446935   121.471316
	   52 B(10,6,19)      =    121.821785    -0.000405    -0.437030   121.384755
	   53 B(11,3,16)      =    121.438903    -0.000878    -0.980905   120.457999
	   54 B(11,4,17)      =    121.447411    -0.000883    -0.985094   120.462317
	   55 B(12,7,20)      =    115.217885    -0.000109    -0.090108   115.127776
	   56 B(12,8,21)      =    115.153371    -0.000097    -0.076841   115.076530
	   57 D(1,3,11,4)     =     -0.018609     0.000003     0.021334     0.002725
	   58 D(1,3,11,13)    =   -179.966279     0.000003     0.021252  -179.945027
	   59 D(1,9,2,4)      =      0.018608     0.000001     0.006761     0.025369
	   60 D(1,9,2,15)     =   -179.996257    -0.000016    -0.105578  -180.101835
	   61 D(1,9,10,5)     =    164.961356    -0.000010    -0.049261   164.912095
	   62 D(1,9,10,6)     =    -15.101817    -0.000014    -0.082066   -15.183884
	   63 D(2,4,11,3)     =      0.017261     0.000004     0.024428     0.041689
	   64 D(2,4,11,13)    =    179.964960     0.000004     0.024502   179.989462
	   65 D(2,9,1,3)      =     -0.019945     0.000006     0.039176     0.019231
	   66 D(2,9,1,14)     =    179.967567    -0.000012    -0.077376   179.890191
	   67 D(2,9,10,5)     =    -15.026205    -0.000014    -0.084536   -15.110740
	   68 D(2,9,10,6)     =    164.910622    -0.000018    -0.117341   164.793281
	   69 D(3,1,9,10)     =    179.992491     0.000001     0.004353   179.996844
	   70 D(3,11,4,17)    =    179.948827     0.000007     0.045545   179.994371
	   71 D(4,2,9,10)     =   -179.993820     0.000006     0.041565  -179.952255
	   72 D(4,11,3,16)    =    179.935781     0.000006     0.037520   179.973301
	   73 D(5,7,12,8)     =     -0.001675    -0.000001    -0.006810    -0.008485
	   74 D(5,10,6,8)     =     -0.019186    -0.000002    -0.016970    -0.036156
	   75 D(5,10,6,19)    =   -179.944204    -0.000015    -0.100838  -180.045042
	   76 D(6,8,12,7)     =     -0.039959     0.000000     0.001910    -0.038048
	   77 D(6,10,5,7)     =     -0.018087     0.000001     0.012408    -0.005679
	   78 D(6,10,5,18)    =   -179.888082    -0.000013    -0.079019  -179.967101
	   79 D(7,5,10,9)     =    179.918961    -0.000002    -0.017512   179.901449
	   80 D(7,12,8,21)    =    179.916598     0.000008     0.053555   179.970154
	   81 D(8,6,10,9)     =   -179.956272     0.000001     0.012933  -179.943338
	   82 D(8,12,7,20)    =    179.859903     0.000007     0.046018   179.905920
	   83 D(9,1,3,11)     =      0.019955    -0.000008    -0.053185    -0.033230
	   84 D(9,1,3,16)     =   -179.935743    -0.000010    -0.068564  -180.004307
	   85 D(9,2,4,11)     =     -0.017270    -0.000006    -0.039137    -0.056407
	   86 D(9,2,4,17)     =   -179.950778    -0.000009    -0.059105  -180.009883
	   87 D(9,10,5,18)    =      0.048965    -0.000016    -0.108938    -0.059973
	   88 D(9,10,6,19)    =      0.118711    -0.000012    -0.070935     0.047776
	   89 D(10,5,7,12)    =      0.029850     0.000000    -0.000128     0.029723
	   90 D(10,5,7,20)    =   -179.824454    -0.000009    -0.055844  -179.880298
	   91 D(10,6,8,12)    =      0.050614     0.000001     0.010578     0.061192
	   92 D(10,6,8,21)    =   -179.903620    -0.000007    -0.043816  -179.947437
	   93 D(10,9,1,14)    =     -0.019997    -0.000016    -0.112199    -0.132196
	   94 D(10,9,2,15)    =     -0.008685    -0.000012    -0.070774    -0.079458
	   95 D(11,3,1,14)    =   -179.967773     0.000010     0.061289  -179.906484
	   96 D(11,4,2,15)    =    179.997347     0.000011     0.071252   180.068600
	   97 D(12,7,5,18)    =    179.902210     0.000014     0.089640   179.991850
	   98 D(12,8,6,19)    =    179.976828     0.000014     0.093104   180.069932
	   99 D(13,11,3,16)   =     -0.011889     0.000006     0.037438     0.025549
	  100 D(13,11,4,17)   =     -0.103475     0.000007     0.045619    -0.057855
	  101 D(14,1,3,16)    =      0.076530     0.000007     0.045910     0.122439
	  102 D(15,2,4,17)    =      0.063839     0.000008     0.051284     0.115123
	  103 D(18,5,7,20)    =      0.047906     0.000005     0.033924     0.081830
	  104 D(19,6,8,21)    =      0.022594     0.000006     0.038710     0.061303
	 ---------------------------------------------------------------------------
	Successfully symmetrized geometry.
	 Forces used to impose fixed constraints are not included.
	  Forces zeroed: 61 

  ==> Convergence Check <==

  Measures of convergence in internal coordinates in au.
  Criteria marked as inactive (o), active & met (*), and active & unmet ( ).
  --------------------------------------------------------------------------------------------- ~
   Step     Total Energy     Delta E     MAX Force     RMS Force      MAX Disp      RMS Disp    ~
  --------------------------------------------------------------------------------------------- ~
    Convergence Criteria    1.00e-06 *    3.00e-04 *             o    1.20e-03 *             o  ~
  --------------------------------------------------------------------------------------------- ~
      1    -553.16782605   -5.53e+02      2.64e-02      7.75e-03 o    3.48e-02      9.79e-03 o  ~
  ---------------------------------------------------------------------------------------------

	Writing optimization data to binary file.
	Structure for next step:
	Cartesian Geometry (in Angstrom)
	    C    -1.2935378266   0.7337840222  -0.5551384595
	    C    -0.3043706320   0.1184307798   1.5527904611
	    C    -2.3695015328   1.3060268159   0.1121944335
	    C    -1.3775234566   0.6878149833   2.2275960623
	    C     2.0613270230  -0.7852187314   0.1216165901
	    C     0.8119482581  -0.7422331882  -1.9155260749
	    C     3.1018755592  -1.3552967549  -0.5932813247
	    C     1.9101232685  -1.3132942305  -2.5363401829
	    C    -0.2465973507   0.1326507627   0.1539643789
	    C     0.8792762525  -0.4660782488  -0.5485147600
	    C    -2.4344773589   1.2951639030   1.5198606398
	    N     3.0575443463  -1.6287356549  -1.9092275211
	    O    -3.4251748261   1.8207187872   2.1383976548
	    H    -1.2782717576   0.7631062050  -1.6383825050
	    H     0.4892413447  -0.3404717776   2.1306211305
	    H    -3.1617800727   1.7625492984  -0.4712981868
	    H    -1.3875820737   0.6574753685   3.3114955743
	    H     2.1784217891  -0.5977861863   1.1795677251
	    H    -0.0747907438  -0.5198540427  -2.4915323441
	    H     4.0316188295  -1.6159309920  -0.0999063086
	    H     1.8889316079  -1.5387484020  -3.5964040563
			--------------------------
			 OPTKING Finished Execution 
			--------------------------

    Structure for next step:
    Molecular point group: c1
    Full point group: C1

    Geometry (in Angstrom), charge = -1, multiplicity = 1:

    C           -1.291179564792     0.732519241591    -0.556609360762
    C           -0.302012370184     0.117165999266     1.551319559798
    C           -2.367143271003     1.304762035357     0.110723532168
    C           -1.375165194748     0.686550202749     2.226125161036
    C            2.063685284862    -0.786483511958     0.120145688758
    C            0.814306519911    -0.743497968725    -1.916996976194
    C            3.104233821039    -1.356561535493    -0.594752226003
    C            1.912481530312    -1.314559011033    -2.537811084226
    C           -0.244239088837     0.131385982134     0.152493477595
    C            0.881634514298    -0.467343029392    -0.549985661252
    C           -2.432119097119     1.293899122395     1.518389738468
    N            3.059902608159    -1.630000435424    -1.910698422392
    O           -3.422816564301     1.819454006658     2.136926753504
    H           -1.275913495827     0.761841424448    -1.639853406281
    H            0.491599606517    -0.341736558204     2.129150229241
    H           -3.159421810887     1.761284517842    -0.472769088104
    H           -1.385223811883     0.656210587949     3.310024673048
    H            2.180780050884    -0.599050966837     1.178096823828
    H           -0.072432481970    -0.521118823298    -2.493003245363
    H            4.033977091302    -1.617195772523    -0.101377209869
    H            1.891289869704    -1.540013182619    -3.597874957622

gradient() will perform analytic gradient computation.

*** tstart() called on gpu-2-4.local
*** at Sun Nov 12 04:06:10 2017

    SCF Algorithm Type (re)set to DF.

*** tstart() called on gpu-2-4.local
*** at Sun Nov 12 04:06:10 2017

   => Loading Basis Set <=

    Name: AUG-CC-PVTZ
    Role: ORBITAL
    Keyword: BASIS
    atoms 1-11  entry C          line   221 file /cbio/jclab/home/chayas/anaconda/envs/py35/share/psi4/basis/aug-cc-pvtz.gbs 
    atoms 12    entry N          line   267 file /cbio/jclab/home/chayas/anaconda/envs/py35/share/psi4/basis/aug-cc-pvtz.gbs 
    atoms 13    entry O          line   313 file /cbio/jclab/home/chayas/anaconda/envs/py35/share/psi4/basis/aug-cc-pvtz.gbs 
    atoms 14-21 entry H          line    34 file /cbio/jclab/home/chayas/anaconda/envs/py35/share/psi4/basis/aug-cc-pvtz.gbs 


         ---------------------------------------------------------
                                   SCF
            by Justin Turney, Rob Parrish, and Andy Simmonett
                              RHF Reference
                        8 Threads,   4768 MiB Core
         ---------------------------------------------------------

  ==> Geometry <==

    Molecular point group: c1
    Full point group: C1

    Geometry (in Angstrom), charge = -1, multiplicity = 1:

       Center              X                  Y                   Z               Mass       
    ------------   -----------------  -----------------  -----------------  -----------------
           C         -1.291179564792     0.732519241591    -0.556609360762    12.000000000000
           C         -0.302012370184     0.117165999266     1.551319559798    12.000000000000
           C         -2.367143271003     1.304762035357     0.110723532168    12.000000000000
           C         -1.375165194748     0.686550202749     2.226125161036    12.000000000000
           C          2.063685284862    -0.786483511958     0.120145688758    12.000000000000
           C          0.814306519911    -0.743497968725    -1.916996976194    12.000000000000
           C          3.104233821039    -1.356561535493    -0.594752226003    12.000000000000
           C          1.912481530312    -1.314559011033    -2.537811084226    12.000000000000
           C         -0.244239088837     0.131385982134     0.152493477595    12.000000000000
           C          0.881634514298    -0.467343029392    -0.549985661252    12.000000000000
           C         -2.432119097119     1.293899122395     1.518389738468    12.000000000000
           N          3.059902608159    -1.630000435424    -1.910698422392    14.003074004780
           O         -3.422816564301     1.819454006658     2.136926753504    15.994914619560
           H         -1.275913495827     0.761841424448    -1.639853406281     1.007825032070
           H          0.491599606517    -0.341736558204     2.129150229241     1.007825032070
           H         -3.159421810887     1.761284517842    -0.472769088104     1.007825032070
           H         -1.385223811883     0.656210587949     3.310024673048     1.007825032070
           H          2.180780050884    -0.599050966837     1.178096823828     1.007825032070
           H         -0.072432481970    -0.521118823298    -2.493003245363     1.007825032070
           H          4.033977091302    -1.617195772523    -0.101377209869     1.007825032070
           H          1.891289869704    -1.540013182619    -3.597874957622     1.007825032070

  Running in c1 symmetry.

  Rotational constants: A =      0.09807  B =      0.01377  C =      0.01212 [cm^-1]
  Rotational constants: A =   2939.96468  B =    412.72467  C =    363.47070 [MHz]
  Nuclear repulsion =  684.601110722829958

  Charge       = -1
  Multiplicity = 1
  Electrons    = 90
  Nalpha       = 45
  Nbeta        = 45

  ==> Algorithm <==

  SCF Algorithm Type is DF.
  DIIS enabled.
  MOM disabled.
  Fractional occupation disabled.
  Guess Type is READ.
  Energy threshold   = 1.00e-10
  Density threshold  = 1.00e-10
  Integral threshold = 0.00e+00

  ==> Primary Basis <==

  Basis Set: AUG-CC-PVTZ
    Blend: AUG-CC-PVTZ
    Number of shells: 254
    Number of basis function: 782
    Number of Cartesian functions: 915
    Spherical Harmonics?: true
    Max angular momentum: 3

   => Loading Basis Set <=

    Name: (AUG-CC-PVTZ AUX)
    Role: JKFIT
    Keyword: DF_BASIS_SCF
    atoms 1-11  entry C          line   161 file /cbio/jclab/home/chayas/anaconda/envs/py35/share/psi4/basis/aug-cc-pvtz-jkfit.gbs 
    atoms 12    entry N          line   223 file /cbio/jclab/home/chayas/anaconda/envs/py35/share/psi4/basis/aug-cc-pvtz-jkfit.gbs 
    atoms 13    entry O          line   285 file /cbio/jclab/home/chayas/anaconda/envs/py35/share/psi4/basis/aug-cc-pvtz-jkfit.gbs 
    atoms 14-21 entry H          line    69 file /cbio/jclab/home/chayas/anaconda/envs/py35/share/psi4/basis/aug-cc-pvtz-jkfit.gbs 

  Reading orbitals from file 180, no projection.

  ==> Pre-Iterations <==

   -------------------------------------------------------
    Irrep   Nso     Nmo     Nalpha   Nbeta   Ndocc  Nsocc
   -------------------------------------------------------
     A        782     782       0       0       0       0
   -------------------------------------------------------
    Total     782     782      45      45      45       0
   -------------------------------------------------------

  ==> Integral Setup <==

  ==> DFJK: Density-Fitted J/K Matrices <==

    J tasked:                  Yes
    K tasked:                  Yes
    wK tasked:                  No
    OpenMP threads:              8
    Integrals threads:           8
    Memory (MB):              3576
    Algorithm:                Disk
    Integral Cache:           NONE
    Schwarz Cutoff:          1E-12
    Fitting Condition:       1E-12

   => Auxiliary Basis Set <=

  Basis Set: (AUG-CC-PVTZ AUX)
    Blend: AUG-CC-PVTZ-JKFIT
    Number of shells: 502
    Number of basis function: 1720
    Number of Cartesian functions: 2143
    Spherical Harmonics?: true
    Max angular momentum: 4

  Minimum eigenvalue in the overlap matrix is 6.4742896650E-07.
  Using Symmetric Orthogonalization.

  SCF Guess: Orbitals guess was supplied from a previous computation.

  ==> Iterations <==

                           Total Energy        Delta E     RMS |[F,P]|

   @DF-RHF iter   0:  -550.84183118955571   -5.50842e+02   4.51958e-04 
   @DF-RHF iter   1:  -550.72088540048867    1.20946e-01   1.12074e-04 
   @DF-RHF iter   2:  -550.72164941257495   -7.64012e-04   8.20614e-05 DIIS
   @DF-RHF iter   3:  -550.72230105519327   -6.51643e-04   1.05888e-05 DIIS
   @DF-RHF iter   4:  -550.72231329318345   -1.22380e-05   3.11598e-06 DIIS
   @DF-RHF iter   5:  -550.72231563280081   -2.33962e-06   1.11850e-06 DIIS
   @DF-RHF iter   6:  -550.72231604950969   -4.16709e-07   6.90928e-07 DIIS
   @DF-RHF iter   7:  -550.72231619255297   -1.43043e-07   3.04684e-07 DIIS
   @DF-RHF iter   8:  -550.72231624086726   -4.83143e-08   1.30061e-07 DIIS
   @DF-RHF iter   9:  -550.72231624837480   -7.50754e-09   6.15273e-08 DIIS
   @DF-RHF iter  10:  -550.72231624947790   -1.10310e-09   2.21229e-08 DIIS
   @DF-RHF iter  11:  -550.72231624968515   -2.07251e-10   9.13222e-09 DIIS
   @DF-RHF iter  12:  -550.72231624971766   -3.25144e-11   4.89902e-09 DIIS
   @DF-RHF iter  13:  -550.72231624972335   -5.68434e-12   2.20598e-09 DIIS
   @DF-RHF iter  14:  -550.72231624974177   -1.84173e-11   8.53007e-10 DIIS
   @DF-RHF iter  15:  -550.72231624972869    1.30740e-11   2.85284e-10 DIIS
   @DF-RHF iter  16:  -550.72231624973949   -1.08002e-11   9.07773e-11 DIIS

  ==> Post-Iterations <==

    Orbital Energies (a.u.)
    -----------------------

    Doubly Occupied:                                                      

       1A    -20.308411     2A    -15.443336     3A    -11.163752  
       4A    -11.163660     5A    -11.146046     6A    -11.125832  
       7A    -11.114976     8A    -11.114945     9A    -11.102974  
      10A    -11.102937    11A    -11.079105    12A    -11.064736  
      13A    -11.064711    14A     -1.138652    15A     -1.135643  
      16A     -1.017697    17A     -0.957431    18A     -0.920354  
      19A     -0.870682    20A     -0.838304    21A     -0.746540  
      22A     -0.732897    23A     -0.678615    24A     -0.650569  
      25A     -0.599091    26A     -0.548648    27A     -0.544226  
      28A     -0.503692    29A     -0.489648    30A     -0.483016  
      31A     -0.479674    32A     -0.442703    33A     -0.432516  
      34A     -0.413351    35A     -0.405650    36A     -0.382132  
      37A     -0.359667    38A     -0.353274    39A     -0.317139  
      40A     -0.305488    41A     -0.245003    42A     -0.240353  
      43A     -0.222071    44A     -0.201758    45A     -0.107712  

    Virtual:                                                              

      46A      0.099112    47A      0.099902    48A      0.116298  
      49A      0.116447    50A      0.128268    51A      0.130224  
      52A      0.135397    53A      0.139408    54A      0.164006  
      55A      0.166102    56A      0.176805    57A      0.183740  
      58A      0.185574    59A      0.188680    60A      0.190941  
      61A      0.196199    62A      0.199888    63A      0.206472  
      64A      0.209163    65A      0.213078    66A      0.214807  
      67A      0.217687    68A      0.219609    69A      0.229158  
      70A      0.229859    71A      0.234136    72A      0.238216  
      73A      0.240242    74A      0.240421    75A      0.247956  
      76A      0.249783    77A      0.254337    78A      0.263857  
      79A      0.265141    80A      0.268860    81A      0.270909  
      82A      0.278768    83A      0.282607    84A      0.289551  
      85A      0.294368    86A      0.301250    87A      0.311064  
      88A      0.315739    89A      0.316460    90A      0.322828  
      91A      0.326957    92A      0.330016    93A      0.330108  
      94A      0.333852    95A      0.342025    96A      0.344531  
      97A      0.349972    98A      0.357498    99A      0.364240  
     100A      0.365779   101A      0.376548   102A      0.382695  
     103A      0.384785   104A      0.385416   105A      0.388538  
     106A      0.390064   107A      0.400476   108A      0.402582  
     109A      0.405127   110A      0.415188   111A      0.416257  
     112A      0.423327   113A      0.427593   114A      0.428924  
     115A      0.432341   116A      0.435978   117A      0.440974  
     118A      0.444979   119A      0.457106   120A      0.460885  
     121A      0.461272   122A      0.477230   123A      0.479008  
     124A      0.480281   125A      0.489803   126A      0.496865  
     127A      0.497962   128A      0.502597   129A      0.517971  
     130A      0.520879   131A      0.521057   132A      0.522275  
     133A      0.530397   134A      0.540413   135A      0.541843  
     136A      0.543369   137A      0.554804   138A      0.560125  
     139A      0.560127   140A      0.563519   141A      0.565109  
     142A      0.573215   143A      0.574666   144A      0.576588  
     145A      0.577988   146A      0.590034   147A      0.594570  
     148A      0.595112   149A      0.598181   150A      0.599151  
     151A      0.605399   152A      0.607006   153A      0.610280  
     154A      0.614901   155A      0.615738   156A      0.617039  
     157A      0.624105   158A      0.628076   159A      0.634661  
     160A      0.637652   161A      0.639696   162A      0.644275  
     163A      0.650365   164A      0.651550   165A      0.658129  
     166A      0.661110   167A      0.669449   168A      0.670590  
     169A      0.673970   170A      0.679916   171A      0.690357  
     172A      0.693999   173A      0.698231   174A      0.699477  
     175A      0.714847   176A      0.715019   177A      0.721704  
     178A      0.722257   179A      0.733844   180A      0.736952  
     181A      0.737160   182A      0.756820   183A      0.760150  
     184A      0.764111   185A      0.771087   186A      0.778662  
     187A      0.790228   188A      0.793142   189A      0.804281  
     190A      0.809786   191A      0.811130   192A      0.814405  
     193A      0.818112   194A      0.823760   195A      0.825677  
     196A      0.827358   197A      0.836350   198A      0.839009  
     199A      0.842844   200A      0.857760   201A      0.862120  
     202A      0.863864   203A      0.873552   204A      0.877630  
     205A      0.879093   206A      0.884980   207A      0.899470  
     208A      0.904966   209A      0.912427   210A      0.917378  
     211A      0.919011   212A      0.934101   213A      0.935377  
     214A      0.949768   215A      0.954895   216A      0.962804  
     217A      0.965364   218A      0.975359   219A      0.988128  
     220A      0.989872   221A      0.994049   222A      1.000535  
     223A      1.000885   224A      1.006547   225A      1.008513  
     226A      1.010179   227A      1.012227   228A      1.021171  
     229A      1.022321   230A      1.032436   231A      1.034505  
     232A      1.036945   233A      1.047261   234A      1.047978  
     235A      1.057991   236A      1.059021   237A      1.059952  
     238A      1.061949   239A      1.068274   240A      1.076309  
     241A      1.086576   242A      1.087471   243A      1.091955  
     244A      1.100867   245A      1.104927   246A      1.106305  
     247A      1.108753   248A      1.114869   249A      1.115976  
     250A      1.120883   251A      1.124331   252A      1.128249  
     253A      1.129951   254A      1.135747   255A      1.137741  
     256A      1.142945   257A      1.143688   258A      1.148131  
     259A      1.160236   260A      1.160637   261A      1.163652  
     262A      1.168285   263A      1.169386   264A      1.174237  
     265A      1.188610   266A      1.192301   267A      1.194679  
     268A      1.201050   269A      1.212351   270A      1.219028  
     271A      1.224665   272A      1.229117   273A      1.237244  
     274A      1.239321   275A      1.245766   276A      1.254056  
     277A      1.258778   278A      1.259925   279A      1.268990  
     280A      1.271648   281A      1.277079   282A      1.280221  
     283A      1.291470   284A      1.294679   285A      1.299286  
     286A      1.299436   287A      1.307616   288A      1.314240  
     289A      1.315723   290A      1.321109   291A      1.322309  
     292A      1.323060   293A      1.328911   294A      1.337719  
     295A      1.341947   296A      1.345091   297A      1.347576  
     298A      1.351171   299A      1.357379   300A      1.372475  
     301A      1.376487   302A      1.379379   303A      1.382881  
     304A      1.396356   305A      1.396534   306A      1.407000  
     307A      1.409007   308A      1.422490   309A      1.428059  
     310A      1.436279   311A      1.437765   312A      1.441508  
     313A      1.449299   314A      1.460259   315A      1.470352  
     316A      1.474336   317A      1.477585   318A      1.480778  
     319A      1.495161   320A      1.507918   321A      1.512212  
     322A      1.520024   323A      1.524456   324A      1.533142  
     325A      1.547970   326A      1.549282   327A      1.558039  
     328A      1.568674   329A      1.576777   330A      1.588525  
     331A      1.594456   332A      1.605983   333A      1.614224  
     334A      1.615359   335A      1.629411   336A      1.630012  
     337A      1.643354   338A      1.643584   339A      1.651023  
     340A      1.671930   341A      1.683036   342A      1.688379  
     343A      1.698457   344A      1.707773   345A      1.718700  
     346A      1.736952   347A      1.742241   348A      1.749737  
     349A      1.761974   350A      1.770297   351A      1.773901  
     352A      1.781058   353A      1.782057   354A      1.798322  
     355A      1.802471   356A      1.804478   357A      1.816619  
     358A      1.829032   359A      1.832016   360A      1.837007  
     361A      1.840768   362A      1.844580   363A      1.852998  
     364A      1.862155   365A      1.867110   366A      1.872894  
     367A      1.893886   368A      1.897911   369A      1.922285  
     370A      1.929081   371A      1.936752   372A      1.944045  
     373A      1.947323   374A      1.952663   375A      1.962179  
     376A      1.963644   377A      1.978346   378A      1.982881  
     379A      1.995641   380A      2.005563   381A      2.016441  
     382A      2.025451   383A      2.026473   384A      2.032320  
     385A      2.042773   386A      2.062111   387A      2.067551  
     388A      2.069568   389A      2.081974   390A      2.094295  
     391A      2.095062   392A      2.100296   393A      2.106217  
     394A      2.116977   395A      2.120843   396A      2.130847  
     397A      2.135427   398A      2.146409   399A      2.149587  
     400A      2.161483   401A      2.162127   402A      2.171380  
     403A      2.174868   404A      2.179917   405A      2.179966  
     406A      2.188979   407A      2.194700   408A      2.199310  
     409A      2.207183   410A      2.224815   411A      2.229580  
     412A      2.235558   413A      2.243881   414A      2.247632  
     415A      2.260101   416A      2.265490   417A      2.282286  
[...]
	 R(4,11)          =         2.713687	       1.436021
	 R(4,17)          =         2.044543	       1.081925
	 R(5,7)           =         2.611988	       1.382204
	 R(5,10)          =         2.653597	       1.404223
	 R(5,18)          =         2.039003	       1.078994
	 R(6,8)           =         2.611969	       1.382195
	 R(6,10)          =         2.653600	       1.404224
	 R(6,19)          =         2.039022	       1.079004
	 R(7,12)          =         2.531335	       1.339525
	 R(7,20)          =         2.046851	       1.083147
	 R(8,12)          =         2.531341	       1.339528
	 R(8,21)          =         2.046851	       1.083147
	 R(9,10)          =         2.721363	       1.440083
	 R(11,13)         =         2.384707	       1.261933
	 B(1,3,11)        =         2.146576	     122.989768
	 B(1,3,16)        =         2.095167	     120.044238
	 B(1,9,2)         =         2.024211	     115.978724
	 B(1,9,10)        =         2.129465	     122.009368
	 B(2,4,11)        =         2.146560	     122.988841
	 B(2,4,17)        =         2.095183	     120.045130
	 B(2,9,10)        =         2.129505	     122.011658
	 B(3,1,9)         =         2.135207	     122.338371
	 B(3,1,14)        =         2.061763	     118.130331
	 B(3,11,4)        =         1.978552	     113.362653
	 B(3,11,13)       =         2.152322	     123.318980
	 B(4,2,9)         =         2.135220	     122.339086
	 B(4,2,15)        =         2.061752	     118.129667
	 B(4,11,13)       =         2.152311	     123.318362
	 B(5,7,12)        =         2.175025	     124.619752
	 B(5,7,20)        =         2.083312	     119.364999
	 B(5,10,6)        =         1.986946	     113.843643
	 B(5,10,9)        =         2.148159	     123.080445
	 B(6,8,12)        =         2.175006	     124.618637
	 B(6,8,21)        =         2.083329	     119.365981
	 B(6,10,9)        =         2.148078	     123.075822
	 B(7,5,10)        =         2.113120	     121.072839
	 B(7,5,18)        =         2.069347	     118.564856
	 B(7,12,8)        =         2.003106	     114.769527
	 B(8,6,10)        =         2.113146	     121.074347
	 B(8,6,19)        =         2.069348	     118.564879
	 B(9,1,14)        =         2.085766	     119.505576
	 B(9,2,15)        =         2.085750	     119.504677
	 B(10,5,18)       =         2.100532	     120.351603
	 B(10,6,19)       =         2.100501	     120.349833
	 B(11,3,16)       =         2.041402	     116.963738
	 B(11,4,17)       =         2.041405	     116.963868
	 B(12,7,20)       =         2.024815	     116.013373
	 B(12,8,21)       =         2.024820	     116.013649
	 D(1,3,11,4)      =         0.004665	       0.267279
	 D(1,3,11,13)     =        -3.137354	    -179.757163
	 D(1,9,2,4)       =         0.005133	       0.294079
	 D(1,9,2,15)      =         3.113374	     178.383200
	 D(1,9,10,5)      =         2.880082	     165.016560
	 D(1,9,10,6)      =        -0.259488	     -14.867584
	 D(2,4,11,3)      =         0.003673	       0.210474
	 D(2,4,11,13)     =        -3.137493	    -179.765084
	 D(2,9,1,3)       =         0.003200	       0.183349
	 D(2,9,1,14)      =         3.111979	     178.303234
	 D(2,9,10,5)      =        -0.258206	     -14.794132
	 D(2,9,10,6)      =         2.885408	     165.321725
	 D(3,1,9,10)      =        -3.135276	    -179.638086
	 D(3,11,4,17)     =        -3.128573	    -179.254028
	 D(4,2,9,10)      =        -3.139577	    -179.884491
	 D(4,11,3,16)     =        -3.127378	    -179.185587
	 D(5,7,12,8)      =        -0.002919	      -0.167240
	 D(5,10,6,8)      =        -0.002061	      -0.118093
	 D(5,10,6,19)     =         3.118229	     178.661340
	 D(6,8,12,7)      =        -0.003089	      -0.176991
	 D(6,10,5,7)      =        -0.003474	      -0.199062
	 D(6,10,5,18)     =         3.117049	     178.593780
	 D(7,5,10,9)      =         3.139971	     179.907079
	 D(7,12,8,21)     =        -3.136240	    -179.693323
	 D(8,6,10,9)      =         3.137679	     179.775772
	 D(8,12,7,20)     =        -3.135729	    -179.664045
	 D(9,1,3,11)      =        -0.008293	      -0.475180
	 D(9,1,3,16)      =         3.123467	     178.961471
	 D(9,2,4,11)      =        -0.008773	      -0.502672
	 D(9,2,4,17)      =         3.123196	     178.945955
	 D(9,10,5,18)     =        -0.022691	      -1.300080
	 D(9,10,6,19)     =        -0.025216	      -1.444795
	 D(10,5,7,12)     =         0.006377	       0.365396
	 D(10,5,7,20)     =         3.138914	     179.846509
	 D(10,6,8,12)     =         0.005697	       0.326437
	 D(10,6,8,21)     =         3.138585	     179.827681
	 D(10,9,1,14)     =        -0.026498	      -1.518201
	 D(10,9,2,15)     =        -0.031335	      -1.795370
	 D(11,3,1,14)     =        -3.117503	    -178.619739
	 D(11,4,2,15)     =        -3.117452	    -178.616867
	 D(12,7,5,18)     =        -3.114514	    -178.448527
	 D(12,8,6,19)     =        -3.114964	    -178.474289
	 D(13,11,3,16)    =         0.013788	       0.789971
	 D(13,11,4,17)    =         0.013446	       0.770414
	 D(14,1,3,16)     =         0.014258	       0.816912
	 D(15,2,4,17)     =         0.014517	       0.831760
	 D(18,5,7,20)     =         0.018022	       1.032586
	 D(19,6,8,21)     =         0.017924	       1.026955

	Current energy   :      -553.1793059627

	Energy change for the previous step:
		Projected    :        -0.0000049869
		Actual       :        -0.0000010588

	Performing BFGS update.
	Previous computed or guess Hessian on step 1.
	Steps to be used in Hessian update: 6 5
	Adding user-defined constraint: Fragment 1; Coordinate 61:
		Value =     2.880082; Fixed value    =     2.879790
		Force =    -0.000190; Force constant =     0.650000
	Removing off-diagonal coupling between coordinate 61 and others.
	Taking RFO optimization step.
	Going to follow RFO solution 1.
	Using RFO vector 1.
	Norm of target step-size    0.00248
	Projected energy change by RFO approximation:        -0.0000008220

	Back-transformation to cartesian coordinates...
	Successfully converged to displaced geometry.

	--- Internal Coordinate Step in ANG or DEG, aJ/ANG or AJ/DEG ---
	 ---------------------------------------------------------------------------
	   Coordinate                Previous        Force       Change         New 
	   ----------                --------       ------       ------       ------
	    1 R(1,3)          =      1.375378    -0.000076    -0.000009     1.375369
	    2 R(1,9)          =      1.405842    -0.000025    -0.000002     1.405840
	    3 R(1,14)         =      1.082223    -0.000086    -0.000012     1.082211
	    4 R(2,4)          =      1.375373    -0.000071    -0.000008     1.375365
	    5 R(2,9)          =      1.405851    -0.000077    -0.000009     1.405841
	    6 R(2,15)         =      1.082229    -0.000072    -0.000009     1.082220
	    7 R(3,11)         =      1.436016    -0.000179    -0.000031     1.435986
	    8 R(3,16)         =      1.081925    -0.000070    -0.000013     1.081912
	    9 R(4,11)         =      1.436021    -0.000185    -0.000032     1.435989
	   10 R(4,17)         =      1.081925    -0.000068    -0.000013     1.081913
	   11 R(5,7)          =      1.382204    -0.000074    -0.000010     1.382195
	   12 R(5,10)         =      1.404223     0.000083     0.000008     1.404231
	   13 R(5,18)         =      1.078994    -0.000024    -0.000002     1.078992
	   14 R(6,8)          =      1.382195    -0.000050    -0.000007     1.382188
	   15 R(6,10)         =      1.404224     0.000080     0.000008     1.404233
	   16 R(6,19)         =      1.079004    -0.000053    -0.000006     1.078998
	   17 R(7,12)         =      1.339525     0.000041     0.000014     1.339539
	   18 R(7,20)         =      1.083147     0.000029     0.000005     1.083152
	   19 R(8,12)         =      1.339528     0.000044     0.000014     1.339543
	   20 R(8,21)         =      1.083147     0.000030     0.000006     1.083152
	   21 R(9,10)         =      1.440083     0.000314     0.000033     1.440117
	   22 R(11,13)        =      1.261933     0.000201     0.000028     1.261960
	   23 B(1,3,11)       =    122.989768    -0.000001    -0.005345   122.984423
	   24 B(1,3,16)       =    120.044238     0.000002     0.008511   120.052748
	   25 B(1,9,2)        =    115.978724     0.000001     0.005279   115.984003
	   26 B(1,9,10)       =    122.009368     0.000000    -0.001535   122.007833
	   27 B(2,4,11)       =    122.988841    -0.000001    -0.005375   122.983465
	   28 B(2,4,17)       =    120.045130     0.000002     0.008220   120.053349
	   29 B(2,9,10)       =    122.011658    -0.000001    -0.003736   122.007922
	   30 B(3,1,9)        =    122.338371    -0.000000    -0.002365   122.336006
	   31 B(3,1,14)       =    118.130331     0.000002     0.009080   118.139411
	   32 B(3,11,4)       =    113.362653     0.000002     0.009613   113.372266
	   33 B(3,11,13)      =    123.318980    -0.000001    -0.004896   123.314085
	   34 B(4,2,9)        =    122.339086    -0.000000    -0.002247   122.336839
	   35 B(4,2,15)       =    118.129667     0.000002     0.009232   118.138899
	   36 B(4,11,13)      =    123.318362    -0.000001    -0.004712   123.313649
	   37 B(5,7,12)       =    124.619752    -0.000000    -0.000273   124.619479
	   38 B(5,7,20)       =    119.364999     0.000000     0.001769   119.366769
	   39 B(5,10,6)       =    113.843643    -0.000001    -0.000795   113.842848
	   40 B(5,10,9)       =    123.080445    -0.000000    -0.001234   123.079211
	   41 B(6,8,12)       =    124.618637    -0.000000     0.000271   124.618908
	   42 B(6,8,21)       =    119.365981     0.000000     0.001467   119.367448
	   43 B(6,10,9)       =    123.075822     0.000001     0.002005   123.077826
	   44 B(7,5,10)       =    121.072839     0.000001     0.001103   121.073942
	   45 B(7,5,18)       =    118.564856    -0.000001    -0.003180   118.561677
	   46 B(7,12,8)       =    114.769527     0.000000    -0.000466   114.769061
	   47 B(8,6,10)       =    121.074347     0.000000     0.000420   121.074767
	   48 B(8,6,19)       =    118.564879    -0.000001    -0.004365   118.560513
	   49 B(9,1,14)       =    119.505576    -0.000001    -0.007618   119.497958
	   50 B(9,2,15)       =    119.504677    -0.000002    -0.007724   119.496953
	   51 B(10,5,18)      =    120.351603     0.000000     0.001683   120.353286
	   52 B(10,6,19)      =    120.349833     0.000000     0.003531   120.353364
	   53 B(11,3,16)      =    116.963738    -0.000000    -0.003082   116.960656
	   54 B(11,4,17)      =    116.963868    -0.000000    -0.002699   116.961169
	   55 B(12,7,20)      =    116.013373    -0.000000    -0.001241   116.012132
	   56 B(12,8,21)      =    116.013649    -0.000000    -0.001486   116.012164
	   57 D(1,3,11,4)     =      0.267279     0.000000     0.004094     0.271373
	   58 D(1,3,11,13)    =   -179.757163     0.000000     0.033089  -179.724073
	   59 D(1,9,2,4)      =      0.294079     0.000000     0.020830     0.314909
	   60 D(1,9,2,15)     =    178.383200    -0.000000    -0.005375   178.377824
	   61 D(1,9,10,5)     =    165.016560     0.000000    -0.000184   165.016376
	   62 D(1,9,10,6)     =    -14.867584     0.000000     0.014367   -14.853217
	   63 D(2,4,11,3)     =      0.210474     0.000000     0.036275     0.246749
	   64 D(2,4,11,13)    =   -179.765084     0.000000     0.007280  -179.757805
	   65 D(2,9,1,3)      =      0.183349     0.000000     0.019534     0.202883
	   66 D(2,9,1,14)     =    178.303234    -0.000000    -0.012985   178.290249
	   67 D(2,9,10,5)     =    -14.794132     0.000000    -0.003426   -14.797558
	   68 D(2,9,10,6)     =    165.321725     0.000000     0.011124   165.332849
	   69 D(3,1,9,10)     =   -179.638086     0.000000     0.016490  -179.621596
	   70 D(3,11,4,17)    =   -179.254028     0.000000     0.017981  -179.236047
	   71 D(4,2,9,10)     =   -179.884491     0.000000     0.023878  -179.860612
	   72 D(4,11,3,16)    =   -179.185587    -0.000000    -0.006170  -179.191757
	   73 D(5,7,12,8)     =     -0.167240     0.000000     0.022808    -0.144432
	   74 D(5,10,6,8)     =     -0.118093     0.000000     0.026372    -0.091721
	   75 D(5,10,6,19)    =    178.661340     0.000000     0.003424   178.664764
	   76 D(6,8,12,7)     =     -0.176991     0.000000     0.016408    -0.160584
	   77 D(6,10,5,7)     =     -0.199062     0.000000     0.009754    -0.189307
	   78 D(6,10,5,18)    =    178.593780    -0.000000    -0.012266   178.581513
	   79 D(7,5,10,9)     =    179.907079     0.000000     0.023082   179.930160
	   80 D(7,12,8,21)    =   -179.693323    -0.000000    -0.020166  -179.713489
	   81 D(8,6,10,9)     =    179.775772     0.000000     0.013041   179.788813
	   82 D(8,12,7,20)    =   -179.664045    -0.000000    -0.012707  -179.676752
	   83 D(9,1,3,11)     =     -0.475180    -0.000000    -0.032117    -0.507297
	   84 D(9,1,3,16)     =    178.961471    -0.000000    -0.021612   178.939859
	   85 D(9,2,4,11)     =     -0.502672    -0.000000    -0.050479    -0.553151
	   86 D(9,2,4,17)     =    178.945955    -0.000000    -0.031700   178.914255
	   87 D(9,10,5,18)    =     -1.300080    -0.000000     0.001061    -1.299019
	   88 D(9,10,6,19)    =     -1.444795    -0.000000    -0.009907    -1.454702
	   89 D(10,5,7,12)    =      0.365396    -0.000000    -0.036594     0.328802
	   90 D(10,5,7,20)    =    179.846509     0.000000     0.000015   179.846524
	   91 D(10,6,8,12)    =      0.326437    -0.000000    -0.042218     0.284219
	   92 D(10,6,8,21)    =    179.827681    -0.000000    -0.004516   179.823165
	   93 D(10,9,1,14)    =     -1.518201    -0.000000    -0.016029    -1.534229
	   94 D(10,9,2,15)    =     -1.795370     0.000000    -0.002327    -1.797697
	   95 D(11,3,1,14)    =   -178.619739     0.000000     0.000277  -178.619463
	   96 D(11,4,2,15)    =   -178.616867    -0.000000    -0.024307  -178.641173
	   97 D(12,7,5,18)    =   -178.448527    -0.000000    -0.015015  -178.463542
	   98 D(12,8,6,19)    =   -178.474289    -0.000000    -0.019765  -178.494054
	   99 D(13,11,3,16)   =      0.789971     0.000000     0.022825     0.812796
	  100 D(13,11,4,17)   =      0.770414    -0.000000    -0.011014     0.759400
	  101 D(14,1,3,16)    =      0.816912     0.000000     0.010782     0.827694
	  102 D(15,2,4,17)    =      0.831760    -0.000000    -0.005528     0.826232
	  103 D(18,5,7,20)    =      1.032586     0.000000     0.021594     1.054180
	  104 D(19,6,8,21)    =      1.026955     0.000000     0.017937     1.044892
	 ---------------------------------------------------------------------------
	Successfully symmetrized geometry.
	 Forces used to impose fixed constraints are not included.
	  Forces zeroed: 61 

  ==> Convergence Check <==

  Measures of convergence in internal coordinates in au.
  Criteria marked as inactive (o), active & met (*), and active & unmet ( ).
  ---------------------------------------------------------------------------------------------
   Step     Total Energy     Delta E     MAX Force     RMS Force      MAX Disp      RMS Disp   
  ---------------------------------------------------------------------------------------------
    Convergence Criteria    1.00e-06 *    3.00e-04 *             o    1.20e-03 *             o
  ---------------------------------------------------------------------------------------------
      7    -553.17930596   -1.06e-06      3.81e-05 *    1.16e-05 o    8.81e-04 *    2.43e-04 o  ~
  ---------------------------------------------------------------------------------------------


  **** Optimization is complete! (in 7 steps) ****

  ==> Optimization Summary <==

  Measures of convergence in internal coordinates in au.
  --------------------------------------------------------------------------------------------------------------- ~
   Step         Total Energy             Delta E       MAX Force       RMS Force        MAX Disp        RMS Disp  ~
  --------------------------------------------------------------------------------------------------------------- ~
      1    -553.167826047848   -553.167826047848      0.02639282      0.00774540      0.03480626      0.00979236  ~
      2    -553.174068993652     -0.006242945805      0.01757042      0.00474311      0.03850111      0.00979310  ~
      3    -553.177683503322     -0.003614509670      0.00916577      0.00245938      0.03571588      0.00979515  ~
      4    -553.179166232366     -0.001482729044      0.00249559      0.00061325      0.02077824      0.00751948  ~
      5    -553.179301443482     -0.000135211115      0.00049642      0.00009142      0.00765734      0.00208575  ~
      6    -553.179304903863     -0.000003460381      0.00010669      0.00003515      0.00304029      0.00079883  ~
      7    -553.179305962660     -0.000001058797      0.00003813      0.00001160      0.00088102      0.00024329  ~
  --------------------------------------------------------------------------------------------------------------- ~

	Writing optimization data to binary file.
	Final energy is   -553.1793059626602
	Final (previous) structure:
	Cartesian Geometry (in Angstrom)
	    C    -1.3101815793   0.7250403792  -0.5353336171
	    C    -0.3203501292   0.1358855157   1.5521084938
	    C    -2.3745057466   1.2969488176   0.1217798632
	    C    -1.3827685590   0.6954014091   2.2228240222
	    C     2.0851671571  -0.7961799573   0.0855256015
	    C     0.8526707792  -0.7629073345  -1.9189043611
	    C     3.1283287909  -1.3632581917  -0.6220939017
	    C     1.9487937439  -1.3253694749  -2.5454925823
	    C    -0.2393874555   0.1234073641   0.1486466706
	    C     0.8752901342  -0.4666209991  -0.5464797877
	    C    -2.4886717533   1.3203416601   1.5530595488
	    N     3.0976235251  -1.6395516921  -1.9324546496
	    O    -3.4643950710   1.8393405957   2.1622216799
	    H    -1.2930423021   0.7719827105  -1.6164021639
	    H     0.4603439992  -0.3349700415   2.1352305025
	    H    -3.1709029754   1.7648475199  -0.4415891647
	    H    -1.4152724239   0.6692762397   3.3039454977
	    H     2.2249706167  -0.5920047653   1.1357613650
	    H    -0.0340830506  -0.5721348590  -2.5033045057
	    H     4.0503663144  -1.6041477244  -0.1072870655
	    H     1.9001433093  -1.5451652747  -3.6049876984
	Saving final (previous) structure.
			--------------------------
			 OPTKING Finished Execution 
			--------------------------

    Final optimized geometry and variables:
    Molecular point group: c1
    Full point group: C1

    Geometry (in Angstrom), charge = -1, multiplicity = 1:

    C           -1.310181579317     0.725040379183    -0.535333617059
    C           -0.320350129221     0.135885515680     1.552108493772
    C           -2.374505746584     1.296948817637     0.121779863184
    C           -1.382768559022     0.695401409144     2.222824022162
    C            2.085167157062    -0.796179957278     0.085525601546
    C            0.852670779186    -0.762907334502    -1.918904361051
    C            3.128328790881    -1.363258191740    -0.622093901729
    C            1.948793743873    -1.325369474864    -2.545492582252
    C           -0.239387455491     0.123407364137     0.148646670644
    C            0.875290134209    -0.466620999126    -0.546479787743
    C           -2.488671753343     1.320341660103     1.553059548813
    N            3.097623525149    -1.639551692115    -1.932454649595
    O           -3.464395071031     1.839340595684     2.162221679883
    H           -1.293042302133     0.771982710513    -1.616402163923
    H            0.460343999157    -0.334970041531     2.135230502506
    H           -3.170902975386     1.764847519855    -0.441589164718
    H           -1.415272423895     0.669276239674     3.303945497720
    H            2.224970616703    -0.592004765322     1.135761365006
    H           -0.034083050580    -0.572134859001    -2.503304505746
    H            4.050366314361    -1.604147724424    -0.107287065491
    H            1.900143309340    -1.545165274671    -3.604987698377

	Cleaning optimization helper files.

*** Psi4 exiting successfully. Buy a developer a beer!
