
    -----------------------------------------------------------------------
          Psi4: An Open-Source Ab Initio Electronic Structure Package
                               Psi4 1.1 release

                         Git: Rev {HEAD} add49b9 


    R. M. Parrish, L. A. Burns, D. G. A. Smith, A. C. Simmonett,
    A. E. DePrince III, E. G. Hohenstein, U. Bozkaya, A. Yu. Sokolov,
    R. Di Remigio, R. M. Richard, J. F. Gonthier, A. M. James,
    H. R. McAlexander, A. Kumar, M. Saitow, X. Wang, B. P. Pritchard,
    P. Verma, H. F. Schaefer III, K. Patkowski, R. A. King, E. F. Valeev,
    F. A. Evangelista, J. M. Turney, T. D. Crawford, and C. D. Sherrill,
    J. Chem. Theory Comput. in press (2017).
    (doi: 10.1021/acs.jctc.7b00174)

    -----------------------------------------------------------------------


    Psi4 started on: Saturday, 11 November 2017 06:47PM

    Process ID:  29809
    PSIDATADIR: /cbio/jclab/home/chayas/anaconda/envs/py35/share/psi4
    Memory:     500.0 MiB
    Threads:    8
    
  ==> Input File <==

--------------------------------------------------------------------------

memory 5 Gb

molecule phepyrFOH_cation {
  symmetry C1
  1 1 
  C      1.885   -1.036   -0.112
  C      0.807   -0.463   0.561
  C      4.830   -1.443   -0.930
  C      4.321   -3.578   0.063
  C      1.800   -1.079   2.676
  C      5.894   -2.040   -1.592
  C      5.398   -4.120   -0.624
  C      2.921   -1.631   0.608
  C      4.038   -2.225   -0.095
  C      0.764   -0.484   1.955
  C      2.878   -1.652   2.002
  N      6.144   -3.345   -1.422
  O      -0.289   0.076   2.612
  F      3.866   -2.220   2.709
  H      1.904   -1.012   -1.199
  H      0.002   -0.002   -0.006
  H      4.632   -0.385   -1.072
  H      3.719   -4.212   0.708
  H      1.772   -1.099   3.762
  H      6.561   -1.511   -2.259
  H      5.691   -5.159   -0.561
  H      6.930   -3.764   -1.918
  H      -0.221   1.044   2.593
  units Angstrom
}

dih_string = "2 10 13 23 285"
set optking fixed_dihedral = $dih_string

optimize('MP2/aug-cc-PVTZ')
--------------------------------------------------------------------------

  Memory set to   4.657 GiB by Python driver.
gradient() will perform analytic gradient computation.

*** tstart() called on gpu-1-17.local
*** at Sat Nov 11 18:47:35 2017

    SCF Algorithm Type (re)set to DF.

*** tstart() called on gpu-1-17.local
*** at Sat Nov 11 18:47:35 2017

   => Loading Basis Set <=

    Name: AUG-CC-PVTZ
    Role: ORBITAL
    Keyword: BASIS
    atoms 1-11  entry C          line   221 file /cbio/jclab/home/chayas/anaconda/envs/py35/share/psi4/basis/aug-cc-pvtz.gbs 
    atoms 12    entry N          line   267 file /cbio/jclab/home/chayas/anaconda/envs/py35/share/psi4/basis/aug-cc-pvtz.gbs 
    atoms 13    entry O          line   313 file /cbio/jclab/home/chayas/anaconda/envs/py35/share/psi4/basis/aug-cc-pvtz.gbs 
    atoms 14    entry F          line   359 file /cbio/jclab/home/chayas/anaconda/envs/py35/share/psi4/basis/aug-cc-pvtz.gbs 
    atoms 15-23 entry H          line    34 file /cbio/jclab/home/chayas/anaconda/envs/py35/share/psi4/basis/aug-cc-pvtz.gbs 


         ---------------------------------------------------------
                                   SCF
            by Justin Turney, Rob Parrish, and Andy Simmonett
                              RHF Reference
                        8 Threads,   4768 MiB Core
         ---------------------------------------------------------

  ==> Geometry <==

    Molecular point group: c1
    Full point group: C1

    Geometry (in Angstrom), charge = 1, multiplicity = 1:

       Center              X                  Y                   Z               Mass       
    ------------   -----------------  -----------------  -----------------  -----------------
           C         -1.337680792969     0.758311665475    -0.782950340558    12.000000000000
           C         -2.415680792969     1.331311665475    -0.109950340558    12.000000000000
           C          1.607319207031     0.351311665475    -1.600950340558    12.000000000000
           C          1.098319207031    -1.783688334525    -0.607950340558    12.000000000000
           C         -1.422680792969     0.715311665475     2.005049659442    12.000000000000
           C          2.671319207031    -0.245688334525    -2.262950340558    12.000000000000
           C          2.175319207031    -2.325688334525    -1.294950340558    12.000000000000
           C         -0.301680792969     0.163311665475    -0.062950340558    12.000000000000
           C          0.815319207031    -0.430688334525    -0.765950340558    12.000000000000
           C         -2.458680792969     1.310311665475     1.284049659442    12.000000000000
           C         -0.344680792969     0.142311665475     1.331049659442    12.000000000000
           N          2.921319207031    -1.550688334525    -2.092950340558    14.003074004780
           O         -3.511680792969     1.870311665475     1.941049659442    15.994914619560
           F          0.643319207031    -0.425688334525     2.038049659442    18.998403224000
           H         -1.318680792969     0.782311665475    -1.869950340558     1.007825032070
           H         -3.220680792969     1.792311665475    -0.676950340558     1.007825032070
           H          1.409319207031     1.409311665475    -1.742950340558     1.007825032070
           H          0.496319207031    -2.417688334525     0.037049659442     1.007825032070
           H         -1.450680792969     0.695311665475     3.091049659442     1.007825032070
           H          3.338319207031     0.283311665475    -2.929950340558     1.007825032070
           H          2.468319207031    -3.364688334525    -1.231950340558     1.007825032070
           H          3.707319207031    -1.969688334525    -2.588950340558     1.007825032070
           H         -3.443680792969     2.838311665475     1.922049659442     1.007825032070

  Running in c1 symmetry.

  Rotational constants: A =      0.06275  B =      0.01288  C =      0.01150 [cm^-1]
  Rotational constants: A =   1881.22963  B =    386.28253  C =    344.77447 [MHz]
  Nuclear repulsion =  829.267023370240167

  Charge       = 1
  Multiplicity = 1
  Electrons    = 98
  Nalpha       = 49
  Nbeta        = 49

  ==> Algorithm <==

  SCF Algorithm Type is DF.
  DIIS enabled.
  MOM disabled.
  Fractional occupation disabled.
  Guess Type is SAD.
  Energy threshold   = 1.00e-10
  Density threshold  = 1.00e-10
  Integral threshold = 0.00e+00

  ==> Primary Basis <==

  Basis Set: AUG-CC-PVTZ
    Blend: AUG-CC-PVTZ
    Number of shells: 277
    Number of basis function: 851
    Number of Cartesian functions: 995
    Spherical Harmonics?: true
    Max angular momentum: 3

   => Loading Basis Set <=

    Name: (AUG-CC-PVTZ AUX)
    Role: JKFIT
    Keyword: DF_BASIS_SCF
    atoms 1-11  entry C          line   161 file /cbio/jclab/home/chayas/anaconda/envs/py35/share/psi4/basis/aug-cc-pvtz-jkfit.gbs 
    atoms 12    entry N          line   223 file /cbio/jclab/home/chayas/anaconda/envs/py35/share/psi4/basis/aug-cc-pvtz-jkfit.gbs 
    atoms 13    entry O          line   285 file /cbio/jclab/home/chayas/anaconda/envs/py35/share/psi4/basis/aug-cc-pvtz-jkfit.gbs 
    atoms 14    entry F          line   347 file /cbio/jclab/home/chayas/anaconda/envs/py35/share/psi4/basis/aug-cc-pvtz-jkfit.gbs 
    atoms 15-23 entry H          line    69 file /cbio/jclab/home/chayas/anaconda/envs/py35/share/psi4/basis/aug-cc-pvtz-jkfit.gbs 

  ==> Pre-Iterations <==

   -------------------------------------------------------
    Irrep   Nso     Nmo     Nalpha   Nbeta   Ndocc  Nsocc
   -------------------------------------------------------
     A        851     851       0       0       0       0
   -------------------------------------------------------
    Total     851     851      49      49      49       0
   -------------------------------------------------------

  ==> Integral Setup <==

  ==> DFJK: Density-Fitted J/K Matrices <==

    J tasked:                  Yes
    K tasked:                  Yes
    wK tasked:                  No
    OpenMP threads:              8
    Integrals threads:           8
    Memory (MB):              3576
    Algorithm:                Disk
    Integral Cache:           NONE
    Schwarz Cutoff:          1E-12
    Fitting Condition:       1E-12

   => Auxiliary Basis Set <=

  Basis Set: (AUG-CC-PVTZ AUX)
    Blend: AUG-CC-PVTZ-JKFIT
    Number of shells: 546
    Number of basis function: 1870
    Number of Cartesian functions: 2329
    Spherical Harmonics?: true
    Max angular momentum: 4

  Minimum eigenvalue in the overlap matrix is 7.2829354754E-07.
  Using Symmetric Orthogonalization.

  SCF Guess: Superposition of Atomic Densities via on-the-fly atomic UHF.

  ==> Iterations <==

                           Total Energy        Delta E     RMS |[F,P]|

   @DF-RHF iter   0:  -653.95486475678831   -6.53955e+02   1.71674e-02 
   @DF-RHF iter   1:  -650.15609087931477    3.79877e+00   1.75853e-03 
   @DF-RHF iter   2:  -650.46810163588827   -3.12011e-01   1.16544e-03 DIIS
   @DF-RHF iter   3:  -650.53649974047460   -6.83981e-02   3.74472e-04 DIIS
   @DF-RHF iter   4:  -650.55210014853412   -1.56004e-02   1.39013e-04 DIIS
   @DF-RHF iter   5:  -650.55406662610562   -1.96648e-03   5.24634e-05 DIIS
   @DF-RHF iter   6:  -650.55451082567015   -4.44200e-04   2.27100e-05 DIIS
   @DF-RHF iter   7:  -650.55458103435581   -7.02087e-05   7.65167e-06 DIIS
   @DF-RHF iter   8:  -650.55458994427977   -8.90992e-06   2.51014e-06 DIIS
   @DF-RHF iter   9:  -650.55459157751318   -1.63323e-06   1.34442e-06 DIIS
   @DF-RHF iter  10:  -650.55459201340830   -4.35895e-07   5.94266e-07 DIIS
   @DF-RHF iter  11:  -650.55459210635888   -9.29506e-08   2.07044e-07 DIIS
   @DF-RHF iter  12:  -650.55459211812990   -1.17710e-08   7.20145e-08 DIIS
   @DF-RHF iter  13:  -650.55459211988796   -1.75805e-09   3.45072e-08 DIIS
   @DF-RHF iter  14:  -650.55459212018775   -2.99792e-10   1.02005e-08 DIIS
   @DF-RHF iter  15:  -650.55459212023504   -4.72937e-11   4.73513e-09 DIIS
   @DF-RHF iter  16:  -650.55459212020833    2.67164e-11   1.51448e-09 DIIS
   @DF-RHF iter  17:  -650.55459212019412    1.42109e-11   1.00348e-09 DIIS
   @DF-RHF iter  18:  -650.55459212021606   -2.19416e-11   4.37997e-10 DIIS
   @DF-RHF iter  19:  -650.55459212022720   -1.11413e-11   1.83902e-10 DIIS
   @DF-RHF iter  20:  -650.55459212020196    2.52385e-11   5.02779e-11 DIIS

  ==> Post-Iterations <==

    Orbital Energies (a.u.)
    -----------------------

    Doubly Occupied:                                                      

       1A    -26.442306     2A    -20.690154     3A    -15.845258  
       4A    -11.491776     5A    -11.490095     6A    -11.465899  
       7A    -11.453459     8A    -11.429214     9A    -11.423834  
      10A    -11.422316    11A    -11.383322    12A    -11.382109  
      13A    -11.359650    14A    -11.355849    15A     -1.760601  
      16A     -1.520327    17A     -1.509390    18A     -1.326691  
      19A     -1.270545    20A     -1.244380    21A     -1.163252  
      22A     -1.150488    23A     -1.074385    24A     -1.061800  
      25A     -0.983446    26A     -0.970897    27A     -0.964864  
      28A     -0.887536    29A     -0.876745    30A     -0.864590  
      31A     -0.839780    32A     -0.827868    33A     -0.822454  
      34A     -0.807321    35A     -0.800151    36A     -0.782060  
      37A     -0.759189    38A     -0.748861    39A     -0.735109  
      40A     -0.718583    41A     -0.713370    42A     -0.669075  
      43A     -0.653945    44A     -0.628730    45A     -0.599370  
      46A     -0.582073    47A     -0.541919    48A     -0.468385  
      49A     -0.457360  

    Virtual:                                                              

      50A     -0.107258    51A     -0.087430    52A     -0.068531  
      53A     -0.064237    54A     -0.059009    55A     -0.051096  
      56A     -0.043980    57A     -0.038607    58A     -0.035517  
      59A     -0.030324    60A     -0.024358    61A     -0.020190  
      62A     -0.014127    63A     -0.009838    64A     -0.007044  
      65A     -0.005303    66A      0.001613    67A      0.005759  
      68A      0.008629    69A      0.010658    70A      0.014532  
      71A      0.017682    72A      0.023403    73A      0.025833  
      74A      0.030049    75A      0.033166    76A      0.034764  
      77A      0.038551    78A      0.041540    79A      0.044851  
      80A      0.047447    81A      0.048656    82A      0.053837  
      83A      0.059839    84A      0.063902    85A      0.068187  
      86A      0.071672    87A      0.074147    88A      0.079916  
      89A      0.082276    90A      0.087313    91A      0.092292  
      92A      0.093193    93A      0.101138    94A      0.105560  
      95A      0.110669    96A      0.116429    97A      0.117957  
      98A      0.123112    99A      0.127647   100A      0.132843  
     101A      0.135141   102A      0.138473   103A      0.142803  
     104A      0.143865   105A      0.148265   106A      0.152535  
     107A      0.157733   108A      0.159350   109A      0.163805  
     110A      0.168318   111A      0.169445   112A      0.172367  
     113A      0.178456   114A      0.181724   115A      0.187260  
     116A      0.193573   117A      0.195083   118A      0.195400  
     119A      0.197402   120A      0.205514   121A      0.206021  
     122A      0.211250   123A      0.214486   124A      0.220567  
     125A      0.222370   126A      0.226139   127A      0.230230  
     128A      0.233657   129A      0.235462   130A      0.239588  
     131A      0.242789   132A      0.251604   133A      0.252827  
     134A      0.255047   135A      0.259043   136A      0.266116  
     137A      0.267516   138A      0.273120   139A      0.276490  
     140A      0.281371   141A      0.282096   142A      0.289156  
     143A      0.292010   144A      0.294694   145A      0.303512  
     146A      0.307006   147A      0.314990   148A      0.316225  
     149A      0.318948   150A      0.321870   151A      0.323793  
     152A      0.328531   153A      0.333372   154A      0.334359  
     155A      0.336211   156A      0.344489   157A      0.345288  
     158A      0.349043   159A      0.350307   160A      0.352430  
     161A      0.359632   162A      0.368991   163A      0.369412  
     164A      0.370660   165A      0.376072   166A      0.380114  
     167A      0.381207   168A      0.384085   169A      0.388849  
     170A      0.391537   171A      0.395027   172A      0.399545  
     173A      0.403340   174A      0.408507   175A      0.413248  
     176A      0.414166   177A      0.416020   178A      0.421492  
     179A      0.425343   180A      0.427402   181A      0.431796  
     182A      0.434431   183A      0.438627   184A      0.446418  
     185A      0.448124   186A      0.453937   187A      0.458461  
     188A      0.467925   189A      0.472695   190A      0.474344  
     191A      0.480600   192A      0.486741   193A      0.489109  
     194A      0.499235   195A      0.504192   196A      0.506562  
     197A      0.517486   198A      0.520960   199A      0.529728  
     200A      0.533842   201A      0.537889   202A      0.539007  
     203A      0.547038   204A      0.556633   205A      0.560517  
     206A      0.565338   207A      0.568584   208A      0.572120  
     209A      0.579153   210A      0.585967   211A      0.590452  
     212A      0.595426   213A      0.602845   214A      0.604217  
     215A      0.608501   216A      0.610437   217A      0.618110  
     218A      0.619754   219A      0.621563   220A      0.627112  
     221A      0.632538   222A      0.635067   223A      0.644249  
     224A      0.654998   225A      0.660801   226A      0.670647  
     227A      0.677209   228A      0.686466   229A      0.689331  
     230A      0.699579   231A      0.701593   232A      0.705650  
     233A      0.715127   234A      0.718785   235A      0.722812  
     236A      0.727642   237A      0.735964   238A      0.741529  
     239A      0.745955   240A      0.748948   241A      0.757230  
     242A      0.759032   243A      0.759793   244A      0.768160  
     245A      0.773345   246A      0.775435   247A      0.777631  
     248A      0.781730   249A      0.786821   250A      0.793496  
     251A      0.797294   252A      0.803250   253A      0.804593  
     254A      0.808172   255A      0.814198   256A      0.820451  
     257A      0.827144   258A      0.831761   259A      0.834014  
     260A      0.840032   261A      0.846924   262A      0.848462  
     263A      0.853146   264A      0.860634   265A      0.863965  
     266A      0.867804   267A      0.872995   268A      0.879744  
     269A      0.883280   270A      0.888859   271A      0.894485  
     272A      0.896885   273A      0.903128   274A      0.907155  
     275A      0.915875   276A      0.917983   277A      0.924382  
     278A      0.929968   279A      0.930535   280A      0.933930  
     281A      0.935769   282A      0.942082   283A      0.945027  
     284A      0.951032   285A      0.961292   286A      0.964112  
     287A      0.965086   288A      0.972688   289A      0.976703  
     290A      0.978788   291A      0.980454   292A      0.988328  
     293A      0.989403   294A      0.992182   295A      0.995049  
     296A      1.001619   297A      1.003757   298A      1.010254  
     299A      1.017295   300A      1.019213   301A      1.024597  
     302A      1.028717   303A      1.032447   304A      1.036506  
     305A      1.046154   306A      1.047523   307A      1.056462  
     308A      1.058411   309A      1.061923   310A      1.071994  
     311A      1.072555   312A      1.077837   313A      1.080916  
     314A      1.091926   315A      1.092737   316A      1.096407  
     317A      1.099415   318A      1.106743   319A      1.117840  
     320A      1.118961   321A      1.123264   322A      1.128054  
     323A      1.136792   324A      1.140333   325A      1.145781  
     326A      1.152125   327A      1.153589   328A      1.160955  
     329A      1.165775   330A      1.170953   331A      1.179193  
     332A      1.191267   333A      1.200620   334A      1.204598  
     335A      1.212004   336A      1.217045   337A      1.223037  
     338A      1.229251   339A      1.234192   340A      1.243421  
     341A      1.246466   342A      1.248133   343A      1.258388  
     344A      1.263175   345A      1.271339   346A      1.274522  
     347A      1.276416   348A      1.280719   349A      1.294891  
     350A      1.297116   351A      1.306157   352A      1.309176  
     353A      1.318916   354A      1.322470   355A      1.332100  
     356A      1.339858   357A      1.341471   358A      1.346917  
     359A      1.359995   360A      1.365671   361A      1.368821  
     362A      1.383093   363A      1.391757   364A      1.393720  
     365A      1.400211   366A      1.414560   367A      1.418325  
     368A      1.420446   369A      1.429251   370A      1.439174  
     371A      1.449932   372A      1.451993   373A      1.458854  
     374A      1.460627   375A      1.475470   376A      1.493852  
     377A      1.495086   378A      1.502394   379A      1.507053  
     380A      1.508325   381A      1.516785   382A      1.522343  
     383A      1.527122   384A      1.533814   385A      1.537779  
     386A      1.548227   387A      1.553420   388A      1.561658  
     389A      1.566895   390A      1.570914   391A      1.579927  
     392A      1.594235   393A      1.607003   394A      1.611883  
     395A      1.618628   396A      1.629772   397A      1.635755  
     398A      1.637687   399A      1.644103   400A      1.656234  
     401A      1.666352   402A      1.679740   403A      1.681399  
     404A      1.691988   405A      1.694707   406A      1.706656  
     407A      1.719022   408A      1.722969   409A      1.735114  
     410A      1.738386   411A      1.744721   412A      1.752793  
     413A      1.755627   414A      1.766544   415A      1.773188  
     416A      1.779667   417A      1.793600   418A      1.794601  
     419A      1.802733   420A      1.813335   421A      1.818966  
     422A      1.826315   423A      1.833243   424A      1.838491  
     425A      1.844126   426A      1.849178   427A      1.852005  
     428A      1.864984   429A      1.870711   430A      1.887215  
     431A      1.890467   432A      1.895354   433A      1.907992  
     434A      1.913996   435A      1.920368   436A      1.927768  
     437A      1.931595   438A      1.939142   439A      1.944984  
     440A      1.961063   441A      1.967119   442A      1.971053  
     443A      1.983969   444A      1.992962   445A      1.999959  
     446A      2.004032   447A      2.016464   448A      2.022385  
     449A      2.026650   450A      2.043338   451A      2.051635  
     452A      2.058309   453A      2.061611   454A      2.063280  
     455A      2.065822   456A      2.076504   457A      2.087664  
     458A      2.095461   459A      2.109733   460A      2.119564  
     461A      2.126836   462A      2.145681   463A      2.154291  
     464A      2.166747   465A      2.171943   466A      2.184050  
     467A      2.191377   468A      2.197722   469A      2.215498  
     470A      2.222788   471A      2.230349   472A      2.244471  
     473A      2.251988   474A      2.258106   475A      2.263625  
     476A      2.264474   477A      2.293638   478A      2.304441  
     479A      2.308525   480A      2.318220   481A      2.328393  
     482A      2.338442   483A      2.344205   484A      2.366286  
     485A      2.376385   486A      2.387599   487A      2.390494  
     488A      2.402967   489A      2.407824   490A      2.421759  
     491A      2.429744   492A      2.437973   493A      2.460889  
     494A      2.466744   495A      2.488034   496A      2.504795  
     497A      2.529389   498A      2.532806   499A      2.545653  
     500A      2.560427   501A      2.571269   502A      2.579551  
     503A      2.582636   504A      2.597444   505A      2.606781  
     506A      2.629817   507A      2.633446   508A      2.641516  
     509A      2.664492   510A      2.674689   511A      2.712114  
     512A      2.730721   513A      2.742832   514A      2.751656  
     515A      2.761720   516A      2.775508   517A      2.806389  
     518A      2.843597   519A      2.847714   520A      2.881273  
     521A      2.894626   522A      2.898936   523A      2.924654  
     524A      2.930652   525A      2.947897   526A      2.964865  
     527A      2.976963   528A      2.989250   529A      2.995283  
     530A      3.005945   531A      3.028498   532A      3.042719  
     533A      3.053221   534A      3.053926   535A      3.074931  
     536A      3.081557   537A      3.092261   538A      3.103012  
     539A      3.110831   540A      3.126826   541A      3.141142  
     542A      3.150647   543A      3.157707   544A      3.180328  
     545A      3.186793   546A      3.201842   547A      3.217203  
     548A      3.226236   549A      3.235485   550A      3.245184  
     551A      3.254657   552A      3.266219   553A      3.274727  
     554A      3.284922   555A      3.295373   556A      3.301340  
     557A      3.313633   558A      3.320017   559A      3.330942  
     560A      3.337449   561A      3.345163   562A      3.362044  
     563A      3.370254   564A      3.376675   565A      3.380487  
     566A      3.389374   567A      3.396934   568A      3.406727  
     569A      3.412092   570A      3.422444   571A      3.425325  
     572A      3.441637   573A      3.446204   574A      3.452781  
     575A      3.461899   576A      3.472577   577A      3.483004  
     578A      3.489322   579A      3.503731   580A      3.506236  
     581A      3.520542   582A      3.528209   583A      3.535816  
     584A      3.539321   585A      3.558433   586A      3.561392  
     587A      3.569434   588A      3.587295   589A      3.590294  
     590A      3.605968   591A      3.617660   592A      3.619428  
     593A      3.625771   594A      3.646301   595A      3.651993  
     596A      3.654280   597A      3.658343   598A      3.668498  
     599A      3.678276   600A      3.686459   601A      3.707472  
     602A      3.711340   603A      3.714848   604A      3.720308  
     605A      3.732281   606A      3.744759   607A      3.747584  
     608A      3.752141   609A      3.769757   610A      3.772007  
     611A      3.779774   612A      3.788696   613A      3.796816  
     614A      3.807757   615A      3.813841   616A      3.826906  
     617A      3.830906   618A      3.831845   619A      3.842468  
     620A      3.851930   621A      3.858397   622A      3.872553  
     623A      3.875641   624A      3.882223   625A      3.893846  
     626A      3.897917   627A      3.902909   628A      3.909887  
     629A      3.925834   630A      3.935617   631A      3.954080  
     632A      3.957116   633A      3.970260   634A      3.974084  
     635A      3.983730   636A      3.993192   637A      3.996767  
     638A      4.011065   639A      4.024075   640A      4.026623  
     641A      4.035645   642A      4.043221   643A      4.055335  
     644A      4.061055   645A      4.066440   646A      4.084530  
     647A      4.090015   648A      4.092907   649A      4.111008  
     650A      4.114016   651A      4.121406   652A      4.137163  
     653A      4.143155   654A      4.151778   655A      4.170822  
     656A      4.181049   657A      4.187660   658A      4.198751  
     659A      4.203820   660A      4.210141   661A      4.216280  
     662A      4.218981   663A      4.234868   664A      4.237774  
     665A      4.245380   666A      4.252236   667A      4.266863  
     668A      4.272875   669A      4.286742   670A      4.291865  
     671A      4.301306   672A      4.305568   673A      4.310769  
     674A      4.322119   675A      4.329332   676A      4.352293  
     677A      4.362131   678A      4.366209   679A      4.373120  
     680A      4.380414   681A      4.398132   682A      4.413191  
     683A      4.424585   684A      4.438880   685A      4.442151  
     686A      4.455988   687A      4.469582   688A      4.478844  
     689A      4.488086   690A      4.502640   691A      4.509743  
     692A      4.517461   693A      4.536865   694A      4.554372  
     695A      4.574768   696A      4.592008   697A      4.594515  
     698A      4.616516   699A      4.632587   700A      4.635325  
     701A      4.639216   702A      4.644098   703A      4.668465  
     704A      4.673575   705A      4.684100   706A      4.698529  
     707A      4.705968   708A      4.735298   709A      4.744085  
     710A      4.758318   711A      4.768171   712A      4.787263  
     713A      4.802431   714A      4.811127   715A      4.814864  
     716A      4.823744   717A      4.829204   718A      4.851367  
     719A      4.856583   720A      4.868974   721A      4.897164  
     722A      4.908237   723A      4.914609   724A      4.922732  
     725A      4.933591   726A      4.942792   727A      4.947651  
     728A      4.956301   729A      4.976223   730A      4.988798  
     731A      5.008697   732A      5.016609   733A      5.023489  
     734A      5.033188   735A      5.042764   736A      5.048837  
     737A      5.060583   738A      5.069467   739A      5.086261  
     740A      5.096292   741A      5.109285   742A      5.124024  
     743A      5.161824   744A      5.172975   745A      5.177302  
     746A      5.198417   747A      5.207613   748A      5.212035  
     749A      5.220187   750A      5.257156   751A      5.267654  
     752A      5.279639   753A      5.287781   754A      5.321772  
     755A      5.341734   756A      5.362573   757A      5.381063  
     758A      5.383498   759A      5.410470   760A      5.438584  
     761A      5.458609   762A      5.483428   763A      5.504032  
     764A      5.536227   765A      5.559931   766A      5.566001  
     767A      5.590153   768A      5.603865   769A      5.622200  
     770A      5.624752   771A      5.656039   772A      5.673719  
     773A      5.683598   774A      5.693020   775A      5.715133  
     776A      5.742008   777A      5.774709   778A      5.824276  
     779A      5.831517   780A      5.881250   781A      5.908381  
     782A      5.927543   783A      5.973080   784A      5.979889  
     785A      6.008303   786A      6.058359   787A      6.102429  
     788A      6.117203   789A      6.151961   790A      6.165444  
     791A      6.193651   792A      6.231942   793A      6.269670  
     794A      6.333229   795A      6.347072   796A      6.405257  
     797A      6.416718   798A      6.464147   799A      6.516031  
     800A      6.557608   801A      6.578773   802A      6.643874  
     803A      6.651527   804A      6.695003   805A      6.742383  
     806A      6.780199   807A      6.807473   808A      6.830211  
     809A      6.847117   810A      6.908034   811A      6.964238  
     812A      7.017595   813A      7.190013   814A      7.241414  
     815A      7.306786   816A      7.328367   817A      7.429122  
     818A      7.445295   819A      7.474587   820A      7.535700  
     821A      7.568186   822A      7.765240   823A      7.852391  
     824A      8.068714   825A      8.506794   826A      8.889694  
     827A      8.930808   828A      9.153209   829A      9.174117  
     830A      9.291985   831A      9.401980   832A      9.425797  
     833A      9.473251   834A      9.525084   835A      9.601123  
     836A      9.913878   837A      9.961123   838A     15.828196  
     839A     16.054768   840A     16.454874   841A     16.545571  
     842A     16.845905   843A     17.044278   844A     18.736297  
     845A     19.128281   846A     19.562912   847A     19.799882  
     848A     20.091841   849A     20.231687   850A     20.459276  
     851A     21.694896  

    Final Occupation by Irrep:
              A 
    DOCC [    49 ]

  Energy converged.

  @DF-RHF Final Energy:  -650.55459212020196

   => Energetics <=

    Nuclear Repulsion Energy =            829.2670233702401674
    One-Electron Energy =               -2518.8016693333825060
    Two-Electron Energy =                1038.9800538429403787
    DFT Exchange-Correlation Energy =       0.0000000000000000
    Empirical Dispersion Energy =           0.0000000000000000
    PCM Polarization Energy =               0.0000000000000000
    EFP Energy =                            0.0000000000000000
    Total Energy =                       -650.5545921202019599



Properties will be evaluated at   0.000000,   0.000000,   0.000000 Bohr

Properties computed using the SCF density matrix

  Nuclear Dipole Moment: (a.u.)
     X:     1.2295      Y:     0.4608      Z:    -7.5232

  Electronic Dipole Moment: (a.u.)
     X:     1.8725      Y:    -1.4457      Z:     4.5217

  Dipole Moment: (a.u.)
     X:     3.1020      Y:    -0.9849      Z:    -3.0014     Total:     4.4273

  Dipole Moment: (Debye)
     X:     7.8844      Y:    -2.5033      Z:    -7.6288     Total:    11.2530


*** tstop() called on gpu-1-17.local at Sat Nov 11 18:57:25 2017
Module time:
	user time   =    1356.88 seconds =      22.61 minutes
	system time =      56.65 seconds =       0.94 minutes
	total time  =        590 seconds =       9.83 minutes
Total time:
	user time   =    1356.89 seconds =      22.61 minutes
	system time =      56.65 seconds =       0.94 minutes
	total time  =        590 seconds =       9.83 minutes

  //>>>>>>>>>>>>>>>>>>>>>>>>>>>>>>>>>>>//
  //               DFMP2               //
  //<<<<<<<<<<<<<<<<<<<<<<<<<<<<<<<<<<<//

   => Loading Basis Set <=

    Name: (AUG-CC-PVTZ AUX)
    Role: RIFIT
    Keyword: DF_BASIS_MP2
    atoms 1-11  entry C          line   147 file /cbio/jclab/home/chayas/anaconda/envs/py35/share/psi4/basis/aug-cc-pvtz-ri.gbs 
    atoms 12    entry N          line   205 file /cbio/jclab/home/chayas/anaconda/envs/py35/share/psi4/basis/aug-cc-pvtz-ri.gbs 
    atoms 13    entry O          line   263 file /cbio/jclab/home/chayas/anaconda/envs/py35/share/psi4/basis/aug-cc-pvtz-ri.gbs 
    atoms 14    entry F          line   321 file /cbio/jclab/home/chayas/anaconda/envs/py35/share/psi4/basis/aug-cc-pvtz-ri.gbs 
    atoms 15-23 entry H          line    29 file /cbio/jclab/home/chayas/anaconda/envs/py35/share/psi4/basis/aug-cc-pvtz-ri.gbs 

	 --------------------------------------------------------
	                          DF-MP2                         
	      2nd-Order Density-Fitted Moller-Plesset Theory     
	              RMP2 Wavefunction,   8 Threads             
	                                                         
	        Rob Parrish, Justin Turney, Andy Simmonett,      
	           Ed Hohenstein, and C. David Sherrill          
	 --------------------------------------------------------

   => Auxiliary Basis Set <=

  Basis Set: (AUG-CC-PVTZ AUX)
    Blend: AUG-CC-PVTZ-RI
    Number of shells: 518
    Number of basis function: 1898
    Number of Cartesian functions: 2399
    Spherical Harmonics?: true
    Max angular momentum: 4

	 --------------------------------------------------------
	                 NBF =   851, NAUX =  1898
	 --------------------------------------------------------
	   CLASS    FOCC     OCC    AOCC    AVIR     VIR    FVIR
	   PAIRS       0      49      49     802     802       0
	 --------------------------------------------------------


         ------------------------------------------------------------
                                     CPHF                           
                                  Rob Parrish                       
         ------------------------------------------------------------

  ==> Geometry <==

    Molecular point group: c1
    Full point group: C1

    Geometry (in Angstrom), charge = 1, multiplicity = 1:

       Center              X                  Y                   Z               Mass       
    ------------   -----------------  -----------------  -----------------  -----------------
           C         -1.337680792969     0.758311665475    -0.782950340558    12.000000000000
           C         -2.415680792969     1.331311665475    -0.109950340558    12.000000000000
           C          1.607319207031     0.351311665475    -1.600950340558    12.000000000000
           C          1.098319207031    -1.783688334525    -0.607950340558    12.000000000000
           C         -1.422680792969     0.715311665475     2.005049659442    12.000000000000
           C          2.671319207031    -0.245688334525    -2.262950340558    12.000000000000
           C          2.175319207031    -2.325688334525    -1.294950340558    12.000000000000
           C         -0.301680792969     0.163311665475    -0.062950340558    12.000000000000
           C          0.815319207031    -0.430688334525    -0.765950340558    12.000000000000
           C         -2.458680792969     1.310311665475     1.284049659442    12.000000000000
           C         -0.344680792969     0.142311665475     1.331049659442    12.000000000000
           N          2.921319207031    -1.550688334525    -2.092950340558    14.003074004780
           O         -3.511680792969     1.870311665475     1.941049659442    15.994914619560
           F          0.643319207031    -0.425688334525     2.038049659442    18.998403224000
           H         -1.318680792969     0.782311665475    -1.869950340558     1.007825032070
           H         -3.220680792969     1.792311665475    -0.676950340558     1.007825032070
           H          1.409319207031     1.409311665475    -1.742950340558     1.007825032070
           H          0.496319207031    -2.417688334525     0.037049659442     1.007825032070
           H         -1.450680792969     0.695311665475     3.091049659442     1.007825032070
           H          3.338319207031     0.283311665475    -2.929950340558     1.007825032070
           H          2.468319207031    -3.364688334525    -1.231950340558     1.007825032070
           H          3.707319207031    -1.969688334525    -2.588950340558     1.007825032070
           H         -3.443680792969     2.838311665475     1.922049659442     1.007825032070

  Nuclear repulsion =  829.267023370240167
  Reference energy  = -650.554592120201960

  ==> Basis Set <==

  Basis Set: AUG-CC-PVTZ
    Blend: AUG-CC-PVTZ
    Number of shells: 277
    Number of basis function: 851
    Number of Cartesian functions: 995
    Spherical Harmonics?: true
    Max angular momentum: 3

  ==> CGRSolver (by Rob Parrish) <==

   Number of roots    =         1
   Preconditioning    =    JACOBI
   Convergence cutoff =     1E-06
   Maximum iterations =       100

  ==> CPHFRHamiltonian (by Rob Parrish) <== 

  ==> DFJK: Density-Fitted J/K Matrices <==

    J tasked:                  Yes
    K tasked:                  Yes
    wK tasked:                  No
    OpenMP threads:              8
    Integrals threads:           8
    Memory (MB):              3576
    Algorithm:                Disk
    Integral Cache:           NONE
    Schwarz Cutoff:          1E-12
    Fitting Condition:       1E-12

   => Auxiliary Basis Set <=

  Basis Set: (AUG-CC-PVTZ AUX)
    Blend: AUG-CC-PVTZ-JKFIT
    Number of shells: 546
    Number of basis function: 1870
    Number of Cartesian functions: 2329
    Spherical Harmonics?: true
    Max angular momentum: 4

  ==> CPHF Iterations <==

  => Iterations <=

             Iter  Converged  Remaining    Residual
  CGR           1          0          1   1.150E-01
  CGR           2          0          1   4.565E-02
  CGR           3          0          1   2.698E-02
  CGR           4          0          1   8.642E-03
  CGR           5          0          1   3.437E-03
  CGR           6          0          1   1.371E-03
  CGR           7          0          1   4.664E-04
  CGR           8          0          1   2.156E-04
  CGR           9          0          1   1.002E-04
  CGR          10          0          1   3.756E-05
  CGR          11          0          1   1.481E-05
  CGR          12          0          1   5.006E-06
  CGR          13          0          1   1.844E-06
  CGR          14          1          0   6.388E-07

    CGRSolver converged.

  ==> DFCorrGrad: Density-Fitted Correlated Gradients <==

    OpenMP threads:              8
    Integrals threads:           8
    Memory (MB):              3576
    Schwarz Cutoff:          0E+00
    Fitting Condition:       1E-12

   => Auxiliary Basis Set <=

  Basis Set: (AUG-CC-PVTZ AUX)
    Blend: AUG-CC-PVTZ-JKFIT
    Number of shells: 546
    Number of basis function: 1870
    Number of Cartesian functions: 2329
    Spherical Harmonics?: true
    Max angular momentum: 4

	-----------------------------------------------------------
	 ==================> DF-MP2 Energies <==================== 
	-----------------------------------------------------------
	 Reference Energy          =    -650.5545921202019599 [Eh]
	 Singles Energy            =      -0.0000000000000003 [Eh]
	 Same-Spin Energy          =      -0.6686505770717887 [Eh]
	 Opposite-Spin Energy      =      -2.0132538311245187 [Eh]
	 Correlation Energy        =      -2.6819044081963077 [Eh]
	 Total Energy              =    -653.2364965283982201 [Eh]
	-----------------------------------------------------------
	 ================> DF-SCS-MP2 Energies <================== 
	-----------------------------------------------------------
	 SCS Same-Spin Scale       =       0.3333333333333333 [-]
	 SCS Opposite-Spin Scale   =       1.2000000000000000 [-]
	 SCS Same-Spin Energy      =      -0.2228835256905962 [Eh]
	 SCS Opposite-Spin Energy  =      -2.4159045973494222 [Eh]
	 SCS Correlation Energy    =      -2.6387881230400190 [Eh]
	 SCS Total Energy          =    -653.1933802432420180 [Eh]
	-----------------------------------------------------------


  -Total Gradient:
     Atom            X                  Y                   Z
    ------   -----------------  -----------------  -----------------
       1        0.008139094847    -0.009256527513    -0.007449420960
       2       -0.003686386732     0.003025182199     0.007066801464
       3       -0.010314016209     0.007950649343     0.009803163054
       4       -0.013890078947     0.006376781447     0.005362507916
       5       -0.005296286037     0.004943953372    -0.002294160566
       6        0.001925817775    -0.011397835377     0.003228639901
       7        0.006015075840     0.007807367452    -0.007631041760
       8       -0.001927164968     0.000827387810    -0.003344124285
       9        0.002528448804    -0.001551707324    -0.003640221301
      10       -0.009690289093    -0.004042801333     0.006971306335
      11        0.025100351004    -0.007239901541     0.000321948728
      12        0.001227677050    -0.001173191896    -0.000817977623
      13       -0.000027657933    -0.004177212796    -0.005997289973
      14       -0.000024049651    -0.000624531844     0.004943073586
      15       -0.001846936604     0.001741928714    -0.005392449950
      16       -0.003201632629     0.002719831142    -0.004938691387
      17       -0.001262455845     0.005439633508    -0.001487314529
      18       -0.003385840775    -0.003904399131     0.003713538526
      19        0.000031141812    -0.001004694958     0.005496392354
      20        0.002123867141     0.000186375445    -0.002117368848
      21        0.001873486050    -0.002251235773    -0.000432296541
      22        0.004437575181    -0.002553785728    -0.002957199249
      23        0.001150259910     0.008158734788     0.001592185102


*** tstop() called on gpu-1-17.local at Sat Nov 11 19:38:53 2017
Module time:
	user time   =    6596.94 seconds =     109.95 minutes
	system time =     123.62 seconds =       2.06 minutes
	total time  =       3078 seconds =      51.30 minutes
Total time:
	user time   =    6596.95 seconds =     109.95 minutes
	system time =     123.62 seconds =       2.06 minutes
	total time  =       3078 seconds =      51.30 minutes

			-----------------------------------------
			 OPTKING 2.0: for geometry optimizations 
			  - R.A. King,  Bethel University        
			-----------------------------------------

	Internal coordinates to be generated automatically.
	Detected frag 1 with atoms:  1 2 3 4 5 6 7 8 9 10 11 12 13 14 15 16 17 18 19 20
	 21 22 23
	---Fragment 1 Bond Connectivity---
	 1 : 2 8 15
	 2 : 1 10 16
	 3 : 6 9 17
	 4 : 7 9 18
	 5 : 10 11 19
	 6 : 3 12 20
	 7 : 4 12 21
	 8 : 1 9 11
	 9 : 3 4 8
	 10 : 2 5 13
	 11 : 5 8 14
	 12 : 6 7 22
	 13 : 10 23
	 14 : 11
	 15 : 1
	 16 : 2
	 17 : 3
	 18 : 4
	 19 : 5
	 20 : 6
	 21 : 7
	 22 : 12
	 23 : 13

	Assuming in current code that numbering for constraints corresponds to unified fragment.
	Fixed dihedral atom list: 
	     2    10    13    23
	---Fragment 1 Geometry and Gradient---
	 C          -2.5278503519        1.4330013711       -1.4795617193
	 C          -4.5649751232        2.5158144453       -0.2077760319
	 C           3.0373931094        0.6638828350       -3.0253576960
	 C           2.0755225078       -3.3706824587       -1.1488596460
	 C          -2.6884770732        1.3517431474        3.7889947392
	 C           5.0480617148       -0.4642836663       -4.2763563960
	 C           4.1107575529       -4.3949140227       -2.4471014993
	 C          -0.5700940783        0.3086143221       -0.1189589036
	 C           1.5407300122       -0.8138830009       -1.4474363750
	 C          -4.6462333469        2.4761301965        2.4265021974
	 C          -0.6513523020        0.2689300733        2.5153193256
	 N           5.5204932480       -2.9303762697       -3.9551029534
	 O          -6.6361149648        3.5343768309        3.6680522667
	 F           1.2156971173       -0.8044343702        3.8513557016
	 H          -2.4919455554        1.4783547983       -3.5336940258
	 H          -6.0862046602        3.3869781925       -1.2792507492
	 H           2.6632273351        2.6632130836       -3.2936988069
	 H           0.9379073758       -4.5687688269        0.0700137097
	 H          -2.7413894049        1.3139486247        5.8412373195
	 H           6.3085090454        0.5353814580       -5.5368037266
	 H           4.6644473098       -6.3583394748       -2.3280487530
	 H           7.0058179885       -3.7221715194       -4.8924071153
	 H          -6.5076135878        5.3636317275        3.6321474702
	             0.0081390948       -0.0092565275       -0.0074494210
	            -0.0036863867        0.0030251822        0.0070668015
	            -0.0103140162        0.0079506493        0.0098031631
	            -0.0138900789        0.0063767814        0.0053625079
	            -0.0052962860        0.0049439534       -0.0022941606
	             0.0019258178       -0.0113978354        0.0032286399
	             0.0060150758        0.0078073675       -0.0076310418
	            -0.0019271650        0.0008273878       -0.0033441243
	             0.0025284488       -0.0015517073       -0.0036402213
	            -0.0096902891       -0.0040428013        0.0069713063
	             0.0251003510       -0.0072399015        0.0003219487
	             0.0012276771       -0.0011731919       -0.0008179776
	            -0.0000276579       -0.0041772128       -0.0059972900
	            -0.0000240497       -0.0006245318        0.0049430736
	            -0.0018469366        0.0017419287       -0.0053924500
	            -0.0032016326        0.0027198311       -0.0049386914
	            -0.0012624558        0.0054396335       -0.0014873145
	            -0.0033858408       -0.0039043991        0.0037135385
	             0.0000311418       -0.0010046950        0.0054963924
	             0.0021238671        0.0001863754       -0.0021173688
	             0.0018734861       -0.0022512358       -0.0004322965
	             0.0044375752       -0.0025537857       -0.0029571992
	             0.0011502599        0.0081587348        0.0015921851

	Previous optimization step data not found.  Starting new optimization.

	---Fragment 1 Intrafragment Coordinates---
	 - Coordinate -           - BOHR/RAD -       - ANG/DEG -
	 R(1,2)           =         2.634350	       1.394038
	 R(1,8)           =         2.635962	       1.394891
	 R(1,15)          =         2.054947	       1.087431
	 R(2,10)          =         2.635830	       1.394821
	 R(2,16)          =         2.054537	       1.087214
	 R(3,6)           =         2.623079	       1.388074
	 R(3,9)           =         2.629378	       1.391407
	 R(3,17)          =         2.051665	       1.085694
	 R(4,7)           =         2.622339	       1.387682
	 R(4,9)           =         2.629140	       1.391281
	 R(4,18)          =         2.053103	       1.086455
	 R(5,10)          =         2.636938	       1.395407
	 R(5,11)          =         2.635263	       1.394521
	 R(5,19)          =         2.053272	       1.086545
	 R(6,12)          =         2.531404	       1.339561
	 R(6,20)          =         2.043719	       1.081489
	 R(7,12)          =         2.531066	       1.339382
	 R(7,21)          =         2.043474	       1.081360
	 R(8,9)           =         2.735038	       1.447320
	 R(8,11)          =         2.635830	       1.394821
	 R(10,13)         =         2.573123	       1.361638
	 R(11,14)         =         2.534359	       1.341125
	 R(12,22)         =         1.926569	       1.019496
	 R(13,23)         =         1.834114	       0.970571
	 B(1,2,10)        =         2.094553	     120.009056
	 B(1,2,16)        =         2.088723	     119.675016
	 B(1,8,9)         =         2.091569	     119.838095
	 B(1,8,11)        =         2.093692	     119.959722
	 B(2,1,8)         =         2.094940	     120.031219
	 B(2,1,15)        =         2.079469	     119.144799
	 B(2,10,5)        =         2.094306	     119.994870
	 B(2,10,13)       =         2.094247	     119.991510
	 B(3,6,12)        =         2.096160	     120.101096
	 B(3,6,20)        =         2.160978	     123.814942
	 B(3,9,4)         =         2.093156	     119.928982
	 B(3,9,8)         =         2.094542	     120.008404
	 B(4,7,12)        =         2.095824	     120.081885
	 B(4,7,21)        =         2.161239	     123.829863
	 B(4,9,8)         =         2.095488	     120.062613
	 B(5,10,13)       =         2.094633	     120.013619
	 B(5,11,8)        =         2.095181	     120.045019
	 B(5,11,14)       =         2.081414	     119.256220
	 B(6,3,9)         =         2.072362	     118.737620
	 B(6,3,17)        =         2.090402	     119.771194
	 B(6,12,7)        =         2.135730	     122.368334
	 B(6,12,22)       =         2.074333	     118.850498
	 B(7,4,9)         =         2.073138	     118.782073
	 B(7,4,18)        =         2.089816	     119.737652
	 B(7,12,22)       =         2.073122	     118.781161
	 B(8,1,15)        =         2.108776	     120.823969
	 B(8,11,14)       =         2.106591	     120.698759
	 B(9,3,17)        =         2.120421	     121.491171
	 B(9,4,18)        =         2.120230	     121.480258
	 B(9,8,11)        =         2.097924	     120.202184
	 B(10,2,16)       =         2.099909	     120.315896
	 B(10,5,11)       =         2.093699	     119.960108
	 B(10,5,19)       =         2.100355	     120.341451
	 B(10,13,23)      =         1.924690	     110.276625
	 B(11,5,19)       =         2.089132	     119.698439
	 B(12,6,20)       =         2.026047	     116.083959
	 B(12,7,21)       =         2.026122	     116.088250
	 D(1,2,10,5)      =        -0.000325	      -0.018609
	 D(1,2,10,13)     =         3.141388	     179.988267
	 D(1,8,9,3)       =         1.047203	      60.000294
	 D(1,8,9,4)       =        -2.094232	    -119.990639
	 D(1,8,11,5)      =         0.000325	       0.018608
	 D(1,8,11,14)     =        -3.141528	    -179.996269
	 D(2,1,8,9)       =         3.141277	     179.981897
	 D(2,1,8,11)      =        -0.000348	      -0.019945
	 D(2,10,5,11)     =         0.000301	       0.017261
	 D(2,10,5,19)     =        -3.141029	    -179.967685
	 D(2,10,13,23)    =        -1.309379	     -75.021863
	 D(3,6,12,7)      =        -0.000167	      -0.009589
	 D(3,6,12,22)     =         3.140892	     179.959844
	 D(3,9,4,7)       =        -0.000213	      -0.012204
	 D(3,9,4,18)      =        -3.140964	    -179.964007
	 D(3,9,8,11)      =        -2.094358	    -119.997860
	 D(4,7,12,6)      =         0.000492	       0.028196
	 D(4,7,12,22)     =        -3.140567	    -179.941258
	 D(4,9,3,6)       =         0.000525	       0.030092
	 D(4,9,3,17)      =         3.141327	     179.984799
	 D(4,9,8,11)      =         1.047393	      60.011207
	 D(5,10,2,16)     =         3.140149	     179.917291
	 D(5,10,13,23)    =         1.832334	     104.985014
	 D(5,11,8,9)      =        -3.141300	    -179.983240
	 D(6,3,9,8)       =        -3.140909	    -179.960854
	 D(6,12,7,21)     =        -3.140902	    -179.960420
	 D(7,4,9,8)       =         3.141222	     179.978736
	 D(7,12,6,20)     =         3.141065	     179.969740
	 D(8,1,2,10)      =         0.000348	       0.019955
	 D(8,1,2,16)      =        -3.140133	    -179.916358
	 D(8,9,3,17)      =        -0.000107	      -0.006146
	 D(8,9,4,18)      =         0.000470	       0.026933
	 D(8,11,5,10)     =        -0.000301	      -0.017270
	 D(8,11,5,19)     =         3.141030	     179.967774
	 D(9,3,6,12)      =        -0.000344	      -0.019721
	 D(9,3,6,20)      =        -3.141547	    -179.997375
	 D(9,4,7,12)      =        -0.000293	      -0.016764
	 D(9,4,7,21)      =         3.141085	     179.970928
	 D(9,8,1,15)      =         0.000403	       0.023110
	 D(9,8,11,14)     =         0.000033	       0.001883
	 D(10,2,1,15)     =         3.141234	     179.979432
	 D(10,5,11,14)    =         3.141547	     179.997392
	 D(11,5,10,13)    =        -3.141411	    -179.989616
	 D(11,8,1,15)     =        -3.141221	    -179.978731
	 D(12,6,3,17)     =        -3.141160	    -179.975226
	 D(12,7,4,18)     =         3.140474	     179.935898
	 D(13,10,2,16)    =        -0.001324	      -0.075833
	 D(13,10,5,19)    =         0.000444	       0.025437
	 D(14,11,5,19)    =        -0.000307	      -0.017564
	 D(15,1,2,16)     =         0.000753	       0.043120
	 D(17,3,6,20)     =         0.000822	       0.047120
	 D(18,4,7,21)     =        -0.001334	      -0.076410
	 D(20,6,12,22)    =        -0.001062	      -0.060827
	 D(21,7,12,22)    =         0.001224	       0.070126
	 R(4,14)          =         5.685691	       3.008738

	Current energy   :      -653.2364965284

	Generating empirical Hessian (Schlegel '84) for each fragment.
	Adding user-defined constraint: Fragment 1; Coordinate 72:
		Value =    -1.309379; Fixed value    =    -1.308997
		Force =     0.000191; Force constant =     0.500000
	Removing off-diagonal coupling between coordinate 72 and others.
	Taking RFO optimization step.
	Going to follow RFO solution 1.
	Using RFO vector 1.

	Determining step-restricting scale parameter for RS-RFO.
	Maximum step size allowed    0.10000

	 Iter      |step|        alpha        rfo_root  
	------------------------------------------------
	    0     0.35176       1.00000           1
	    1     0.22707       3.75890           1
	    2     0.16026       9.25080           1
	    3     0.12479      18.44670           1
	    4     0.10698      29.00105           1
	    5     0.10080      34.64216           1
	    6     0.10001      35.46719           1
	    7     0.10000      35.48050           1
	------------------------------------------------
	Norm of target step-size    0.10000
	Projected energy change by RFO approximation:        -0.0033174102

	Back-transformation to cartesian coordinates...
	Successfully converged to displaced geometry.
	First geometry is closer to target in internal coordinates, so am using that one.
	First geometry has RMS(Delta(q)) = 1.12e-04

	--- Internal Coordinate Step in ANG or DEG, aJ/ANG or AJ/DEG ---
	 ---------------------------------------------------------------------------
	   Coordinate                Previous        Force       Change         New 
	   ----------                --------       ------       ------       ------
	    1 R(1,2)          =      1.394038    -0.074188    -0.007760     1.386278
	    2 R(1,8)          =      1.394891    -0.015648    -0.001462     1.393429
	    3 R(1,15)         =      1.087431    -0.044461    -0.005818     1.081613
	    4 R(2,10)         =      1.394821    -0.029732    -0.003159     1.391663
	    5 R(2,16)         =      1.087214    -0.050252    -0.006561     1.080654
	    6 R(3,6)          =      1.388074    -0.093550    -0.009770     1.378304
	    7 R(3,9)          =      1.391407     0.024522     0.002659     1.394066
	    8 R(3,17)         =      1.085694    -0.047172    -0.006150     1.079544
	    9 R(4,7)          =      1.387682    -0.094879    -0.009856     1.377826
	   10 R(4,9)          =      1.391281     0.033282     0.003663     1.394943
	   11 R(4,18)         =      1.086455    -0.052391    -0.006847     1.079608
	   12 R(5,10)         =      1.395407    -0.068622    -0.007413     1.387994
	   13 R(5,11)         =      1.394521    -0.121789    -0.013028     1.381493
	   14 R(5,19)         =      1.086545    -0.045406    -0.005931     1.080614
	   15 R(6,12)         =      1.339561     0.014835     0.001415     1.340976
	   16 R(6,20)         =      1.081489    -0.022302    -0.002868     1.078621
	   17 R(7,12)         =      1.339382     0.020287     0.001892     1.341274
	   18 R(7,21)         =      1.081360    -0.021795    -0.002783     1.078577
	   19 R(8,9)          =      1.447320     0.091765     0.011442     1.458761
	   20 R(8,11)         =      1.394821    -0.049674    -0.004947     1.389874
	   21 R(10,13)        =      1.361638     0.011173     0.001269     1.362907
	   22 R(11,14)        =      1.341125    -0.021834    -0.001906     1.339219
	   23 R(12,22)        =      1.019496    -0.048687    -0.005369     1.014127
	   24 R(13,23)        =      0.970571    -0.067445    -0.006407     0.964164
	   25 B(1,2,10)       =    120.009056    -0.000065    -0.098972   119.910085
	   26 B(1,2,16)       =    119.675016     0.000195     0.463497   120.138513
	   27 B(1,8,9)        =    119.838095     0.000366     0.653040   120.491134
	   28 B(1,8,11)       =    119.959722    -0.000605    -1.178446   118.781276
	   29 B(2,1,8)        =    120.031219     0.000165     0.408068   120.439287
	   30 B(2,1,15)       =    119.144799     0.000112     0.287526   119.432325
	   31 B(2,10,5)       =    119.994870     0.000064     0.117718   120.112588
	   32 B(2,10,13)      =    119.991510     0.000350     0.682640   120.674150
	   33 B(3,6,12)       =    120.101096    -0.000324    -0.696212   119.404884
	   34 B(3,6,20)       =    123.814942     0.000064     0.099278   123.914219
	   35 B(3,9,4)        =    119.928982    -0.000499    -0.998307   118.930675
	   36 B(3,9,8)        =    120.008404     0.000172     0.320727   120.329131
	   37 B(4,7,12)       =    120.081885    -0.000324    -0.688795   119.393090
	   38 B(4,7,21)       =    123.829863     0.000061     0.090294   123.920158
	   39 B(4,9,8)        =    120.062613     0.000327     0.677456   120.740069
	   40 B(5,10,13)      =    120.013619    -0.000414    -0.806517   119.207102
	   41 B(5,11,8)       =    120.045019     0.000675     1.279293   121.324312
	   42 B(5,11,14)      =    119.256220    -0.000058    -0.139093   119.117127
	   43 B(6,3,9)        =    118.737620     0.000421     0.869528   119.607148
	   44 B(6,3,17)       =    119.771194    -0.000189    -0.381784   119.389410
	   45 B(6,12,7)       =    122.368334     0.000327     0.682328   123.050662
	   46 B(6,12,22)      =    118.850498    -0.000171    -0.359210   118.491289
	   47 B(7,4,9)        =    118.782073     0.000398     0.831411   119.613484
	   48 B(7,4,18)       =    119.737652    -0.000180    -0.370344   119.367308
	   49 B(7,12,22)      =    118.781161    -0.000156    -0.323116   118.458045
	   50 B(8,1,15)       =    120.823969    -0.000277    -0.696848   120.127121
	   51 B(8,11,14)      =    120.698759    -0.000617    -1.140923   119.557837
	   52 B(9,3,17)       =    121.491171    -0.000233    -0.487751   121.003420
	   53 B(9,4,18)       =    121.480258    -0.000218    -0.461060   121.019197
	   54 B(9,8,11)       =    120.202184     0.000239     0.525384   120.727568
	   55 B(10,2,16)      =    120.315896    -0.000130    -0.364669   119.951227
	   56 B(10,5,11)      =    119.960108    -0.000234    -0.528888   119.431221
	   57 B(10,5,19)      =    120.341451     0.000071     0.148357   120.489808
	   58 B(10,13,23)     =    110.276625    -0.000059    -0.145106   110.131519
	   59 B(11,5,19)      =    119.698439     0.000163     0.380393   120.078832
	   60 B(12,6,20)      =    116.083959     0.000260     0.596758   116.680717
	   61 B(12,7,21)      =    116.088250     0.000262     0.598480   116.686731
	   62 D(1,2,10,5)     =     -0.018609    -0.000014    -0.316012    -0.334621
	   63 D(1,2,10,13)    =    179.988267     0.000027     0.587094   180.575361
	   64 D(1,8,9,3)      =     60.000294    -0.000045    -0.962065    59.038229
	   65 D(1,8,9,4)      =   -119.990639    -0.000040    -0.841442  -120.832081
	   66 D(1,8,11,5)     =      0.018608    -0.000007    -0.153424    -0.134817
	   67 D(1,8,11,14)    =   -179.996269     0.000008     0.173920  -179.822349
	   68 D(2,1,8,9)      =    179.981897    -0.000009    -0.194618   179.787279
	   69 D(2,1,8,11)     =     -0.019945    -0.000007    -0.139010    -0.158954
	   70 D(2,10,5,11)    =      0.017261     0.000001     0.027763     0.045024
	   71 D(2,10,5,19)    =   -179.967685     0.000007     0.148102  -179.819583
	   72 D(2,10,13,23)   =    -75.021863     0.000005     0.041286   -74.980576
	   73 D(3,6,12,7)     =     -0.009589     0.000003     0.060630     0.051041
	   74 D(3,6,12,22)    =    179.959844     0.000003     0.066004   180.025848
	   75 D(3,9,4,7)      =     -0.012204     0.000002     0.059443     0.047239
	   76 D(3,9,4,18)     =   -179.964007     0.000002     0.048745  -179.915262
	   77 D(3,9,8,11)     =   -119.997860    -0.000048    -1.018732  -121.016592
	   78 D(4,7,12,6)     =      0.028196    -0.000000    -0.010290     0.017906
	   79 D(4,7,12,22)    =   -179.941258    -0.000001    -0.015652  -179.956909
	   80 D(4,9,3,6)      =      0.030092     0.000000    -0.009520     0.020572
	   81 D(4,9,3,17)     =    179.984799     0.000005     0.090788   180.075587
	   82 D(4,9,8,11)     =     60.011207    -0.000043    -0.898109    59.113098
	   83 D(5,10,2,16)    =    179.917291    -0.000019    -0.403993   179.513299
	   84 D(5,10,13,23)   =    104.985014     0.000046     0.936238   105.921252
	   85 D(5,11,8,9)     =   -179.983240    -0.000004    -0.097678  -180.080918
	   86 D(6,3,9,8)      =   -179.960854     0.000005     0.108788  -179.852066
	   87 D(6,12,7,21)    =   -179.960420    -0.000003    -0.072889  -180.033309
	   88 D(7,4,9,8)      =    179.978736    -0.000002    -0.059399   179.919337
	   89 D(7,12,6,20)    =    179.969740    -0.000003    -0.067003   179.902737
	   90 D(8,1,2,10)     =      0.019955     0.000017     0.372336     0.392291
	   91 D(8,1,2,16)     =   -179.916358     0.000022     0.461017  -179.455341
	   92 D(8,9,3,17)     =     -0.006146     0.000010     0.209095     0.202949
	   93 D(8,9,4,18)     =      0.026933    -0.000003    -0.070097    -0.043163
	   94 D(8,11,5,10)    =     -0.017270     0.000010     0.208675     0.191405
	   95 D(8,11,5,19)    =    179.967774     0.000004     0.088804   180.056578
	   96 D(9,3,6,12)     =     -0.019721    -0.000003    -0.049533    -0.069254
	   97 D(9,3,6,20)     =   -179.997375     0.000004     0.087800  -179.909576
	   98 D(9,4,7,12)     =     -0.016764    -0.000002    -0.050236    -0.067000
	   99 D(9,4,7,21)     =    179.970928     0.000001     0.017215   179.988143
	  100 D(9,8,1,15)     =      0.023110     0.000008     0.175943     0.199053
	  101 D(9,8,11,14)    =      0.001883     0.000010     0.229666     0.231549
	  102 D(10,2,1,15)    =    179.979432    -0.000000     0.003932   179.983364
	  103 D(10,5,11,14)   =    179.997392    -0.000005    -0.117107   179.880285
	  104 D(11,5,10,13)   =   -179.989616    -0.000041    -0.862018  -180.851634
	  105 D(11,8,1,15)    =   -179.978731     0.000011     0.231551  -179.747180
	  106 D(12,6,3,17)    =   -179.975226    -0.000007    -0.148148  -180.123374
	  107 D(12,7,4,18)    =    179.935898    -0.000002    -0.039774   179.896124
	  108 D(13,10,2,16)   =     -0.075833     0.000023     0.499114     0.423281
	  109 D(13,10,5,19)   =      0.025437    -0.000035    -0.741679    -0.716242
	  110 D(14,11,5,19)   =     -0.017564    -0.000010    -0.236978    -0.254542
	  111 D(15,1,2,16)    =      0.043120     0.000004     0.092613     0.135732
	  112 D(17,3,6,20)    =      0.047120    -0.000001    -0.010815     0.036304
	  113 D(18,4,7,21)    =     -0.076410     0.000001     0.027677    -0.048733
	  114 D(20,6,12,22)   =     -0.060827    -0.000003    -0.061629    -0.122456
	  115 D(21,7,12,22)   =      0.070126    -0.000004    -0.078250    -0.008124
	  116 R(4,14)         =      3.008738    -0.010353    -0.004679     3.004059
	 ---------------------------------------------------------------------------
	Successfully symmetrized geometry.
	 Forces used to impose fixed constraints are not included.
	  Forces zeroed: 72 

  ==> Convergence Check <==

  Measures of convergence in internal coordinates in au.
  Criteria marked as inactive (o), active & met (*), and active & unmet ( ).
  --------------------------------------------------------------------------------------------- ~
   Step     Total Energy     Delta E     MAX Force     RMS Force      MAX Disp      RMS Disp    ~
  --------------------------------------------------------------------------------------------- ~
    Convergence Criteria    1.00e-06 *    3.00e-04 *             o    1.20e-03 *             o  ~
  --------------------------------------------------------------------------------------------- ~
      1    -653.23649653   -6.53e+02      1.48e-02      3.91e-03 o    2.46e-02      9.28e-03 o  ~
  ---------------------------------------------------------------------------------------------

	Writing optimization data to binary file.
	Structure for next step:
	Cartesian Geometry (in Angstrom)
	    C    -1.3419370728   0.7755504738  -0.7764795955
	    C    -2.4145920087   1.3443403373  -0.1074083903
	    C     1.6149475678   0.3371648251  -1.6150092359
	    C     1.1171788590  -1.7871531339  -0.6099062959
	    C    -1.4324155849   0.7178251649   2.0007310159
	    C     2.6742112878  -0.2485022092  -2.2743084411
	    C     2.1861463881  -2.3329943801  -1.2864932037
	    C    -0.3079380975   0.1691890492  -0.0659744574
	    C     0.8190641275  -0.4337608699  -0.7690406539
	    C    -2.4577675660   1.3182680938   1.2833398924
	    C    -0.3718197367   0.1491669198   1.3222860034
	    N     2.9241201649  -1.5530754714  -2.0903195870
	    O    -3.5104453283   1.8624108049   1.9566117281
	    F     0.6152663059  -0.4263565290   2.0208137671
	    H    -1.3164038741   0.7999403309  -1.8575160459
	    H    -3.2181688346   1.8055725398  -0.6635933298
	    H     1.4152036405   1.3878710710  -1.7617558067
	    H     0.5224330902  -2.4156795147   0.0356831290
	    H    -1.4611671427   0.6915423882   3.0806429996
	    H     3.3344391397   0.2815633500  -2.9425543059
	    H     2.4785525422  -3.3686904017  -1.2146557498
	    H     3.7071916152  -1.9696677573  -2.5819538660
	    H    -3.4507577207   2.8246432242   1.9440025963
			--------------------------
			 OPTKING Finished Execution 
			--------------------------

    Structure for next step:
    Molecular point group: c1
    Full point group: C1

    Geometry (in Angstrom), charge = 1, multiplicity = 1:

    C           -1.339487798453     0.775089085761    -0.774531129333
    C           -2.412142734302     1.343878949321    -0.105459924158
    C            1.617396842200     0.336703437082    -1.613060769690
    C            1.119628133398    -1.787614521854    -0.607957829710
    C           -1.429966310526     0.717363776949     2.002679482098
    C            2.676660562154    -0.248963597190    -2.272359974899
    C            2.188595662473    -2.333455768076    -1.284544737522
    C           -0.305488823154     0.168727661254    -0.064025991183
    C            0.821513401875    -0.434222257937    -0.767092187695
    C           -2.455318291642     1.317806705763     1.285288358623
    C           -0.369370462320     0.148705531814     1.324234469575
    N            2.926569439233    -1.553536859394    -2.088371120782
    O           -3.507996053930     1.861949416950     1.958560194286
    F            0.617715580264    -0.426817916982     2.022762233292
    H           -1.313954599725     0.799478942928    -1.855567579695
    H           -3.215719560253     1.805111151852    -0.661644863594
    H            1.417652914922     1.387409683011    -1.759807340495
    H            0.524882364588    -2.416140902711     0.037631595201
    H           -1.458717868368     0.691081000207     3.082591465829
    H            3.336888414120     0.281101961985    -2.940605839663
    H            2.481001816542    -3.369151789645    -1.212707283609
    H            3.709640889577    -1.970129145245    -2.580005399798
    H           -3.448308446361     2.824181836230     1.945951062457

gradient() will perform analytic gradient computation.

*** tstart() called on gpu-1-17.local
*** at Sat Nov 11 19:38:55 2017

    SCF Algorithm Type (re)set to DF.

*** tstart() called on gpu-1-17.local
*** at Sat Nov 11 19:38:55 2017

   => Loading Basis Set <=

    Name: AUG-CC-PVTZ
    Role: ORBITAL
    Keyword: BASIS
    atoms 1-11  entry C          line   221 file /cbio/jclab/home/chayas/anaconda/envs/py35/share/psi4/basis/aug-cc-pvtz.gbs 
    atoms 12    entry N          line   267 file /cbio/jclab/home/chayas/anaconda/envs/py35/share/psi4/basis/aug-cc-pvtz.gbs 
    atoms 13    entry O          line   313 file /cbio/jclab/home/chayas/anaconda/envs/py35/share/psi4/basis/aug-cc-pvtz.gbs 
    atoms 14    entry F          line   359 file /cbio/jclab/home/chayas/anaconda/envs/py35/share/psi4/basis/aug-cc-pvtz.gbs 
    atoms 15-23 entry H          line    34 file /cbio/jclab/home/chayas/anaconda/envs/py35/share/psi4/basis/aug-cc-pvtz.gbs 


         ---------------------------------------------------------
                                   SCF
            by Justin Turney, Rob Parrish, and Andy Simmonett
                              RHF Reference
                        8 Threads,   4768 MiB Core
         ---------------------------------------------------------

  ==> Geometry <==

    Molecular point group: c1
    Full point group: C1

    Geometry (in Angstrom), charge = 1, multiplicity = 1:

       Center              X                  Y                   Z               Mass       
    ------------   -----------------  -----------------  -----------------  -----------------
           C         -1.339487798453     0.775089085761    -0.774531129333    12.000000000000
           C         -2.412142734302     1.343878949321    -0.105459924158    12.000000000000
           C          1.617396842200     0.336703437082    -1.613060769690    12.000000000000
           C          1.119628133398    -1.787614521854    -0.607957829710    12.000000000000
           C         -1.429966310526     0.717363776949     2.002679482098    12.000000000000
           C          2.676660562154    -0.248963597190    -2.272359974899    12.000000000000
           C          2.188595662473    -2.333455768076    -1.284544737522    12.000000000000
           C         -0.305488823154     0.168727661254    -0.064025991183    12.000000000000
           C          0.821513401875    -0.434222257937    -0.767092187695    12.000000000000
           C         -2.455318291642     1.317806705763     1.285288358623    12.000000000000
           C         -0.369370462320     0.148705531814     1.324234469575    12.000000000000
           N          2.926569439233    -1.553536859394    -2.088371120782    14.003074004780
           O         -3.507996053930     1.861949416950     1.958560194286    15.994914619560
           F          0.617715580264    -0.426817916982     2.022762233292    18.998403224000
           H         -1.313954599725     0.799478942928    -1.855567579695     1.007825032070
           H         -3.215719560253     1.805111151852    -0.661644863594     1.007825032070
           H          1.417652914922     1.387409683011    -1.759807340495     1.007825032070
           H          0.524882364588    -2.416140902711     0.037631595201     1.007825032070
           H         -1.458717868368     0.691081000207     3.082591465829     1.007825032070
           H          3.336888414120     0.281101961985    -2.940605839663     1.007825032070
           H          2.481001816542    -3.369151789645    -1.212707283609     1.007825032070
           H          3.709640889577    -1.970129145245    -2.580005399798     1.007825032070
           H         -3.448308446361     2.824181836230     1.945951062457     1.007825032070

  Running in c1 symmetry.

  Rotational constants: A =      0.06347  B =      0.01284  C =      0.01147 [cm^-1]
  Rotational constants: A =   1902.70597  B =    384.98076  C =    343.78152 [MHz]
  Nuclear repulsion =  830.106449105623710

  Charge       = 1
  Multiplicity = 1
  Electrons    = 98
  Nalpha       = 49
  Nbeta        = 49

  ==> Algorithm <==

  SCF Algorithm Type is DF.
  DIIS enabled.
  MOM disabled.
  Fractional occupation disabled.
  Guess Type is READ.
  Energy threshold   = 1.00e-10
  Density threshold  = 1.00e-10
  Integral threshold = 0.00e+00

  ==> Primary Basis <==

  Basis Set: AUG-CC-PVTZ
    Blend: AUG-CC-PVTZ
    Number of shells: 277
    Number of basis function: 851
    Number of Cartesian functions: 995
    Spherical Harmonics?: true
    Max angular momentum: 3

   => Loading Basis Set <=

    Name: (AUG-CC-PVTZ AUX)
    Role: JKFIT
    Keyword: DF_BASIS_SCF
    atoms 1-11  entry C          line   161 file /cbio/jclab/home/chayas/anaconda/envs/py35/share/psi4/basis/aug-cc-pvtz-jkfit.gbs 
    atoms 12    entry N          line   223 file /cbio/jclab/home/chayas/anaconda/envs/py35/share/psi4/basis/aug-cc-pvtz-jkfit.gbs 
    atoms 13    entry O          line   285 file /cbio/jclab/home/chayas/anaconda/envs/py35/share/psi4/basis/aug-cc-pvtz-jkfit.gbs 
    atoms 14    entry F          line   347 file /cbio/jclab/home/chayas/anaconda/envs/py35/share/psi4/basis/aug-cc-pvtz-jkfit.gbs 
    atoms 15-23 entry H          line    69 file /cbio/jclab/home/chayas/anaconda/envs/py35/share/psi4/basis/aug-cc-pvtz-jkfit.gbs 

  Reading orbitals from file 180, no projection.

  ==> Pre-Iterations <==

   -------------------------------------------------------
    Irrep   Nso     Nmo     Nalpha   Nbeta   Ndocc  Nsocc
   -------------------------------------------------------
     A        851     851       0       0       0       0
   -------------------------------------------------------
    Total     851     851      49      49      49       0
   -------------------------------------------------------

  ==> Integral Setup <==

  ==> DFJK: Density-Fitted J/K Matrices <==

    J tasked:                  Yes
    K tasked:                  Yes
    wK tasked:                  No
    OpenMP threads:              8
    Integrals threads:           8
    Memory (MB):              3576
    Algorithm:                Disk
    Integral Cache:           NONE
    Schwarz Cutoff:          1E-12
    Fitting Condition:       1E-12

   => Auxiliary Basis Set <=

  Basis Set: (AUG-CC-PVTZ AUX)
    Blend: AUG-CC-PVTZ-JKFIT
    Number of shells: 546
    Number of basis function: 1870
    Number of Cartesian functions: 2329
    Spherical Harmonics?: true
    Max angular momentum: 4

  Minimum eigenvalue in the overlap matrix is 6.9451100968E-07.
  Using Symmetric Orthogonalization.

  SCF Guess: Orbitals guess was supplied from a previous computation.

  ==> Iterations <==

                           Total Energy        Delta E     RMS |[F,P]|

   @DF-RHF iter   0:  -650.60634555962338   -6.50606e+02   2.41782e-04 
   @DF-RHF iter   1:  -650.55914066446326    4.72049e-02   4.62915e-05 
   @DF-RHF iter   2:  -650.55933265887427   -1.91994e-04   4.62394e-05 DIIS
   @DF-RHF iter   3:  -650.55943935882942   -1.06700e-04   7.87732e-06 DIIS
   @DF-RHF iter   4:  -650.55944502298485   -5.66416e-06   2.72829e-06 DIIS
   @DF-RHF iter   5:  -650.55944643178498   -1.40880e-06   1.27053e-06 DIIS
   @DF-RHF iter   6:  -650.55944669213591   -2.60351e-07   3.43527e-07 DIIS
   @DF-RHF iter   7:  -650.55944676910894   -7.69730e-08   1.72836e-07 DIIS
   @DF-RHF iter   8:  -650.55944679048127   -2.13723e-08   1.05492e-07 DIIS
   @DF-RHF iter   9:  -650.55944679369861   -3.21734e-09   2.36724e-08 DIIS
   @DF-RHF iter  10:  -650.55944679402432   -3.25713e-10   1.46407e-08 DIIS
   @DF-RHF iter  11:  -650.55944679404274   -1.84173e-11   3.58728e-09 DIIS
   @DF-RHF iter  12:  -650.55944679403251    1.02318e-11   1.72434e-09 DIIS
   @DF-RHF iter  13:  -650.55944679403592   -3.41061e-12   7.52135e-10 DIIS
   @DF-RHF iter  14:  -650.55944679405059   -1.46656e-11   2.93752e-10 DIIS
   @DF-RHF iter  15:  -650.55944679404411    6.48015e-12   8.30088e-11 DIIS

  ==> Post-Iterations <==

    Orbital Energies (a.u.)
    -----------------------

    Doubly Occupied:                                                      

       1A    -26.440377     2A    -20.689826     3A    -15.843636  
       4A    -11.490601     5A    -11.488774     6A    -11.463278  
       7A    -11.456615     8A    -11.428298     9A    -11.421853  
      10A    -11.420426    11A    -11.383004    12A    -11.381261  
      13A    -11.355965    14A    -11.353820    15A     -1.760511  
      16A     -1.519627    17A     -1.510695    18A     -1.325591  
      19A     -1.274246    20A     -1.247191    21A     -1.165668  
      22A     -1.152998    23A     -1.073141    24A     -1.064434  
      25A     -0.984951    26A     -0.972830    27A     -0.966019  
      28A     -0.888418    29A     -0.877622    30A     -0.865626  
      31A     -0.840404    32A     -0.827743    33A     -0.822610  
      34A     -0.807631    35A     -0.803103    36A     -0.781841  
      37A     -0.761200    38A     -0.750943    39A     -0.734973  
      40A     -0.717563    41A     -0.714337    42A     -0.670521  
      43A     -0.656203    44A     -0.631079    45A     -0.600300  
      46A     -0.582329    47A     -0.544320    48A     -0.470633  
      49A     -0.458322  

    Virtual:                                                              

      50A     -0.108836    51A     -0.087041    52A     -0.066422  
      53A     -0.064181    54A     -0.058836    55A     -0.051128  
      56A     -0.043823    57A     -0.038585    58A     -0.035410  
      59A     -0.030296    60A     -0.024197    61A     -0.020109  
      62A     -0.013735    63A     -0.009853    64A     -0.006564  
      65A     -0.004828    66A      0.001996    67A      0.005910  
      68A      0.008635    69A      0.011047    70A      0.014635  
      71A      0.017845    72A      0.023546    73A      0.025979  
      74A      0.029979    75A      0.033428    76A      0.034883  
      77A      0.038500    78A      0.041575    79A      0.044866  
      80A      0.047541    81A      0.048754    82A      0.053997  
      83A      0.060038    84A      0.064099    85A      0.068175  
      86A      0.071811    87A      0.074414    88A      0.079889  
      89A      0.082245    90A      0.087121    91A      0.092229  
      92A      0.093552    93A      0.101507    94A      0.105888  
      95A      0.111200    96A      0.116686    97A      0.118141  
      98A      0.122976    99A      0.127737   100A      0.132917  
     101A      0.135010   102A      0.138340   103A      0.142558  
     104A      0.144285   105A      0.148235   106A      0.152606  
     107A      0.157479   108A      0.159388   109A      0.163752  
     110A      0.168419   111A      0.169406   112A      0.172071  
     113A      0.178646   114A      0.182496   115A      0.187334  
     116A      0.194050   117A      0.195558   118A      0.196225  
     119A      0.197474   120A      0.205730   121A      0.206491  
     122A      0.211457   123A      0.214906   124A      0.221388  
     125A      0.222071   126A      0.226992   127A      0.230721  
     128A      0.233959   129A      0.236455   130A      0.240144  
     131A      0.243472   132A      0.251867   133A      0.253130  
     134A      0.255800   135A      0.259065   136A      0.266192  
     137A      0.268816   138A      0.273273   139A      0.277006  
     140A      0.281142   141A      0.282460   142A      0.289597  
     143A      0.292668   144A      0.294793   145A      0.304207  
     146A      0.307855   147A      0.314528   148A      0.317065  
     149A      0.319629   150A      0.322279   151A      0.324151  
     152A      0.328652   153A      0.332847   154A      0.334332  
     155A      0.337027   156A      0.344383   157A      0.345880  
     158A      0.348928   159A      0.351004   160A      0.352854  
     161A      0.360170   162A      0.369785   163A      0.369975  
     164A      0.370830   165A      0.375769   166A      0.380915  
     167A      0.381684   168A      0.384621   169A      0.388893  
     170A      0.392010   171A      0.396002   172A      0.399470  
     173A      0.403881   174A      0.409420   175A      0.412960  
     176A      0.414811   177A      0.416205   178A      0.422212  
     179A      0.426841   180A      0.427972   181A      0.431616  
     182A      0.435401   183A      0.438640   184A      0.447480  
     185A      0.448252   186A      0.453661   187A      0.458559  
     188A      0.468362   189A      0.472514   190A      0.475492  
[...]
	 D(1,8,9,4)       =        -2.567715	    -147.119211
	 D(1,8,11,5)      =        -0.010038	      -0.575153
	 D(1,8,11,14)     =        -3.110868	    -178.239629
	 D(2,1,8,9)       =         3.123450	     178.960520
	 D(2,1,8,11)      =        -0.012137	      -0.695421
	 D(2,10,5,11)     =         0.013863	       0.794315
	 D(2,10,5,19)     =        -3.131175	    -179.403105
	 D(2,10,13,23)    =        -1.306432	     -74.853018
	 D(3,6,12,7)      =         0.000986	       0.056516
	 D(3,6,12,22)     =        -3.137261	    -179.751837
	 D(3,9,4,7)       =        -0.003939	      -0.225669
	 D(3,9,4,18)      =        -3.123468	    -178.961545
	 D(3,9,8,11)      =        -2.590992	    -148.452899
	 D(4,7,12,6)      =        -0.002597	      -0.148770
	 D(4,7,12,22)     =         3.135652	     179.659613
	 D(4,9,3,6)       =         0.002348	       0.134541
	 D(4,9,3,17)      =        -3.106744	    -178.003319
	 D(4,9,8,11)      =         0.567534	      32.517326
	 D(5,10,2,16)     =         3.090449	     177.069688
	 D(5,10,13,23)    =         1.942825	     111.315676
	 D(5,11,8,9)      =         3.137670	     179.775238
	 D(6,3,9,8)       =        -3.123188	    -178.945507
	 D(6,12,7,21)     =         3.131879	     179.443460
	 D(7,4,9,8)       =         3.121228	     178.833167
	 D(7,12,6,20)     =         3.130387	     179.357962
	 D(8,1,2,10)      =         0.034719	       1.989271
	 D(8,1,2,16)      =        -3.090910	    -177.096092
	 D(8,9,3,17)      =         0.050905	       2.916633
	 D(8,9,4,18)      =         0.001698	       0.097291
	 D(8,11,5,10)     =         0.009090	       0.520792
	 D(8,11,5,19)     =        -3.129067	    -179.282331
	 D(9,3,6,12)      =        -0.000895	      -0.051265
	 D(9,3,6,20)      =        -3.129433	    -179.303331
	 D(9,4,7,12)      =         0.004103	       0.235059
	 D(9,4,7,21)      =        -3.129884	    -179.329156
	 D(9,8,1,15)      =         0.048480	       2.777683
	 D(9,8,11,14)     =         0.036840	       2.110761
	 D(10,2,1,15)     =         3.109902	     178.184266
	 D(10,5,11,14)    =         3.110290	     178.206466
	 D(11,5,10,13)    =         3.049040	     174.697113
	 D(11,8,1,15)     =        -3.087108	    -176.878259
	 D(12,6,3,17)     =         3.108913	     178.127603
	 D(12,7,4,18)     =         3.124173	     179.001932
	 D(13,10,2,16)    =         0.058170	       3.332873
	 D(13,10,5,19)    =        -0.095998	      -5.500308
	 D(14,11,5,19)    =        -0.027867	      -1.596657
	 D(15,1,2,16)     =        -0.015727	      -0.901097
	 D(17,3,6,20)     =        -0.019626	      -1.124463
	 D(18,4,7,21)     =        -0.009814	      -0.562282
	 D(20,6,12,22)    =        -0.007861	      -0.450391
	 D(21,7,12,22)    =        -0.013058	      -0.748157
	 R(4,14)          =         5.220547	       2.762594

	Current energy   :      -653.2436609171

	Energy change for the previous step:
		Projected    :        -0.0000005117
		Actual       :         0.0000005893

	Performing BFGS update.
	Previous computed or guess Hessian on step 1.
	Steps to be used in Hessian update: 15 14
	Adding user-defined constraint: Fragment 1; Coordinate 72:
		Value =    -1.306432; Fixed value    =    -1.309000
		Force =    -0.002247; Force constant =     0.875000
	Removing off-diagonal coupling between coordinate 72 and others.
	Taking RFO optimization step.
	Going to follow RFO solution 1.
	Rejecting RFO root 1 because normalization gives large value.
	Rejecting RFO root 2 because normalization gives large value.
	Using RFO vector 3.
	Norm of target step-size    0.00088
	Projected energy change by RFO approximation:        -0.0000000640

	Back-transformation to cartesian coordinates...
	Successfully converged to displaced geometry.

	--- Internal Coordinate Step in ANG or DEG, aJ/ANG or AJ/DEG ---
	 ---------------------------------------------------------------------------
	   Coordinate                Previous        Force       Change         New 
	   ----------                --------       ------       ------       ------
	    1 R(1,2)          =      1.378916     0.000122     0.000006     1.378922
	    2 R(1,8)          =      1.400291     0.000082     0.000004     1.400295
	    3 R(1,15)         =      1.079572    -0.000065    -0.000007     1.079565
	    4 R(2,10)         =      1.392557     0.000132     0.000011     1.392567
	    5 R(2,16)         =      1.078268    -0.000046    -0.000006     1.078262
	    6 R(3,6)          =      1.372570     0.000103     0.000007     1.372577
	    7 R(3,9)          =      1.400017     0.000204     0.000016     1.400033
	    8 R(3,17)         =      1.077610    -0.000091    -0.000008     1.077602
	    9 R(4,7)          =      1.373242     0.000082     0.000007     1.373249
	   10 R(4,9)          =      1.400692     0.000128    -0.000002     1.400690
	   11 R(4,18)         =      1.075804    -0.000118    -0.000003     1.075801
	   12 R(5,10)         =      1.387458     0.000042    -0.000004     1.387454
	   13 R(5,11)         =      1.374938     0.000033     0.000006     1.374944
	   14 R(5,19)         =      1.077724    -0.000033    -0.000004     1.077720
	   15 R(6,12)         =      1.342404     0.000075     0.000002     1.342406
	   16 R(6,20)         =      1.077142    -0.000008    -0.000002     1.077140
	   17 R(7,12)         =      1.342382     0.000074    -0.000005     1.342377
	   18 R(7,21)         =      1.077173    -0.000007    -0.000002     1.077171
	   19 R(8,9)          =      1.448110     0.000075     0.000019     1.448129
	   20 R(8,11)         =      1.394028     0.000117    -0.000004     1.394024
	   21 R(10,13)        =      1.361570     0.000007     0.000001     1.361570
	   22 R(11,14)        =      1.343869     0.000065    -0.000009     1.343861
	   23 R(12,22)        =      1.012192    -0.000013    -0.000000     1.012192
	   24 R(13,23)        =      0.963032     0.000070    -0.000000     0.963031
	   25 B(1,2,10)       =    119.814238     0.000000     0.001988   119.816226
	   26 B(1,2,16)       =    120.774206    -0.000000    -0.001737   120.772470
	   27 B(1,8,9)        =    120.704653     0.000001    -0.001810   120.702843
	   28 B(1,8,11)       =    116.888539    -0.000000    -0.001982   116.886557
	   29 B(2,1,8)        =    121.455299    -0.000000     0.000863   121.456162
	   30 B(2,1,15)       =    119.055120     0.000001     0.000181   119.055301
	   31 B(2,10,5)       =    120.044814    -0.000000    -0.004649   120.040165
	   32 B(2,10,13)      =    121.169480     0.000001     0.002613   121.172093
	   33 B(3,6,12)       =    119.281159     0.000001     0.000982   119.282142
	   34 B(3,6,20)       =    123.693006     0.000000    -0.000158   123.692848
	   35 B(3,9,4)        =    117.169128    -0.000001    -0.003407   117.165721
	   36 B(3,9,8)        =    120.342928     0.000001     0.000231   120.343159
	   37 B(4,7,12)       =    119.574426     0.000001     0.000673   119.575099
	   38 B(4,7,21)       =    123.476358     0.000000    -0.000565   123.475792
	   39 B(4,9,8)        =    122.481221    -0.000000     0.003201   122.484423
	   40 B(5,10,13)      =    118.497093    -0.000000     0.002189   118.499282
	   41 B(5,11,8)       =    122.771437     0.000000    -0.000008   122.771428
	   42 B(5,11,14)      =    118.115529     0.000000    -0.001716   118.113814
	   43 B(6,3,9)        =    120.851734     0.000000     0.001386   120.853119
	   44 B(6,3,17)       =    118.437279     0.000001    -0.001397   118.435882
	   45 B(6,12,7)       =    122.609148    -0.000001    -0.001933   122.607215
	   46 B(6,12,22)      =    118.703685     0.000000     0.000826   118.704511
	   47 B(7,4,9)        =    120.513979     0.000001     0.002287   120.516266
	   48 B(7,4,18)       =    118.492587     0.000001     0.000363   118.492950
	   49 B(7,12,22)      =    118.686897     0.000001     0.001104   118.688001
	   50 B(8,1,15)       =    119.381441    -0.000001    -0.002077   119.379364
	   51 B(8,11,14)      =    119.073370    -0.000001     0.002210   119.075580
	   52 B(9,3,17)       =    120.685580    -0.000001    -0.000011   120.685569
	   53 B(9,4,18)       =    120.981715    -0.000001    -0.002635   120.979080
	   54 B(9,8,11)       =    122.405869    -0.000000     0.003834   122.409703
	   55 B(10,2,16)      =    119.405309    -0.000000    -0.000121   119.405188
	   56 B(10,5,11)      =    118.993067     0.000000     0.003610   118.996677
	   57 B(10,5,19)      =    120.637409    -0.000000    -0.000288   120.637122
	   58 B(10,13,23)     =    110.692589    -0.000001    -0.001343   110.691246
	   59 B(11,5,19)      =    120.369227     0.000000    -0.003330   120.365897
	   60 B(12,6,20)      =    117.021857    -0.000001    -0.000798   117.021059
	   61 B(12,7,21)      =    116.947868    -0.000001    -0.000091   116.947777
	   62 D(1,2,10,5)     =     -2.028252    -0.000000    -0.004566    -2.032817
	   63 D(1,2,10,13)    =   -175.765067     0.000000    -0.006355  -175.771421
	   64 D(1,8,9,3)      =     31.910563     0.000000    -0.003561    31.907002
	   65 D(1,8,9,4)      =   -147.119211     0.000000    -0.005304  -147.124516
	   66 D(1,8,11,5)     =     -0.575153    -0.000000     0.010310    -0.564843
	   67 D(1,8,11,14)    =   -178.239629    -0.000000    -0.003985  -178.243614
	   68 D(2,1,8,9)      =    178.960520    -0.000000    -0.006245   178.954275
	   69 D(2,1,8,11)     =     -0.695421    -0.000000    -0.014078    -0.709500
	   70 D(2,10,5,11)    =      0.794315     0.000000     0.000736     0.795051
	   71 D(2,10,5,19)    =   -179.403105     0.000000    -0.001803  -179.404908
	   72 D(2,10,13,23)   =    -74.853018    -0.000002    -0.006317   -74.859335
	   73 D(3,6,12,7)     =      0.056516    -0.000000    -0.003206     0.053310
	   74 D(3,6,12,22)    =   -179.751837    -0.000000    -0.002347  -179.754184
	   75 D(3,9,4,7)      =     -0.225669    -0.000000    -0.004500    -0.230169
	   76 D(3,9,4,18)     =   -178.961545    -0.000000    -0.005325  -178.966870
	   77 D(3,9,8,11)     =   -148.452899     0.000000     0.004692  -148.448207
	   78 D(4,7,12,6)     =     -0.148770    -0.000000     0.000156    -0.148614
	   79 D(4,7,12,22)    =    179.659613    -0.000000    -0.000703   179.658910
	   80 D(4,9,3,6)      =      0.134541    -0.000000     0.001460     0.136001
	   81 D(4,9,3,17)     =   -178.003319    -0.000000     0.002289  -178.001030
	   82 D(4,9,8,11)     =     32.517326     0.000000     0.002949    32.520275
	   83 D(5,10,2,16)    =    177.069688    -0.000000     0.004938   177.074626
	   84 D(5,10,13,23)   =    111.315676    -0.000002    -0.007660   111.308016
	   85 D(5,11,8,9)     =    179.775238    -0.000000     0.002354   179.777592
	   86 D(6,3,9,8)      =   -178.945507     0.000000    -0.000254  -178.945761
	   87 D(6,12,7,21)    =    179.443460     0.000000     0.002611   179.446070
	   88 D(7,4,9,8)      =    178.833167    -0.000000    -0.002779   178.830388
	   89 D(7,12,6,20)    =    179.357962    -0.000000    -0.000883   179.357079
	   90 D(8,1,2,10)     =      1.989271     0.000000     0.011620     2.000891
	   91 D(8,1,2,16)     =   -177.096092     0.000000     0.001969  -177.094123
	   92 D(8,9,3,17)     =      2.916633     0.000000     0.000575     2.917208
	   93 D(8,9,4,18)     =      0.097291    -0.000000    -0.003604     0.093687
	   94 D(8,11,5,10)    =      0.520792    -0.000000    -0.003874     0.516918
	   95 D(8,11,5,19)    =   -179.282331    -0.000000    -0.001348  -179.283680
	   96 D(9,3,6,12)     =     -0.051265     0.000000     0.002304    -0.048962
	   97 D(9,3,6,20)     =   -179.303331     0.000000    -0.000180  -179.303511
	   98 D(9,4,7,12)     =      0.235059     0.000000     0.003808     0.238867
	   99 D(9,4,7,21)     =   -179.329156     0.000000     0.001183  -179.327973
	  100 D(9,8,1,15)     =      2.777683     0.000000     0.011918     2.789601
	  101 D(9,8,11,14)    =      2.110761    -0.000000    -0.011941     2.098820
	  102 D(10,2,1,15)    =    178.184266     0.000000    -0.006569   178.177697
	  103 D(10,5,11,14)   =    178.206466    -0.000000     0.010377   178.216843
	  104 D(11,5,10,13)   =    174.697113    -0.000000     0.002519   174.699632
	  105 D(11,8,1,15)    =   -176.878259     0.000000     0.004084  -176.874174
	  106 D(12,6,3,17)    =    178.127603     0.000000     0.001517   178.129120
	  107 D(12,7,4,18)    =    179.001932     0.000000     0.004575   179.006507
	  108 D(13,10,2,16)   =      3.332873     0.000000     0.003149     3.336022
	  109 D(13,10,5,19)   =     -5.500308    -0.000000    -0.000020    -5.500327
	  110 D(14,11,5,19)   =     -1.596657    -0.000000     0.012903    -1.583754
	  111 D(15,1,2,16)    =     -0.901097     0.000000    -0.016221    -0.917318
	  112 D(17,3,6,20)    =     -1.124463     0.000000    -0.000967    -1.125430
	  113 D(18,4,7,21)    =     -0.562282     0.000000     0.001949    -0.560333
	  114 D(20,6,12,22)   =     -0.450391    -0.000000    -0.000024    -0.450415
	  115 D(21,7,12,22)   =     -0.748157     0.000000     0.001751    -0.746406
	  116 R(4,14)         =      2.762594    -0.000075     0.000221     2.762816
	 ---------------------------------------------------------------------------
	Successfully symmetrized geometry.
	 Forces used to impose fixed constraints are not included.
	  Forces zeroed: 72 

  ==> Convergence Check <==

  Measures of convergence in internal coordinates in au.
  Criteria marked as inactive (o), active & met (*), and active & unmet ( ).
  ---------------------------------------------------------------------------------------------
   Step     Total Energy     Delta E     MAX Force     RMS Force      MAX Disp      RMS Disp   
  ---------------------------------------------------------------------------------------------
    Convergence Criteria    1.00e-06 *    3.00e-04 *             o    1.20e-03 *             o
  ---------------------------------------------------------------------------------------------
     16    -653.24366092    5.89e-07 *    8.80e-05 *    1.23e-05 o    4.18e-04 *    8.21e-05 o  ~
  ---------------------------------------------------------------------------------------------


  **** Optimization is complete! (in 16 steps) ****

  ==> Optimization Summary <==

  Measures of convergence in internal coordinates in au.
  --------------------------------------------------------------------------------------------------------------- ~
   Step         Total Energy             Delta E       MAX Force       RMS Force        MAX Disp        RMS Disp  ~
  --------------------------------------------------------------------------------------------------------------- ~
      1    -653.236496528398   -653.236496528398      0.01478253      0.00391136      0.02461915      0.00927778  ~
      2    -653.239124506362     -0.002627977964      0.00406489      0.00133309      0.03597377      0.00926099  ~
      3    -653.240023368698     -0.000898862337      0.00259782      0.00066239      0.04282159      0.00925519  ~
      4    -653.240634543718     -0.000611175019      0.00251307      0.00054034      0.04523416      0.00924633  ~
      5    -653.241181689312     -0.000547145594      0.00241146      0.00050529      0.04579101      0.00923781  ~
      6    -653.241690281520     -0.000508592208      0.00224396      0.00048001      0.04549135      0.00923199  ~
      7    -653.242160834247     -0.000470552727      0.00211453      0.00043974      0.04511886      0.00922803  ~
      8    -653.242583541793     -0.000422707546      0.00199347      0.00039044      0.04772056      0.00922558  ~
      9    -653.242948920498     -0.000365378706      0.00175719      0.00033472      0.04940582      0.00922382  ~
     10    -653.243247917951     -0.000298997453      0.00140520      0.00027338      0.04993015      0.00922324  ~
     11    -653.243471862556     -0.000223944605      0.00093405      0.00021090      0.04792728      0.00922293  ~
     12    -653.243613120143     -0.000141257587      0.00078008      0.00015350      0.04474283      0.00922567  ~
     13    -653.243666703307     -0.000053583164      0.00078845      0.00012921      0.00548781      0.00103389  ~
     14    -653.243662516401      0.000004186906      0.00023838      0.00003325      0.00195820      0.00036019  ~
     15    -653.243661506436      0.000001009965      0.00015318      0.00001984      0.00125277      0.00023656  ~
     16    -653.243660917131      0.000000589305      0.00012999      0.00001721      0.00041816      0.00008210  ~
  --------------------------------------------------------------------------------------------------------------- ~

	Writing optimization data to binary file.
	Final energy is   -653.2436609171313
	Final (previous) structure:
	Cartesian Geometry (in Angstrom)
	    C    -1.1469070089   1.0474672335  -0.7216868027
	    C    -2.2265547838   1.6188153567  -0.0818967793
	    C     1.4802580280   0.2633833594  -1.7996207551
	    C     1.3520838146  -1.6702778114  -0.4005628333
	    C    -1.5590392116   0.5648519399   1.9778531413
	    C     2.5247597016  -0.3135633894  -2.4779246797
	    C     2.3976823244  -2.2198551702  -1.1009070448
	    C    -0.2564994690   0.2064450455  -0.0429585961
	    C     0.8593677821  -0.4028102100  -0.7362632734
	    C    -2.4233381302   1.3947496279   1.2783550052
	    C    -0.5046268396  -0.0131837913   1.3111126185
	    N     2.9524546774  -1.5320976166  -2.1114552212
	    O    -3.5248238742   1.8739884235   1.9193941661
	    F     0.3426048095  -0.7843728351   2.0135729588
	    H    -1.0224999280   1.2050085573  -1.7824316673
	    H    -2.9314342468   2.2272172688  -0.6256371441
	    H     1.1679414037   1.2544365997  -2.0851280309
	    H     0.9099325181  -2.2433562004   0.3953251357
	    H    -1.7079813128   0.3771946604   3.0286098029
	    H     3.0420883484   0.1615429685  -3.2945516748
	    H     2.8069443287  -3.1938120419  -0.8906363649
	    H     3.7257809057  -1.9477196125  -2.6151995256
	    H    -3.4500167432   2.8236473182   2.0607512000
	Saving final (previous) structure.
			--------------------------
			 OPTKING Finished Execution 
			--------------------------

    Final optimized geometry and variables:
    Molecular point group: c1
    Full point group: C1

    Geometry (in Angstrom), charge = 1, multiplicity = 1:

    C           -1.146907008950     1.047467233455    -0.721686802748
    C           -2.226554783829     1.618815356701    -0.081896779282
    C            1.480258028011     0.263383359434    -1.799620755147
    C            1.352083814592    -1.670277811434    -0.400562833295
    C           -1.559039211593     0.564851939920     1.977853141264
    C            2.524759701639    -0.313563389442    -2.477924679745
    C            2.397682324429    -2.219855170181    -1.100907044820
    C           -0.256499468986     0.206445045547    -0.042958596071
    C            0.859367782101    -0.402810210046    -0.736263273431
    C           -2.423338130186     1.394749627941     1.278355005185
    C           -0.504626839613    -0.013183791335     1.311112618527
    N            2.952454677364    -1.532097616561    -2.111455221227
    O           -3.524823874247     1.873988423480     1.919394166116
    F            0.342604809527    -0.784372835081     2.013572958751
    H           -1.022499927992     1.205008557333    -1.782431667306
    H           -2.931434246808     2.227217268774    -0.625637144099
    H            1.167941403659     1.254436599687    -2.085128030901
    H            0.909932518148    -2.243356200363     0.395325135714
    H           -1.707981312789     0.377194660424     3.028609802865
    H            3.042088348449     0.161542968532    -3.294551674803
    H            2.806944328666    -3.193812041862    -0.890636364886
    H            3.725780905737    -1.947719612526    -2.615199525562
    H           -3.450016743151     2.823647318218     2.060751199989

	Cleaning optimization helper files.

*** Psi4 exiting successfully. Buy a developer a beer!
