
    -----------------------------------------------------------------------
          Psi4: An Open-Source Ab Initio Electronic Structure Package
                               Psi4 1.1 release

                         Git: Rev {HEAD} add49b9 


    R. M. Parrish, L. A. Burns, D. G. A. Smith, A. C. Simmonett,
    A. E. DePrince III, E. G. Hohenstein, U. Bozkaya, A. Yu. Sokolov,
    R. Di Remigio, R. M. Richard, J. F. Gonthier, A. M. James,
    H. R. McAlexander, A. Kumar, M. Saitow, X. Wang, B. P. Pritchard,
    P. Verma, H. F. Schaefer III, K. Patkowski, R. A. King, E. F. Valeev,
    F. A. Evangelista, J. M. Turney, T. D. Crawford, and C. D. Sherrill,
    J. Chem. Theory Comput. in press (2017).
    (doi: 10.1021/acs.jctc.7b00174)

    -----------------------------------------------------------------------


    Psi4 started on: Sunday, 12 November 2017 05:07AM

    Process ID:  28921
    PSIDATADIR: /cbio/jclab/home/chayas/anaconda/envs/py35/share/psi4
    Memory:     500.0 MiB
    Threads:    8
    
  ==> Input File <==

--------------------------------------------------------------------------

memory 5 Gb

molecule phepyrOH_anion {
  symmetry C1
  -1 1 
  C      1.885   -1.036   -0.112
  C      2.878   -1.652   2.002
  C      0.807   -0.463   0.561
  C      1.800   -1.079   2.676
  C      3.952   -2.489   -1.452
  C      5.208   -2.535   0.599
  C      5.052   -3.058   -2.075
  C      6.251   -3.102   -0.116
  C      2.921   -1.631   0.608
  C      4.040   -2.226   -0.090
  C      0.764   -0.484   1.955
  N      6.203   -3.373   -1.439
  O      -0.227   0.042   2.574
  H      1.904   -1.011   -1.199
  H      3.678   -2.112   2.577
  H      0.011   -0.006   -0.025
  H      1.791   -1.108   3.764
  H      3.058   -2.261   -2.024
  H      5.312   -2.344   1.662
  H      5.035   -3.282   -3.137
  H      7.182   -3.362   0.375
  units Angstrom
}

dih_string = "1 9 10 5 345"
set optking fixed_dihedral = $dih_string

optimize('MP2/aug-cc-PVTZ')
--------------------------------------------------------------------------

  Memory set to   4.657 GiB by Python driver.
gradient() will perform analytic gradient computation.

*** tstart() called on gpu-2-10.local
*** at Sun Nov 12 05:07:46 2017

    SCF Algorithm Type (re)set to DF.

*** tstart() called on gpu-2-10.local
*** at Sun Nov 12 05:07:46 2017

   => Loading Basis Set <=

    Name: AUG-CC-PVTZ
    Role: ORBITAL
    Keyword: BASIS
    atoms 1-11  entry C          line   221 file /cbio/jclab/home/chayas/anaconda/envs/py35/share/psi4/basis/aug-cc-pvtz.gbs 
    atoms 12    entry N          line   267 file /cbio/jclab/home/chayas/anaconda/envs/py35/share/psi4/basis/aug-cc-pvtz.gbs 
    atoms 13    entry O          line   313 file /cbio/jclab/home/chayas/anaconda/envs/py35/share/psi4/basis/aug-cc-pvtz.gbs 
    atoms 14-21 entry H          line    34 file /cbio/jclab/home/chayas/anaconda/envs/py35/share/psi4/basis/aug-cc-pvtz.gbs 


         ---------------------------------------------------------
                                   SCF
            by Justin Turney, Rob Parrish, and Andy Simmonett
                              RHF Reference
                        8 Threads,   4768 MiB Core
         ---------------------------------------------------------

  ==> Geometry <==

    Molecular point group: c1
    Full point group: C1

    Geometry (in Angstrom), charge = -1, multiplicity = 1:

       Center              X                  Y                   Z               Mass       
    ------------   -----------------  -----------------  -----------------  -----------------
           C         -1.279261043350     0.723536190130    -0.568902346029    12.000000000000
           C         -0.286261043350     0.107536190130     1.545097653971    12.000000000000
           C         -2.357261043350     1.296536190130     0.104097653971    12.000000000000
           C         -1.364261043350     0.680536190130     2.219097653971    12.000000000000
           C          0.787738956650    -0.729463809870    -1.908902346029    12.000000000000
           C          2.043738956650    -0.775463809870     0.142097653971    12.000000000000
           C          1.887738956650    -1.298463809870    -2.531902346029    12.000000000000
           C          3.086738956650    -1.342463809870    -0.572902346029    12.000000000000
           C         -0.243261043350     0.128536190130     0.151097653971    12.000000000000
           C          0.875738956650    -0.466463809870    -0.546902346029    12.000000000000
           C         -2.400261043350     1.275536190130     1.498097653971    12.000000000000
           N          3.038738956650    -1.613463809870    -1.895902346029    14.003074004780
           O         -3.391261043350     1.801536190130     2.117097653971    15.994914619560
           H         -1.260261043350     0.748536190130    -1.655902346029     1.007825032070
           H          0.513738956650    -0.352463809870     2.120097653971     1.007825032070
           H         -3.153261043350     1.753536190130    -0.481902346029     1.007825032070
           H         -1.373261043350     0.651536190130     3.307097653971     1.007825032070
           H         -0.106261043350    -0.501463809870    -2.480902346029     1.007825032070
           H          2.147738956650    -0.584463809870     1.205097653971     1.007825032070
           H          1.870738956650    -1.522463809870    -3.593902346029     1.007825032070
           H          4.017738956650    -1.602463809870    -0.081902346029     1.007825032070

  Running in c1 symmetry.

  Rotational constants: A =      0.09733  B =      0.01403  C =      0.01232 [cm^-1]
  Rotational constants: A =   2917.95544  B =    420.69000  C =    369.27051 [MHz]
  Nuclear repulsion =  687.391173235212136

  Charge       = -1
  Multiplicity = 1
  Electrons    = 90
  Nalpha       = 45
  Nbeta        = 45

  ==> Algorithm <==

  SCF Algorithm Type is DF.
  DIIS enabled.
  MOM disabled.
  Fractional occupation disabled.
  Guess Type is SAD.
  Energy threshold   = 1.00e-10
  Density threshold  = 1.00e-10
  Integral threshold = 0.00e+00

  ==> Primary Basis <==

  Basis Set: AUG-CC-PVTZ
    Blend: AUG-CC-PVTZ
    Number of shells: 254
    Number of basis function: 782
    Number of Cartesian functions: 915
    Spherical Harmonics?: true
    Max angular momentum: 3

   => Loading Basis Set <=

    Name: (AUG-CC-PVTZ AUX)
    Role: JKFIT
    Keyword: DF_BASIS_SCF
    atoms 1-11  entry C          line   161 file /cbio/jclab/home/chayas/anaconda/envs/py35/share/psi4/basis/aug-cc-pvtz-jkfit.gbs 
    atoms 12    entry N          line   223 file /cbio/jclab/home/chayas/anaconda/envs/py35/share/psi4/basis/aug-cc-pvtz-jkfit.gbs 
    atoms 13    entry O          line   285 file /cbio/jclab/home/chayas/anaconda/envs/py35/share/psi4/basis/aug-cc-pvtz-jkfit.gbs 
    atoms 14-21 entry H          line    69 file /cbio/jclab/home/chayas/anaconda/envs/py35/share/psi4/basis/aug-cc-pvtz-jkfit.gbs 

  ==> Pre-Iterations <==

   -------------------------------------------------------
    Irrep   Nso     Nmo     Nalpha   Nbeta   Ndocc  Nsocc
   -------------------------------------------------------
     A        782     782       0       0       0       0
   -------------------------------------------------------
    Total     782     782      45      45      45       0
   -------------------------------------------------------

  ==> Integral Setup <==

  ==> DFJK: Density-Fitted J/K Matrices <==

    J tasked:                  Yes
    K tasked:                  Yes
    wK tasked:                  No
    OpenMP threads:              8
    Integrals threads:           8
    Memory (MB):              3576
    Algorithm:                Disk
    Integral Cache:           NONE
    Schwarz Cutoff:          1E-12
    Fitting Condition:       1E-12

   => Auxiliary Basis Set <=

  Basis Set: (AUG-CC-PVTZ AUX)
    Blend: AUG-CC-PVTZ-JKFIT
    Number of shells: 502
    Number of basis function: 1720
    Number of Cartesian functions: 2143
    Spherical Harmonics?: true
    Max angular momentum: 4

  Minimum eigenvalue in the overlap matrix is 6.3212106198E-07.
  Using Symmetric Orthogonalization.

  SCF Guess: Superposition of Atomic Densities via on-the-fly atomic UHF.

  ==> Iterations <==

                           Total Energy        Delta E     RMS |[F,P]|

   @DF-RHF iter   0:  -563.23236389283511   -5.63232e+02   2.50581e-02 
   @DF-RHF iter   1:  -550.24996328705004    1.29824e+01   2.00446e-03 
   @DF-RHF iter   2:  -550.55424435094085   -3.04281e-01   1.37753e-03 DIIS
   @DF-RHF iter   3:  -550.68979781668247   -1.35553e-01   3.87437e-04 DIIS
   @DF-RHF iter   4:  -550.70961608403570   -1.98183e-02   1.72032e-04 DIIS
   @DF-RHF iter   5:  -550.71318462569559   -3.56854e-03   5.43034e-05 DIIS
   @DF-RHF iter   6:  -550.71367982945014   -4.95204e-04   2.72938e-05 DIIS
   @DF-RHF iter   7:  -550.71377167930473   -9.18499e-05   7.61479e-06 DIIS
   @DF-RHF iter   8:  -550.71378851470945   -1.68354e-05   3.59913e-06 DIIS
   @DF-RHF iter   9:  -550.71379541518581   -6.90048e-06   1.87594e-06 DIIS
   @DF-RHF iter  10:  -550.71379670612976   -1.29094e-06   1.03177e-06 DIIS
   @DF-RHF iter  11:  -550.71379692761263   -2.21483e-07   3.03567e-07 DIIS
   @DF-RHF iter  12:  -550.71379694995869   -2.23461e-08   1.26609e-07 DIIS
   @DF-RHF iter  13:  -550.71379695431449   -4.35580e-09   5.92039e-08 DIIS
   @DF-RHF iter  14:  -550.71379695547444   -1.15995e-09   2.24310e-08 DIIS
   @DF-RHF iter  15:  -550.71379695561393   -1.39494e-10   9.71294e-09 DIIS
   @DF-RHF iter  16:  -550.71379695562700   -1.30740e-11   3.96953e-09 DIIS
   @DF-RHF iter  17:  -550.71379695562950   -2.50111e-12   1.32003e-09 DIIS
   @DF-RHF iter  18:  -550.71379695563996   -1.04592e-11   5.51008e-10 DIIS
   @DF-RHF iter  19:  -550.71379695564542   -5.45697e-12   2.57307e-10 DIIS
   @DF-RHF iter  20:  -550.71379695563940    6.02540e-12   1.16153e-10 DIIS
   @DF-RHF iter  21:  -550.71379695564576   -6.36646e-12   5.84769e-11 DIIS

  ==> Post-Iterations <==

    Orbital Energies (a.u.)
    -----------------------

    Doubly Occupied:                                                      

       1A    -20.302106     2A    -15.443765     3A    -11.165110  
       4A    -11.164760     5A    -11.142524     6A    -11.119480  
       7A    -11.114831     8A    -11.114744     9A    -11.102239  
      10A    -11.102209    11A    -11.076153    12A    -11.063898  
      13A    -11.063859    14A     -1.134824    15A     -1.132826  
      16A     -1.020360    17A     -0.956963    18A     -0.921043  
      19A     -0.870595    20A     -0.838459    21A     -0.747571  
      22A     -0.731865    23A     -0.679849    24A     -0.649102  
      25A     -0.599237    26A     -0.548471    27A     -0.545674  
      28A     -0.499350    29A     -0.492372    30A     -0.481552  
      31A     -0.481145    32A     -0.442459    33A     -0.431409  
      34A     -0.409283    35A     -0.408015    36A     -0.382759  
      37A     -0.355125    38A     -0.353215    39A     -0.316418  
      40A     -0.304078    41A     -0.242873    42A     -0.240888  
      43A     -0.218719    44A     -0.200563    45A     -0.106541  

    Virtual:                                                              

      46A      0.099126    47A      0.099808    48A      0.116324  
      49A      0.116450    50A      0.128328    51A      0.129903  
      52A      0.135347    53A      0.139195    54A      0.164135  
      55A      0.165960    56A      0.176844    57A      0.183868  
      58A      0.185584    59A      0.188655    60A      0.191127  
      61A      0.196146    62A      0.200211    63A      0.206522  
      64A      0.209188    65A      0.212850    66A      0.214664  
      67A      0.217646    68A      0.219358    69A      0.229397  
      70A      0.230331    71A      0.234468    72A      0.238552  
      73A      0.239868    74A      0.240671    75A      0.248724  
      76A      0.250093    77A      0.254498    78A      0.264051  
      79A      0.265268    80A      0.269097    81A      0.271531  
      82A      0.279188    83A      0.283839    84A      0.290366  
      85A      0.293663    86A      0.301215    87A      0.311522  
      88A      0.315251    89A      0.316668    90A      0.323061  
      91A      0.328764    92A      0.329988    93A      0.332061  
      94A      0.335144    95A      0.342361    96A      0.344940  
      97A      0.349163    98A      0.357613    99A      0.364385  
     100A      0.365386   101A      0.376224   102A      0.382666  
     103A      0.384470   104A      0.384903   105A      0.389549  
     106A      0.391163   107A      0.400841   108A      0.402460  
     109A      0.404937   110A      0.416288   111A      0.416923  
     112A      0.423946   113A      0.428149   114A      0.428967  
     115A      0.432080   116A      0.436493   117A      0.442122  
     118A      0.443969   119A      0.457702   120A      0.461060  
     121A      0.462166   122A      0.477541   123A      0.478515  
     124A      0.482081   125A      0.490200   126A      0.496560  
     127A      0.500069   128A      0.502305   129A      0.518963  
     130A      0.521627   131A      0.522061   132A      0.522386  
     133A      0.530514   134A      0.540489   135A      0.541782  
     136A      0.542580   137A      0.554736   138A      0.560773  
     139A      0.561144   140A      0.562027   141A      0.568029  
     142A      0.573006   143A      0.575861   144A      0.577753  
     145A      0.578569   146A      0.590042   147A      0.594262  
     148A      0.596412   149A      0.598635   150A      0.599682  
     151A      0.606106   152A      0.607039   153A      0.611351  
     154A      0.615044   155A      0.615946   156A      0.617184  
     157A      0.624621   158A      0.628724   159A      0.634487  
     160A      0.637065   161A      0.639713   162A      0.644229  
     163A      0.651064   164A      0.652790   165A      0.660960  
     166A      0.662501   167A      0.671056   168A      0.671216  
     169A      0.675200   170A      0.680620   171A      0.693378  
     172A      0.694778   173A      0.699649   174A      0.703520  
     175A      0.716497   176A      0.716534   177A      0.723309  
     178A      0.724546   179A      0.733624   180A      0.738421  
     181A      0.742351   182A      0.755140   183A      0.762738  
     184A      0.763297   185A      0.773061   186A      0.778893  
     187A      0.789674   188A      0.795144   189A      0.807740  
     190A      0.811166   191A      0.813010   192A      0.815021  
     193A      0.818201   194A      0.824233   195A      0.826992  
     196A      0.827294   197A      0.836394   198A      0.838797  
     199A      0.848304   200A      0.858251   201A      0.866152  
     202A      0.866854   203A      0.873446   204A      0.878541  
     205A      0.882264   206A      0.886271   207A      0.901660  
     208A      0.906805   209A      0.914298   210A      0.918417  
     211A      0.920685   212A      0.934123   213A      0.936528  
     214A      0.954196   215A      0.956598   216A      0.962661  
     217A      0.965357   218A      0.976412   219A      0.985580  
     220A      0.990066   221A      0.992763   222A      1.001171  
     223A      1.001695   224A      1.006158   225A      1.009387  
     226A      1.010040   227A      1.013153   228A      1.022496  
     229A      1.024176   230A      1.034363   231A      1.035528  
     232A      1.037463   233A      1.046975   234A      1.048326  
     235A      1.059969   236A      1.060502   237A      1.061248  
     238A      1.064758   239A      1.069952   240A      1.078001  
     241A      1.087491   242A      1.090200   243A      1.094473  
     244A      1.103970   245A      1.106446   246A      1.109259  
     247A      1.111560   248A      1.116647   249A      1.119507  
     250A      1.122514   251A      1.126102   252A      1.129754  
     253A      1.132455   254A      1.137540   255A      1.139566  
     256A      1.144739   257A      1.145551   258A      1.147427  
     259A      1.162605   260A      1.162939   261A      1.162997  
     262A      1.169730   263A      1.171607   264A      1.175110  
     265A      1.189316   266A      1.192927   267A      1.195500  
     268A      1.204125   269A      1.212831   270A      1.220563  
     271A      1.226547   272A      1.231363   273A      1.240628  
     274A      1.243078   275A      1.246416   276A      1.255293  
     277A      1.261435   278A      1.261565   279A      1.269913  
     280A      1.274054   281A      1.278327   282A      1.280547  
     283A      1.292552   284A      1.295539   285A      1.299552  
     286A      1.301647   287A      1.309805   288A      1.316368  
     289A      1.316920   290A      1.322028   291A      1.325129  
     292A      1.325438   293A      1.330567   294A      1.339480  
     295A      1.346808   296A      1.349535   297A      1.351665  
     298A      1.354035   299A      1.359535   300A      1.373664  
     301A      1.373841   302A      1.380124   303A      1.386405  
     304A      1.398335   305A      1.399383   306A      1.407130  
     307A      1.411838   308A      1.427173   309A      1.431453  
     310A      1.436581   311A      1.438707   312A      1.443176  
     313A      1.454321   314A      1.466803   315A      1.471984  
     316A      1.479210   317A      1.483618   318A      1.484221  
     319A      1.498529   320A      1.510112   321A      1.514720  
     322A      1.523414   323A      1.525334   324A      1.531151  
     325A      1.549992   326A      1.551216   327A      1.560350  
     328A      1.568189   329A      1.581476   330A      1.591473  
     331A      1.600325   332A      1.609877   333A      1.619680  
     334A      1.622492   335A      1.633052   336A      1.637506  
     337A      1.644095   338A      1.652262   339A      1.656392  
     340A      1.673803   341A      1.688797   342A      1.689387  
     343A      1.704852   344A      1.711795   345A      1.720919  
     346A      1.739078   347A      1.749446   348A      1.752177  
     349A      1.765725   350A      1.769368   351A      1.778940  
     352A      1.787766   353A      1.788194   354A      1.801927  
     355A      1.802902   356A      1.807198   357A      1.820098  
     358A      1.830102   359A      1.831865   360A      1.839071  
     361A      1.839951   362A      1.845304   363A      1.850339  
     364A      1.869736   365A      1.871879   366A      1.877234  
     367A      1.896257   368A      1.901838   369A      1.919682  
     370A      1.933463   371A      1.938550   372A      1.946534  
     373A      1.948365   374A      1.948648   375A      1.965598  
     376A      1.966266   377A      1.983494   378A      1.985698  
     379A      1.998533   380A      2.008397   381A      2.015925  
     382A      2.024526   383A      2.031169   384A      2.037765  
     385A      2.046802   386A      2.060951   387A      2.066708  
     388A      2.076879   389A      2.082110   390A      2.095876  
     391A      2.099242   392A      2.103542   393A      2.116082  
     394A      2.116446   395A      2.120238   396A      2.133356  
     397A      2.140088   398A      2.142971   399A      2.148853  
     400A      2.162598   401A      2.162915   402A      2.172950  
     403A      2.174428   404A      2.179083   405A      2.181604  
     406A      2.192725   407A      2.194914   408A      2.202825  
     409A      2.215625   410A      2.222394   411A      2.232147  
     412A      2.235137   413A      2.248565   414A      2.250226  
     415A      2.263247   416A      2.263974   417A      2.285234  
     418A      2.297662   419A      2.304075   420A      2.311184  
     421A      2.313508   422A      2.319271   423A      2.324409  
     424A      2.326526   425A      2.330873   426A      2.348885  
     427A      2.354239   428A      2.380761   429A      2.384829  
     430A      2.391021   431A      2.403637   432A      2.418328  
     433A      2.419491   434A      2.430370   435A      2.443789  
     436A      2.444441   437A      2.456151   438A      2.473379  
     439A      2.490300   440A      2.492759   441A      2.506306  
     442A      2.509317   443A      2.516681   444A      2.534067  
     445A      2.557766   446A      2.563663   447A      2.564746  
     448A      2.571526   449A      2.580270   450A      2.588123  
     451A      2.588402   452A      2.615360   453A      2.625960  
     454A      2.628221   455A      2.646769   456A      2.655741  
     457A      2.665054   458A      2.680958   459A      2.683278  
     460A      2.707806   461A      2.714045   462A      2.726248  
     463A      2.740115   464A      2.740658   465A      2.760026  
     466A      2.774025   467A      2.790664   468A      2.818930  
     469A      2.839521   470A      2.855066   471A      2.858301  
     472A      2.869988   473A      2.896887   474A      2.910998  
     475A      2.926495   476A      2.933472   477A      2.949452  
     478A      2.961339   479A      2.962955   480A      2.981964  
     481A      3.008083   482A      3.022805   483A      3.046130  
     484A      3.056892   485A      3.110188   486A      3.120905  
     487A      3.143889   488A      3.157378   489A      3.174267  
     490A      3.188023   491A      3.209839   492A      3.213246  
     493A      3.252790   494A      3.256375   495A      3.269321  
     496A      3.295837   497A      3.319543   498A      3.343941  
     499A      3.352696   500A      3.358793   501A      3.377122  
     502A      3.403733   503A      3.423619   504A      3.432210  
     505A      3.443266   506A      3.453212   507A      3.465876  
     508A      3.492496   509A      3.495647   510A      3.505428  
     511A      3.507535   512A      3.513718   513A      3.515786  
     514A      3.532186   515A      3.541685   516A      3.557922  
     517A      3.559399   518A      3.561700   519A      3.567433  
     520A      3.586768   521A      3.593597   522A      3.628367  
     523A      3.633444   524A      3.638213   525A      3.657004  
     526A      3.664436   527A      3.664565   528A      3.678391  
     529A      3.684229   530A      3.684781   531A      3.696305  
     532A      3.697030   533A      3.712815   534A      3.714462  
     535A      3.738222   536A      3.748254   537A      3.756344  
     538A      3.760810   539A      3.766411   540A      3.785086  
     541A      3.798047   542A      3.799654   543A      3.803522  
     544A      3.816386   545A      3.817180   546A      3.834243  
     547A      3.838412   548A      3.845822   549A      3.861387  
     550A      3.871994   551A      3.890019   552A      3.899068  
     553A      3.913141   554A      3.919678   555A      3.926899  
     556A      3.928567   557A      3.940036   558A      3.948517  
     559A      3.957683   560A      3.958118   561A      3.982050  
     562A      3.984735   563A      4.011999   564A      4.016383  
     565A      4.016820   566A      4.030197   567A      4.034193  
     568A      4.043970   569A      4.054043   570A      4.062730  
     571A      4.065551   572A      4.070085   573A      4.084496  
     574A      4.088998   575A      4.100213   576A      4.110921  
     577A      4.116179   578A      4.137016   579A      4.140615  
     580A      4.149388   581A      4.151493   582A      4.158691  
     583A      4.164663   584A      4.174605   585A      4.185908  
     586A      4.194099   587A      4.194533   588A      4.199153  
     589A      4.232214   590A      4.245456   591A      4.255783  
     592A      4.265701   593A      4.276131   594A      4.286942  
     595A      4.287929   596A      4.295752   597A      4.310372  
     598A      4.314971   599A      4.334908   600A      4.342916  
     601A      4.355180   602A      4.361220   603A      4.361471  
     604A      4.366031   605A      4.369317   606A      4.375723  
     607A      4.398067   608A      4.405007   609A      4.415738  
     610A      4.427485   611A      4.432505   612A      4.448913  
     613A      4.465697   614A      4.475368   615A      4.478942  
     616A      4.485769   617A      4.492998   618A      4.504864  
     619A      4.513469   620A      4.519090   621A      4.531382  
     622A      4.542272   623A      4.552610   624A      4.557419  
     625A      4.571483   626A      4.579476   627A      4.585683  
     628A      4.604364   629A      4.606201   630A      4.609574  
     631A      4.609922   632A      4.630800   633A      4.662668  
     634A      4.669580   635A      4.676434   636A      4.681700  
     637A      4.687400   638A      4.696910   639A      4.723384  
     640A      4.735588   641A      4.749267   642A      4.769738  
     643A      4.770345   644A      4.779207   645A      4.792052  
     646A      4.796997   647A      4.832284   648A      4.864498  
     649A      4.871320   650A      4.877665   651A      4.879468  
     652A      4.889511   653A      4.906352   654A      4.935034  
     655A      4.940260   656A      4.960659   657A      4.980760  
     658A      4.988709   659A      5.004951   660A      5.005328  
     661A      5.035395   662A      5.051053   663A      5.060313  
     664A      5.067102   665A      5.078630   666A      5.101049  
     667A      5.112729   668A      5.115208   669A      5.136424  
     670A      5.156208   671A      5.168270   672A      5.169105  
     673A      5.177044   674A      5.185914   675A      5.216360  
     676A      5.229676   677A      5.239272   678A      5.252189  
     679A      5.268976   680A      5.273666   681A      5.278644  
     682A      5.280291   683A      5.287423   684A      5.292126  
     685A      5.295614   686A      5.299833   687A      5.321826  
     688A      5.339232   689A      5.365874   690A      5.366298  
     691A      5.399215   692A      5.403549   693A      5.416887  
     694A      5.440851   695A      5.471025   696A      5.475123  
     697A      5.487546   698A      5.504781   699A      5.554456  
     700A      5.556054   701A      5.570474   702A      5.577914  
     703A      5.597727   704A      5.626083   705A      5.647931  
     706A      5.652536   707A      5.664269   708A      5.676286  
     709A      5.685657   710A      5.730803   711A      5.732345  
     712A      5.822103   713A      5.842775   714A      5.856925  
     715A      5.868830   716A      5.879696   717A      5.896117  
     718A      5.912715   719A      5.938436   720A      5.954001  
     721A      5.964352   722A      5.981240   723A      6.012041  
     724A      6.027676   725A      6.033413   726A      6.099768  
     727A      6.114887   728A      6.199625   729A      6.260501  
     730A      6.301377   731A      6.310254   732A      6.317336  
     733A      6.372175   734A      6.392018   735A      6.430826  
     736A      6.449664   737A      6.536767   738A      6.566498  
     739A      6.608701   740A      6.611437   741A      6.677153  
     742A      6.713047   743A      6.770594   744A      6.780728  
     745A      6.839191   746A      6.854002   747A      6.860986  
     748A      6.863108   749A      6.896232   750A      6.986693  
     751A      7.008861   752A      7.056130   753A      7.082810  
     754A      7.084740   755A      7.105857   756A      7.184867  
     757A      7.216208   758A      7.260624   759A      7.316678  
     760A      7.355485   761A      7.364926   762A      7.563566  
     763A      7.613466   764A      7.641294   765A      7.927817  
     766A      7.946934   767A      8.025504   768A      8.147738  
     769A      8.219634   770A     15.744650   771A     16.144197  
     772A     16.527322   773A     17.215103   774A     17.370695  
     775A     18.676583   776A     19.054456   777A     19.697335  
     778A     20.035902   779A     20.445994   780A     20.608161  
     781A     20.875347   782A     21.504892  

    Final Occupation by Irrep:
              A 
    DOCC [    45 ]

  Energy converged.

  @DF-RHF Final Energy:  -550.71379695564576

   => Energetics <=

    Nuclear Repulsion Energy =            687.3911732352121362
    One-Electron Energy =               -2124.7713761352192705
    Two-Electron Energy =                 886.6664059443613723
    DFT Exchange-Correlation Energy =       0.0000000000000000
    Empirical Dispersion Energy =           0.0000000000000000
    PCM Polarization Energy =               0.0000000000000000
    EFP Energy =                            0.0000000000000000
    Total Energy =                       -550.7137969556457620



Properties will be evaluated at   0.000000,   0.000000,   0.000000 Bohr

Properties computed using the SCF density matrix

  Nuclear Dipole Moment: (a.u.)
     X:     2.4657      Y:    -1.3082      Z:    -1.5426

  Electronic Dipole Moment: (a.u.)
     X:     0.1325      Y:    -0.0718      Z:    -0.0808

  Dipole Moment: (a.u.)
     X:     2.5981      Y:    -1.3800      Z:    -1.6234     Total:     3.3600

  Dipole Moment: (Debye)
     X:     6.6037      Y:    -3.5075      Z:    -4.1262     Total:     8.5404


*** tstop() called on gpu-2-10.local at Sun Nov 12 05:15:29 2017
Module time:
	user time   =    1123.51 seconds =      18.73 minutes
	system time =      54.30 seconds =       0.90 minutes
	total time  =        463 seconds =       7.72 minutes
Total time:
	user time   =    1123.52 seconds =      18.73 minutes
	system time =      54.30 seconds =       0.90 minutes
	total time  =        463 seconds =       7.72 minutes

  //>>>>>>>>>>>>>>>>>>>>>>>>>>>>>>>>>>>//
  //               DFMP2               //
  //<<<<<<<<<<<<<<<<<<<<<<<<<<<<<<<<<<<//

   => Loading Basis Set <=

    Name: (AUG-CC-PVTZ AUX)
    Role: RIFIT
    Keyword: DF_BASIS_MP2
    atoms 1-11  entry C          line   147 file /cbio/jclab/home/chayas/anaconda/envs/py35/share/psi4/basis/aug-cc-pvtz-ri.gbs 
    atoms 12    entry N          line   205 file /cbio/jclab/home/chayas/anaconda/envs/py35/share/psi4/basis/aug-cc-pvtz-ri.gbs 
    atoms 13    entry O          line   263 file /cbio/jclab/home/chayas/anaconda/envs/py35/share/psi4/basis/aug-cc-pvtz-ri.gbs 
    atoms 14-21 entry H          line    29 file /cbio/jclab/home/chayas/anaconda/envs/py35/share/psi4/basis/aug-cc-pvtz-ri.gbs 

	 --------------------------------------------------------
	                          DF-MP2                         
	      2nd-Order Density-Fitted Moller-Plesset Theory     
	              RMP2 Wavefunction,   8 Threads             
	                                                         
	        Rob Parrish, Justin Turney, Andy Simmonett,      
	           Ed Hohenstein, and C. David Sherrill          
	 --------------------------------------------------------

   => Auxiliary Basis Set <=

  Basis Set: (AUG-CC-PVTZ AUX)
    Blend: AUG-CC-PVTZ-RI
    Number of shells: 476
    Number of basis function: 1746
    Number of Cartesian functions: 2208
    Spherical Harmonics?: true
    Max angular momentum: 4

	 --------------------------------------------------------
	                 NBF =   782, NAUX =  1746
	 --------------------------------------------------------
	   CLASS    FOCC     OCC    AOCC    AVIR     VIR    FVIR
	   PAIRS       0      45      45     737     737       0
	 --------------------------------------------------------


         ------------------------------------------------------------
                                     CPHF                           
                                  Rob Parrish                       
         ------------------------------------------------------------

  ==> Geometry <==

    Molecular point group: c1
    Full point group: C1

    Geometry (in Angstrom), charge = -1, multiplicity = 1:

       Center              X                  Y                   Z               Mass       
    ------------   -----------------  -----------------  -----------------  -----------------
           C         -1.279261043350     0.723536190130    -0.568902346029    12.000000000000
           C         -0.286261043350     0.107536190130     1.545097653971    12.000000000000
           C         -2.357261043350     1.296536190130     0.104097653971    12.000000000000
           C         -1.364261043350     0.680536190130     2.219097653971    12.000000000000
           C          0.787738956650    -0.729463809870    -1.908902346029    12.000000000000
           C          2.043738956650    -0.775463809870     0.142097653971    12.000000000000
           C          1.887738956650    -1.298463809870    -2.531902346029    12.000000000000
           C          3.086738956650    -1.342463809870    -0.572902346029    12.000000000000
           C         -0.243261043350     0.128536190130     0.151097653971    12.000000000000
           C          0.875738956650    -0.466463809870    -0.546902346029    12.000000000000
           C         -2.400261043350     1.275536190130     1.498097653971    12.000000000000
           N          3.038738956650    -1.613463809870    -1.895902346029    14.003074004780
           O         -3.391261043350     1.801536190130     2.117097653971    15.994914619560
           H         -1.260261043350     0.748536190130    -1.655902346029     1.007825032070
           H          0.513738956650    -0.352463809870     2.120097653971     1.007825032070
           H         -3.153261043350     1.753536190130    -0.481902346029     1.007825032070
           H         -1.373261043350     0.651536190130     3.307097653971     1.007825032070
           H         -0.106261043350    -0.501463809870    -2.480902346029     1.007825032070
           H          2.147738956650    -0.584463809870     1.205097653971     1.007825032070
           H          1.870738956650    -1.522463809870    -3.593902346029     1.007825032070
           H          4.017738956650    -1.602463809870    -0.081902346029     1.007825032070

  Nuclear repulsion =  687.391173235212136
  Reference energy  = -550.713796955645762

  ==> Basis Set <==

  Basis Set: AUG-CC-PVTZ
    Blend: AUG-CC-PVTZ
    Number of shells: 254
    Number of basis function: 782
    Number of Cartesian functions: 915
    Spherical Harmonics?: true
    Max angular momentum: 3

  ==> CGRSolver (by Rob Parrish) <==

   Number of roots    =         1
   Preconditioning    =    JACOBI
   Convergence cutoff =     1E-06
   Maximum iterations =       100

  ==> CPHFRHamiltonian (by Rob Parrish) <== 

  ==> DFJK: Density-Fitted J/K Matrices <==

    J tasked:                  Yes
    K tasked:                  Yes
    wK tasked:                  No
    OpenMP threads:              8
    Integrals threads:           8
    Memory (MB):              3576
    Algorithm:                Disk
    Integral Cache:           NONE
    Schwarz Cutoff:          1E-12
    Fitting Condition:       1E-12

   => Auxiliary Basis Set <=

  Basis Set: (AUG-CC-PVTZ AUX)
    Blend: AUG-CC-PVTZ-JKFIT
    Number of shells: 502
    Number of basis function: 1720
    Number of Cartesian functions: 2143
    Spherical Harmonics?: true
    Max angular momentum: 4

  ==> CPHF Iterations <==

  => Iterations <=

             Iter  Converged  Remaining    Residual
  CGR           1          0          1   1.423E-01
  CGR           2          0          1   5.632E-02
  CGR           3          0          1   3.333E-02
  CGR           4          0          1   1.182E-02
  CGR           5          0          1   5.802E-03
  CGR           6          0          1   3.185E-03
  CGR           7          0          1   9.338E-04
  CGR           8          0          1   3.112E-04
  CGR           9          0          1   1.225E-04
  CGR          10          0          1   3.706E-05
  CGR          11          0          1   1.423E-05
  CGR          12          0          1   6.170E-06
  CGR          13          0          1   2.701E-06
  CGR          14          0          1   1.068E-06
  CGR          15          1          0   3.243E-07

    CGRSolver converged.

  ==> DFCorrGrad: Density-Fitted Correlated Gradients <==

    OpenMP threads:              8
    Integrals threads:           8
    Memory (MB):              3576
    Schwarz Cutoff:          0E+00
    Fitting Condition:       1E-12

   => Auxiliary Basis Set <=

  Basis Set: (AUG-CC-PVTZ AUX)
    Blend: AUG-CC-PVTZ-JKFIT
    Number of shells: 502
    Number of basis function: 1720
    Number of Cartesian functions: 2143
    Spherical Harmonics?: true
    Max angular momentum: 4

	-----------------------------------------------------------
	 ==================> DF-MP2 Energies <==================== 
	-----------------------------------------------------------
	 Reference Energy          =    -550.7137969556457620 [Eh]
	 Singles Energy            =      -0.0000000000000001 [Eh]
	 Same-Spin Energy          =      -0.6143354970187320 [Eh]
	 Opposite-Spin Energy      =      -1.8396625784831913 [Eh]
	 Correlation Energy        =      -2.4539980755019233 [Eh]
	 Total Energy              =    -553.1677950311476479 [Eh]
	-----------------------------------------------------------
	 ================> DF-SCS-MP2 Energies <================== 
	-----------------------------------------------------------
	 SCS Same-Spin Scale       =       0.3333333333333333 [-]
	 SCS Opposite-Spin Scale   =       1.2000000000000000 [-]
	 SCS Same-Spin Energy      =      -0.2047784990062440 [Eh]
	 SCS Opposite-Spin Energy  =      -2.2075950941798292 [Eh]
	 SCS Correlation Energy    =      -2.4123735931860733 [Eh]
	 SCS Total Energy          =    -553.1261705488318512 [Eh]
	-----------------------------------------------------------


  -Total Gradient:
     Atom            X                  Y                   Z
    ------   -----------------  -----------------  -----------------
       1        0.019760412599    -0.008026818763    -0.008436453544
       2        0.015685498729    -0.010766417360    -0.013708538517
       3       -0.023888878071     0.012026171639     0.040196608504
       4       -0.042405279771     0.023053558511     0.002069281227
       5       -0.017124124655     0.007575046780     0.010689280845
       6       -0.014849119819     0.009668206550     0.010649909444
       7       -0.007453528552     0.001132862077    -0.004895407416
       8        0.001819242005     0.002044440028     0.008188462429
       9       -0.015843538374     0.008448762451     0.009809007722
      10        0.024480666629    -0.013263621967    -0.015754146389
      11        0.050671428324    -0.026747553689    -0.032162721281
      12        0.005984026611    -0.003162917640    -0.002948899282
      13       -0.001126010329     0.000531764354     0.000780246651
      14       -0.000247963721    -0.001340490708    -0.005913203496
      15        0.005229200738    -0.001256104413     0.002684117404
      16       -0.002080182159     0.000882651889    -0.008978190772
      17        0.005713552723    -0.002802098581     0.006363157973
      18       -0.005503600472     0.002958948338    -0.003952134042
      19       -0.000324437147    -0.000001762641     0.007117883085
      20        0.000676280029    -0.000341997123    -0.001732175195
      21        0.000826354681    -0.000612629730    -0.000066085346


*** tstop() called on gpu-2-10.local at Sun Nov 12 05:43:29 2017
Module time:
	user time   =    4691.68 seconds =      78.19 minutes
	system time =     108.35 seconds =       1.81 minutes
	total time  =       2143 seconds =      35.72 minutes
Total time:
	user time   =    4691.69 seconds =      78.19 minutes
	system time =     108.35 seconds =       1.81 minutes
	total time  =       2143 seconds =      35.72 minutes

			-----------------------------------------
			 OPTKING 2.0: for geometry optimizations 
			  - R.A. King,  Bethel University        
			-----------------------------------------

	Internal coordinates to be generated automatically.
	Detected frag 1 with atoms:  1 2 3 4 5 6 7 8 9 10 11 12 13 14 15 16 17 18 19 20
	 21
	---Fragment 1 Bond Connectivity---
	 1 : 3 9 14
	 2 : 4 9 15
	 3 : 1 11 16
	 4 : 2 11 17
	 5 : 7 10 18
	 6 : 8 10 19
	 7 : 5 12 20
	 8 : 6 12 21
	 9 : 1 2 10
	 10 : 5 6 9
	 11 : 3 4 13
	 12 : 7 8
	 13 : 11
	 14 : 1
	 15 : 2
	 16 : 3
	 17 : 4
	 18 : 5
	 19 : 6
	 20 : 7
	 21 : 8

	Assuming in current code that numbering for constraints corresponds to unified fragment.
	Fixed dihedral atom list: 
	     1     9    10     5
	---Fragment 1 Geometry and Gradient---
	 C          -2.4174530244        1.3672852466       -1.0750696304
	 C          -0.5409549744        0.2032139487        2.9198114146
	 C          -4.4545777957        2.4500983207        0.1967160571
	 C          -2.5780797457        1.2860270229        4.1934868281
	 C           1.4886108923       -1.3784868245       -3.6073026484
	 C           3.8621069152       -1.4654142266        0.2685256501
	 C           3.5673096384       -2.4537409941       -4.7846020292
	 C           5.8330912718       -2.5368889440       -1.0826285349
	 C          -0.4596967507        0.2428981975        0.2855331853
	 C           1.6549067920       -0.8814888516       -1.0334956554
	 C          -4.5358360194        2.4104140719        2.8309942863
	 N           5.7423844174       -3.0490047260       -3.5827362087
	 O          -6.4085546171        3.4044100178        4.0007347626
	 H          -2.3815482279        1.4145283999       -3.1292019368
	 H           0.9708259319       -0.6660600724        4.0064039410
	 H          -5.9587997974        3.3137031634       -0.9106634568
	 H          -2.5950872809        1.2312249650        6.2495088607
	 H          -0.2008042705       -0.9476292662       -4.6882259964
	 H           4.0586384330       -1.1044765352        2.2773045294
	 H           3.5351842942       -2.8770396479       -6.7914911823
	 H           7.5924263015       -3.0282177385       -0.1547730036
	             0.0197604126       -0.0080268188       -0.0084364535
	             0.0156854987       -0.0107664174       -0.0137085385
	            -0.0238888781        0.0120261716        0.0401966085
	            -0.0424052798        0.0230535585        0.0020692812
	            -0.0171241247        0.0075750468        0.0106892808
	            -0.0148491198        0.0096682066        0.0106499094
	            -0.0074535286        0.0011328621       -0.0048954074
	             0.0018192420        0.0020444400        0.0081884624
	            -0.0158435384        0.0084487625        0.0098090077
	             0.0244806666       -0.0132636220       -0.0157541464
	             0.0506714283       -0.0267475537       -0.0321627213
	             0.0059840266       -0.0031629176       -0.0029488993
	            -0.0011260103        0.0005317644        0.0007802467
	            -0.0002479637       -0.0013404907       -0.0059132035
	             0.0052292007       -0.0012561044        0.0026841174
	            -0.0020801822        0.0008826519       -0.0089781908
	             0.0057135527       -0.0028020986        0.0063631580
	            -0.0055036005        0.0029589483       -0.0039521340
	            -0.0003244371       -0.0000017626        0.0071178831
	             0.0006762800       -0.0003419971       -0.0017321752
	             0.0008263547       -0.0006126297       -0.0000660853

	Previous optimization step data not found.  Starting new optimization.

	---Fragment 1 Intrafragment Coordinates---
	 - Coordinate -           - BOHR/RAD -       - ANG/DEG -
	 R(1,3)           =         2.634350	       1.394038
	 R(1,9)           =         2.635962	       1.394891
	 R(1,14)          =         2.054989	       1.087453
	 R(2,4)           =         2.635263	       1.394521
	 R(2,9)           =         2.635830	       1.394821
	 R(2,15)          =         2.054702	       1.087302
	 R(3,11)          =         2.635830	       1.394821
	 R(3,16)          =         2.057860	       1.088972
	 R(4,11)          =         2.636938	       1.395407
	 R(4,17)          =         2.056823	       1.088424
	 R(5,7)           =         2.619770	       1.386322
	 R(5,10)          =         2.626622	       1.389949
	 R(5,18)          =         2.051379	       1.085543
	 R(6,8)           =         2.618865	       1.385844
	 R(6,10)          =         2.628300	       1.390836
	 R(6,19)          =         2.050389	       1.085019
	 R(7,12)          =         2.555342	       1.352229
	 R(7,20)          =         2.051297	       1.085499
	 R(8,12)          =         2.553630	       1.351323
	 R(8,21)          =         2.048800	       1.084178
	 R(9,10)          =         2.734160	       1.446855
	 R(11,13)         =         2.421445	       1.281373
	 B(1,3,11)        =         2.094553	     120.009056
	 B(1,3,16)        =         2.069123	     118.552025
	 B(1,9,2)         =         2.093692	     119.959722
	 B(1,9,10)        =         2.095337	     120.053983
	 B(2,4,11)        =         2.093699	     119.960108
	 B(2,4,17)        =         2.069829	     118.592446
	 B(2,9,10)        =         2.094156	     119.986294
	 B(3,1,9)         =         2.094940	     120.031219
	 B(3,1,14)        =         2.079025	     119.119344
	 B(3,11,4)        =         2.094306	     119.994870
	 B(3,11,13)       =         2.094918	     120.029973
	 B(4,2,9)         =         2.095181	     120.045019
	 B(4,2,15)        =         2.079455	     119.143974
	 B(4,11,13)       =         2.093961	     119.975136
	 B(5,7,12)        =         2.164743	     124.030609
	 B(5,7,20)        =         2.108229	     120.792604
	 B(5,10,6)        =         2.090421	     119.772317
	 B(5,10,9)        =         2.096212	     120.104073
	 B(6,8,12)        =         2.165706	     124.085837
	 B(6,8,21)        =         2.106842	     120.713153
	 B(6,10,9)        =         2.096551	     120.123547
	 B(7,5,10)        =         2.057574	     117.890281
	 B(7,5,18)        =         2.097713	     120.190080
	 B(7,12,8)        =         2.030849	     116.359057
	 B(8,6,10)        =         2.057077	     117.861854
	 B(8,6,19)        =         2.100578	     120.354237
	 B(9,1,14)        =         2.109221	     120.849435
	 B(9,2,15)        =         2.108550	     120.811005
	 B(10,5,18)       =         2.127899	     121.919604
	 B(10,6,19)       =         2.125530	     121.783898
	 B(11,3,16)       =         2.119509	     121.438903
	 B(11,4,17)       =         2.119657	     121.447411
	 B(12,7,20)       =         2.010214	     115.176781
	 B(12,8,21)       =         2.010636	     115.200973
	 D(1,3,11,4)      =        -0.000325	      -0.018609
	 D(1,3,11,13)     =        -3.141004	    -179.966279
	 D(1,9,2,4)       =         0.000325	       0.018608
	 D(1,9,2,15)      =        -3.141527	    -179.996257
	 D(1,9,10,5)      =        -0.261762	     -14.997846
	 D(1,9,10,6)      =         2.878228	     164.910328
	 D(2,4,11,3)      =         0.000301	       0.017261
	 D(2,4,11,13)     =         3.140981	     179.964960
	 D(2,9,1,3)       =        -0.000348	      -0.019945
	 D(2,9,1,14)      =         3.141027	     179.967567
	 D(2,9,10,5)      =         2.880048	     165.014593
	 D(2,9,10,6)      =        -0.263147	     -15.077232
	 D(3,1,9,10)      =         3.141462	     179.992491
	 D(3,11,4,17)     =         3.140700	     179.948827
	 D(4,2,9,10)      =        -3.141485	    -179.993820
	 D(4,11,3,16)     =         3.140472	     179.935781
	 D(5,7,12,8)      =        -0.001420	      -0.081332
	 D(5,10,6,8)      =        -0.000283	      -0.016211
	 D(5,10,6,19)     =        -3.141230	    -179.979202
	 D(6,8,12,7)      =         0.001151	       0.065970
	 D(6,10,5,7)      =         0.000042	       0.002423
	 D(6,10,5,18)     =        -3.140364	    -179.929631
	 D(7,5,10,9)      =         3.140038	     179.910922
	 D(7,12,8,21)     =         3.141526	     179.996155
	 D(8,6,10,9)      =        -3.140278	    -179.924692
	 D(8,12,7,20)     =         3.139703	     179.891712
	 D(9,1,3,11)      =         0.000348	       0.019955
	 D(9,1,3,16)      =        -3.140471	    -179.935743
	 D(9,2,4,11)      =        -0.000301	      -0.017270
	 D(9,2,4,17)      =        -3.140734	    -179.950778
	 D(9,10,5,18)     =        -0.000369	      -0.021132
	 D(9,10,6,19)     =         0.001960	       0.112317
	 D(10,5,7,12)     =         0.000856	       0.049043
	 D(10,5,7,20)     =        -3.140241	    -179.922558
	 D(10,6,8,12)     =        -0.000337	      -0.019323
	 D(10,6,8,21)     =        -3.140647	    -179.945846
	 D(10,9,1,14)     =        -0.000349	      -0.019997
	 D(10,9,2,15)     =        -0.000152	      -0.008685
	 D(11,3,1,14)     =        -3.141030	    -179.967773
	 D(11,4,2,15)     =         3.141546	     179.997347
	 D(12,7,5,18)     =         3.141284	     179.982321
	 D(12,8,6,19)     =         3.140619	     179.944221
	 D(13,11,3,16)    =        -0.000207	      -0.011889
	 D(13,11,4,17)    =        -0.001806	      -0.103475
	 D(14,1,3,16)     =         0.001336	       0.076530
	 D(15,2,4,17)     =         0.001114	       0.063839
	 D(18,5,7,20)     =         0.000187	       0.010720
	 D(19,6,8,21)     =         0.000309	       0.017698

	Current energy   :      -553.1677950311

	Generating empirical Hessian (Schlegel '84) for each fragment.
	Adding user-defined constraint: Fragment 1; Coordinate 61:
		Value =    -0.261762; Fixed value    =    -0.261799
		Force =    -0.000019; Force constant =     0.500000
	Removing off-diagonal coupling between coordinate 61 and others.
	Taking RFO optimization step.
	Going to follow RFO solution 1.
	Using RFO vector 1.

	Determining step-restricting scale parameter for RS-RFO.
	Maximum step size allowed    0.10000

	 Iter      |step|        alpha        rfo_root  
	------------------------------------------------
	    0     0.27611       1.00000           1
	    1     0.20304       6.58493           1
	    2     0.14684      21.13848           1
	    3     0.11577      41.98215           1
	    4     0.10282      57.53530           1
	    5     0.10012      61.64092           1
	    6     0.10000      61.83136           1
	------------------------------------------------
	Norm of target step-size    0.10000
	Projected energy change by RFO approximation:        -0.0078570853

	Back-transformation to cartesian coordinates...
	Could not converge backtransformation.
	Using first guess instead.

	--- Internal Coordinate Step in ANG or DEG, aJ/ANG or AJ/DEG ---
	 ---------------------------------------------------------------------------
	   Coordinate                Previous        Force       Change         New 
	   ----------                --------       ------       ------       ------
	    1 R(1,3)          =      1.394038    -0.068452    -0.004612     1.389426
	    2 R(1,9)          =      1.394891     0.078106     0.005194     1.400085
	    3 R(1,14)         =      1.087453    -0.048407    -0.003705     1.083749
	    4 R(2,4)          =      1.394521    -0.071494    -0.004833     1.389689
	    5 R(2,9)          =      1.394821     0.079353     0.005281     1.400102
	    6 R(2,15)         =      1.087302    -0.047771    -0.003651     1.083650
	    7 R(3,11)         =      1.394821     0.206733     0.014365     1.409187
	    8 R(3,16)         =      1.088972    -0.055383    -0.004263     1.084710
	    9 R(4,11)         =      1.395407     0.203402     0.014144     1.409552
	   10 R(4,17)         =      1.088424    -0.052630    -0.004048     1.084376
	   11 R(5,7)          =      1.386322    -0.013321    -0.000902     1.385421
	   12 R(5,10)         =      1.389949     0.082148     0.005950     1.395898
	   13 R(5,18)         =      1.085543    -0.059619    -0.004518     1.081025
	   14 R(6,8)          =      1.385844    -0.010149    -0.000681     1.385163
	   15 R(6,10)         =      1.390836     0.076761     0.005610     1.396446
	   16 R(6,19)         =      1.085019    -0.057193    -0.004321     1.080698
	   17 R(7,12)         =      1.352229    -0.109721    -0.007046     1.345183
	   18 R(7,20)         =      1.085499    -0.014456    -0.001102     1.084397
	   19 R(8,12)         =      1.351323    -0.103706    -0.006657     1.344666
	   20 R(8,21)         =      1.084178    -0.006810    -0.000517     1.083661
	   21 R(9,10)         =      1.446855     0.122392     0.009020     1.455875
	   22 R(11,13)        =      1.281373    -0.012078    -0.000640     1.280733
	   23 B(1,3,11)       =    120.009056     0.000761     0.806862   120.815918
	   24 B(1,3,16)       =    118.552025     0.000116     0.172083   118.724108
	   25 B(1,9,2)        =    119.959722    -0.001208    -1.305126   118.654596
	   26 B(1,9,10)       =    120.053983     0.000587     0.635544   120.689527
	   27 B(2,4,11)       =    119.960108     0.000776     0.820742   120.780851
	   28 B(2,4,17)       =    118.592446     0.000107     0.162534   118.754980
	   29 B(2,9,10)       =    119.986294     0.000621     0.669580   120.655874
	   30 B(3,1,9)        =    120.031219     0.000804     0.808278   120.839497
	   31 B(3,1,14)       =    119.119344    -0.000434    -0.443684   118.675661
	   32 B(3,11,4)       =    119.994870    -0.001939    -1.938604   118.056266
	   33 B(3,11,13)      =    120.029973     0.000962     0.961173   120.991146
	   34 B(4,2,9)        =    120.045019     0.000805     0.807828   120.852847
	   35 B(4,2,15)       =    119.143974    -0.000442    -0.452268   118.691706
	   36 B(4,11,13)      =    119.975136     0.000977     0.977431   120.952567
	   37 B(5,7,12)       =    124.030609     0.000307     0.283045   124.313654
	   38 B(5,7,20)       =    120.792604    -0.000204    -0.200207   120.592397
	   39 B(5,10,6)       =    119.772317    -0.002013    -1.996920   117.775397
	   40 B(5,10,9)       =    120.104073     0.001003     0.994945   121.099017
	   41 B(6,8,12)       =    124.085837     0.000291     0.267400   124.353238
	   42 B(6,8,21)       =    120.713153    -0.000190    -0.184601   120.528552
	   43 B(6,10,9)       =    120.123547     0.001010     1.001935   121.125482
	   44 B(7,5,10)       =    117.890281     0.000867     0.945765   118.836046
	   45 B(7,5,18)       =    120.190080    -0.000449    -0.494869   119.695211
	   46 B(7,12,8)       =    116.359057    -0.000320    -0.447659   115.911398
	   47 B(8,6,10)       =    117.861854     0.000868     0.948365   118.810219
	   48 B(8,6,19)       =    120.354237    -0.000471    -0.521631   119.832606
	   49 B(9,1,14)       =    120.849435    -0.000370    -0.364715   120.484720
	   50 B(9,2,15)       =    120.811005    -0.000364    -0.355677   120.455328
	   51 B(10,5,18)      =    121.919604    -0.000418    -0.450865   121.468740
	   52 B(10,6,19)      =    121.783898    -0.000397    -0.426739   121.357159
	   53 B(11,3,16)      =    121.438903    -0.000878    -0.978937   120.459967
	   54 B(11,4,17)      =    121.447411    -0.000883    -0.983259   120.464153
	   55 B(12,7,20)      =    115.176781    -0.000103    -0.082835   115.093946
	   56 B(12,8,21)      =    115.200973    -0.000102    -0.082765   115.118208
	   57 D(1,3,11,4)     =     -0.018609     0.000004     0.022096     0.003487
	   58 D(1,3,11,13)    =   -179.966279     0.000003     0.021083  -179.945195
	   59 D(1,9,2,4)      =      0.018608     0.000002     0.007356     0.025963
	   60 D(1,9,2,15)     =   -179.996257    -0.000016    -0.104977  -180.101234
	   61 D(1,9,10,5)     =    -14.997846    -0.000013    -0.061299   -15.059146
	   62 D(1,9,10,6)     =    164.910328    -0.000016    -0.089620   164.820708
	   63 D(2,4,11,3)     =      0.017261     0.000003     0.023541     0.040803
	   64 D(2,4,11,13)    =    179.964960     0.000004     0.024546   179.989506
	   65 D(2,9,1,3)      =     -0.019945     0.000005     0.038456     0.018511
	   66 D(2,9,1,14)     =    179.967567    -0.000012    -0.077827   179.889740
	   67 D(2,9,10,5)     =    165.014593    -0.000016    -0.093239   164.921354
	   68 D(2,9,10,6)     =    -15.077232    -0.000019    -0.121560   -15.198792
	   69 D(3,1,9,10)     =    179.992491     0.000002     0.007509   180.000000
	   70 D(3,11,4,17)    =    179.948827     0.000007     0.044731   179.993558
	   71 D(4,2,9,10)     =   -179.993820     0.000005     0.038893  -179.954927
	   72 D(4,11,3,16)    =    179.935781     0.000006     0.038186   179.973967
	   73 D(5,7,12,8)     =     -0.081332     0.000000    -0.000381    -0.081712
	   74 D(5,10,6,8)     =     -0.016211    -0.000002    -0.015983    -0.032194
	   75 D(5,10,6,19)    =   -179.979202    -0.000015    -0.097899  -180.077101
	   76 D(6,8,12,7)     =      0.065970    -0.000001    -0.005311     0.060659
	   77 D(6,10,5,7)     =      0.002423     0.000001     0.010823     0.013246
	   78 D(6,10,5,18)    =   -179.929631    -0.000012    -0.076912  -180.006542
	   79 D(7,5,10,9)     =    179.910922    -0.000001    -0.013918   179.897003
	   80 D(7,12,8,21)    =    179.996155     0.000007     0.047815   180.043970
	   81 D(8,6,10,9)     =   -179.924692     0.000001     0.008773  -179.915919
	   82 D(8,12,7,20)    =    179.891712     0.000007     0.044129   179.935841
	   83 D(9,1,3,11)     =      0.019955    -0.000008    -0.053148    -0.033193
	   84 D(9,1,3,16)     =   -179.935743    -0.000010    -0.068434  -180.004177
	   85 D(9,2,4,11)     =     -0.017270    -0.000006    -0.038921    -0.056191
	   86 D(9,2,4,17)     =   -179.950778    -0.000009    -0.058962  -180.009740
	   87 D(9,10,5,18)    =     -0.021132    -0.000015    -0.101653    -0.122785
	   88 D(9,10,6,19)    =      0.112317    -0.000012    -0.073143     0.039174
	   89 D(10,5,7,12)    =      0.049043    -0.000000    -0.002418     0.046625
	   90 D(10,5,7,20)    =   -179.922558    -0.000007    -0.049284  -179.971842
	   91 D(10,6,8,12)    =     -0.019323     0.000002     0.013850    -0.005473
	   92 D(10,6,8,21)    =   -179.945846    -0.000007    -0.042084  -179.987930
	   93 D(10,9,1,14)    =     -0.019997    -0.000016    -0.109380    -0.129377
	   94 D(10,9,2,15)    =     -0.008685    -0.000012    -0.073439    -0.082124
	   95 D(11,3,1,14)    =   -179.967773     0.000010     0.061063  -179.906709
	   96 D(11,4,2,15)    =    179.997347     0.000011     0.071456   180.068803
	   97 D(12,7,5,18)    =    179.982321     0.000013     0.083734   180.066055
	   98 D(12,8,6,19)    =    179.944221     0.000014     0.094512   180.038733
	   99 D(13,11,3,16)   =     -0.011889     0.000006     0.037173     0.025285
	  100 D(13,11,4,17)   =     -0.103475     0.000007     0.045736    -0.057739
	  101 D(14,1,3,16)    =      0.076530     0.000007     0.045777     0.122307
	  102 D(15,2,4,17)    =      0.063839     0.000008     0.051415     0.115254
	  103 D(18,5,7,20)    =      0.010720     0.000006     0.036868     0.047588
	  104 D(19,6,8,21)    =      0.017698     0.000006     0.038579     0.056276
	 ---------------------------------------------------------------------------
	Successfully symmetrized geometry.
	 Forces used to impose fixed constraints are not included.
	  Forces zeroed: 61 

  ==> Convergence Check <==

  Measures of convergence in internal coordinates in au.
  Criteria marked as inactive (o), active & met (*), and active & unmet ( ).
  --------------------------------------------------------------------------------------------- ~
   Step     Total Energy     Delta E     MAX Force     RMS Force      MAX Disp      RMS Disp    ~
  --------------------------------------------------------------------------------------------- ~
    Convergence Criteria    1.00e-06 *    3.00e-04 *             o    1.20e-03 *             o  ~
  --------------------------------------------------------------------------------------------- ~
      1    -553.16779503   -5.53e+02      2.65e-02      7.76e-03 o    3.49e-02      9.79e-03 o  ~
  ---------------------------------------------------------------------------------------------

	Writing optimization data to binary file.
	Structure for next step:
	Cartesian Geometry (in Angstrom)
	    C    -1.2941322691   0.7322386094  -0.5551148854
	    C    -0.3052899493   0.1168951416   1.5529815675
	    C    -2.3700555408   1.3047472922   0.1120644652
	    C    -1.3784079522   0.6865510608   2.2276253090
	    C     0.8121488502  -0.7417105584  -1.9154644682
	    C     2.0614057263  -0.7854906304   0.1223790715
	    C     1.9119785960  -1.3102692001  -2.5371610308
	    C     3.1030548254  -1.3522782637  -0.5934389956
	    C    -0.2473916032   0.1309741429   0.1541477740
	    C     0.8784209926  -0.4679557103  -0.5482781860
	    C    -2.4351422998   1.2940038438   1.5197061838
	    N     3.0594885717  -1.6246000225  -1.9095200110
	    O    -3.4258014882   1.8198069201   2.1380933975
	    H    -1.2787409570   0.7614518909  -1.6383603979
	    H     0.4881604820  -0.3420897186   2.1309673209
	    H    -3.1621886642   1.7613687814  -0.4715593043
	    H    -1.3885732122   0.6563203750   3.3115322613
	    H    -0.0744320802  -0.5202798976  -2.4930088404
	    H     2.1760119485  -0.5971573745   1.1803506916
	    H     1.8916722446  -1.5343977275  -3.5979488449
	    H     4.0333318685  -1.6098689615  -0.1009423444
			--------------------------
			 OPTKING Finished Execution 
			--------------------------

    Structure for next step:
    Molecular point group: c1
    Full point group: C1

    Geometry (in Angstrom), charge = -1, multiplicity = 1:

    C           -1.291734116939     0.730974765078    -0.556530413366
    C           -0.302891797089     0.115631297214     1.551566039541
    C           -2.367657388559     1.303483447834     0.110648937212
    C           -1.376009800008     0.685287216496     2.226209780982
    C            0.814547002380    -0.742974402781    -1.916879996237
    C            2.063803878525    -0.786754474792     0.120963543500
    C            1.914376748234    -1.311533044486    -2.538576558818
    C            3.105452977603    -1.353542108039    -0.594854523635
    C           -0.244993450965     0.129710298504     0.152732246042
    C            0.880819144762    -0.469219554630    -0.549693713966
    C           -2.432744147555     1.292739999409     1.518290655757
    N            3.061886723868    -1.625863866890    -1.910935539029
    O           -3.423403336004     1.818543075770     2.136677869461
    H           -1.276342804755     0.760188046569    -1.639775925871
    H            0.490558634219    -0.343353562993     2.129551792893
    H           -3.159790511991     1.760104937022    -0.472974832304
    H           -1.386175059990     0.655056530605     3.310116733332
    H           -0.072033928034    -0.521543741970    -2.494424368445
    H            2.178410100667    -0.598421218832     1.178935163639
    H            1.894070396815    -1.535661571856    -3.599364372908
    H            4.035730020721    -1.611132805874    -0.102357872372

gradient() will perform analytic gradient computation.

*** tstart() called on gpu-2-10.local
*** at Sun Nov 12 05:43:30 2017

    SCF Algorithm Type (re)set to DF.

*** tstart() called on gpu-2-10.local
*** at Sun Nov 12 05:43:30 2017

   => Loading Basis Set <=

    Name: AUG-CC-PVTZ
    Role: ORBITAL
    Keyword: BASIS
    atoms 1-11  entry C          line   221 file /cbio/jclab/home/chayas/anaconda/envs/py35/share/psi4/basis/aug-cc-pvtz.gbs 
    atoms 12    entry N          line   267 file /cbio/jclab/home/chayas/anaconda/envs/py35/share/psi4/basis/aug-cc-pvtz.gbs 
    atoms 13    entry O          line   313 file /cbio/jclab/home/chayas/anaconda/envs/py35/share/psi4/basis/aug-cc-pvtz.gbs 
    atoms 14-21 entry H          line    34 file /cbio/jclab/home/chayas/anaconda/envs/py35/share/psi4/basis/aug-cc-pvtz.gbs 


         ---------------------------------------------------------
                                   SCF
            by Justin Turney, Rob Parrish, and Andy Simmonett
                              RHF Reference
                        8 Threads,   4768 MiB Core
         ---------------------------------------------------------

  ==> Geometry <==

    Molecular point group: c1
    Full point group: C1

    Geometry (in Angstrom), charge = -1, multiplicity = 1:

       Center              X                  Y                   Z               Mass       
    ------------   -----------------  -----------------  -----------------  -----------------
           C         -1.291734116939     0.730974765078    -0.556530413366    12.000000000000
           C         -0.302891797089     0.115631297214     1.551566039541    12.000000000000
           C         -2.367657388559     1.303483447834     0.110648937212    12.000000000000
           C         -1.376009800008     0.685287216496     2.226209780982    12.000000000000
           C          0.814547002380    -0.742974402781    -1.916879996237    12.000000000000
           C          2.063803878525    -0.786754474792     0.120963543500    12.000000000000
           C          1.914376748234    -1.311533044486    -2.538576558818    12.000000000000
           C          3.105452977603    -1.353542108039    -0.594854523635    12.000000000000
           C         -0.244993450965     0.129710298504     0.152732246042    12.000000000000
           C          0.880819144762    -0.469219554630    -0.549693713966    12.000000000000
           C         -2.432744147555     1.292739999409     1.518290655757    12.000000000000
           N          3.061886723868    -1.625863866890    -1.910935539029    14.003074004780
           O         -3.423403336004     1.818543075770     2.136677869461    15.994914619560
           H         -1.276342804755     0.760188046569    -1.639775925871     1.007825032070
           H          0.490558634219    -0.343353562993     2.129551792893     1.007825032070
           H         -3.159790511991     1.760104937022    -0.472974832304     1.007825032070
           H         -1.386175059990     0.655056530605     3.310116733332     1.007825032070
           H         -0.072033928034    -0.521543741970    -2.494424368445     1.007825032070
           H          2.178410100667    -0.598421218832     1.178935163639     1.007825032070
           H          1.894070396815    -1.535661571856    -3.599364372908     1.007825032070
           H          4.035730020721    -1.611132805874    -0.102357872372     1.007825032070

  Running in c1 symmetry.

  Rotational constants: A =      0.09805  B =      0.01377  C =      0.01212 [cm^-1]
  Rotational constants: A =   2939.56619  B =    412.72570  C =    363.46385 [MHz]
  Nuclear repulsion =  684.583109973210981

  Charge       = -1
  Multiplicity = 1
  Electrons    = 90
  Nalpha       = 45
  Nbeta        = 45

  ==> Algorithm <==

  SCF Algorithm Type is DF.
  DIIS enabled.
  MOM disabled.
  Fractional occupation disabled.
  Guess Type is READ.
  Energy threshold   = 1.00e-10
  Density threshold  = 1.00e-10
  Integral threshold = 0.00e+00

  ==> Primary Basis <==

  Basis Set: AUG-CC-PVTZ
    Blend: AUG-CC-PVTZ
    Number of shells: 254
    Number of basis function: 782
    Number of Cartesian functions: 915
    Spherical Harmonics?: true
    Max angular momentum: 3

   => Loading Basis Set <=

    Name: (AUG-CC-PVTZ AUX)
    Role: JKFIT
    Keyword: DF_BASIS_SCF
    atoms 1-11  entry C          line   161 file /cbio/jclab/home/chayas/anaconda/envs/py35/share/psi4/basis/aug-cc-pvtz-jkfit.gbs 
    atoms 12    entry N          line   223 file /cbio/jclab/home/chayas/anaconda/envs/py35/share/psi4/basis/aug-cc-pvtz-jkfit.gbs 
    atoms 13    entry O          line   285 file /cbio/jclab/home/chayas/anaconda/envs/py35/share/psi4/basis/aug-cc-pvtz-jkfit.gbs 
    atoms 14-21 entry H          line    69 file /cbio/jclab/home/chayas/anaconda/envs/py35/share/psi4/basis/aug-cc-pvtz-jkfit.gbs 

  Reading orbitals from file 180, no projection.

  ==> Pre-Iterations <==

   -------------------------------------------------------
    Irrep   Nso     Nmo     Nalpha   Nbeta   Ndocc  Nsocc
   -------------------------------------------------------
     A        782     782       0       0       0       0
   -------------------------------------------------------
    Total     782     782      45      45      45       0
   -------------------------------------------------------

  ==> Integral Setup <==

  ==> DFJK: Density-Fitted J/K Matrices <==

    J tasked:                  Yes
    K tasked:                  Yes
    wK tasked:                  No
    OpenMP threads:              8
    Integrals threads:           8
    Memory (MB):              3576
    Algorithm:                Disk
    Integral Cache:           NONE
    Schwarz Cutoff:          1E-12
    Fitting Condition:       1E-12

   => Auxiliary Basis Set <=

  Basis Set: (AUG-CC-PVTZ AUX)
    Blend: AUG-CC-PVTZ-JKFIT
    Number of shells: 502
    Number of basis function: 1720
    Number of Cartesian functions: 2143
    Spherical Harmonics?: true
    Max angular momentum: 4

  Minimum eigenvalue in the overlap matrix is 6.4732878883E-07.
  Using Symmetric Orthogonalization.

  SCF Guess: Orbitals guess was supplied from a previous computation.

  ==> Iterations <==

                           Total Energy        Delta E     RMS |[F,P]|

   @DF-RHF iter   0:  -550.84152476242093   -5.50842e+02   5.68123e-04 
   @DF-RHF iter   1:  -550.72085029657092    1.20674e-01   1.47200e-04 
   @DF-RHF iter   2:  -550.72161352364503   -7.63227e-04   1.06799e-04 DIIS
   @DF-RHF iter   3:  -550.72226236816550   -6.48845e-04   1.38551e-05 DIIS
   @DF-RHF iter   4:  -550.72227458199086   -1.22138e-05   4.66313e-06 DIIS
   @DF-RHF iter   5:  -550.72227691763283   -2.33564e-06   1.50240e-06 DIIS
   @DF-RHF iter   6:  -550.72227733208820   -4.14455e-07   6.77425e-07 DIIS
   @DF-RHF iter   7:  -550.72227747423005   -1.42142e-07   3.27604e-07 DIIS
   @DF-RHF iter   8:  -550.72227752210279   -4.78727e-08   1.48433e-07 DIIS
   @DF-RHF iter   9:  -550.72227752954859   -7.44581e-09   6.09671e-08 DIIS
   @DF-RHF iter  10:  -550.72227753062907   -1.08048e-09   2.54244e-08 DIIS
   @DF-RHF iter  11:  -550.72227753085099   -2.21917e-10   1.20751e-08 DIIS
   @DF-RHF iter  12:  -550.72227753088464   -3.36513e-11   6.24447e-09 DIIS
   @DF-RHF iter  13:  -550.72227753090135   -1.67120e-11   1.80575e-09 DIIS
   @DF-RHF iter  14:  -550.72227753088873    1.26192e-11   8.49421e-10 DIIS
   @DF-RHF iter  15:  -550.72227753087463    1.40972e-11   3.98690e-10 DIIS
   @DF-RHF iter  16:  -550.72227753089101   -1.63709e-11   1.21026e-10 DIIS
   @DF-RHF iter  17:  -550.72227753088771    3.29692e-12   5.31358e-11 DIIS

  ==> Post-Iterations <==

    Orbital Energies (a.u.)
    -----------------------

    Doubly Occupied:                                                      

       1A    -20.308400     2A    -15.443348     3A    -11.163850  
       4A    -11.163663     5A    -11.146073     6A    -11.125820  
       7A    -11.115068     8A    -11.115027     9A    -11.102959  
      10A    -11.102942    11A    -11.079098    12A    -11.064735  
      13A    -11.064705    14A     -1.138625    15A     -1.135638  
      16A     -1.017675    17A     -0.957381    18A     -0.920284  
      19A     -0.870680    20A     -0.838269    21A     -0.746575  
      22A     -0.732828    23A     -0.678613    24A     -0.650556  
      25A     -0.599065    26A     -0.548608    27A     -0.544264  
      28A     -0.503659    29A     -0.489651    30A     -0.483002  
      31A     -0.479666    32A     -0.442712    33A     -0.432460  
      34A     -0.413331    35A     -0.405684    36A     -0.382135  
      37A     -0.359650    38A     -0.353268    39A     -0.317144  
      40A     -0.305456    41A     -0.244987    42A     -0.240295  
      43A     -0.222064    44A     -0.201754    45A     -0.107702  

    Virtual:                                                              

      46A      0.099110    47A      0.099902    48A      0.116297  
      49A      0.116446    50A      0.128270    51A      0.130233  
      52A      0.135393    53A      0.139410    54A      0.164002  
      55A      0.166102    56A      0.176808    57A      0.183724  
      58A      0.185576    59A      0.188679    60A      0.190928  
      61A      0.196190    62A      0.199891    63A      0.206469  
      64A      0.209162    65A      0.213077    66A      0.214805  
      67A      0.217698    68A      0.219602    69A      0.229171  
      70A      0.229856    71A      0.234135    72A      0.238220  
      73A      0.240240    74A      0.240406    75A      0.247958  
      76A      0.249792    77A      0.254329    78A      0.263852  
      79A      0.265128    80A      0.268874    81A      0.270912  
      82A      0.278763    83A      0.282602    84A      0.289554  
      85A      0.294379    86A      0.301247    87A      0.311062  
      88A      0.315734    89A      0.316458    90A      0.322819  
      91A      0.326965    92A      0.330020    93A      0.330108  
      94A      0.333854    95A      0.342019    96A      0.344532  
      97A      0.349961    98A      0.357493    99A      0.364238  
     100A      0.365761   101A      0.376555   102A      0.382687  
     103A      0.384786   104A      0.385405   105A      0.388547  
     106A      0.390066   107A      0.400486   108A      0.402564  
     109A      0.405099   110A      0.415184   111A      0.416267  
     112A      0.423343   113A      0.427591   114A      0.428921  
     115A      0.432344   116A      0.435994   117A      0.440993  
     118A      0.444975   119A      0.457107   120A      0.460883  
     121A      0.461271   122A      0.477229   123A      0.479019  
     124A      0.480294   125A      0.489793   126A      0.496870  
     127A      0.497940   128A      0.502651   129A      0.517972  
     130A      0.520827   131A      0.521073   132A      0.522262  
     133A      0.530391   134A      0.540385   135A      0.541830  
     136A      0.543385   137A      0.554804   138A      0.560073  
     139A      0.560101   140A      0.563511   141A      0.565110  
     142A      0.573211   143A      0.574708   144A      0.576632  
     145A      0.577979   146A      0.590003   147A      0.594589  
     148A      0.595110   149A      0.598188   150A      0.599125  
     151A      0.605402   152A      0.607011   153A      0.610320  
     154A      0.614880   155A      0.615724   156A      0.617085  
     157A      0.624096   158A      0.628049   159A      0.634639  
     160A      0.637655   161A      0.639702   162A      0.644235  
     163A      0.650348   164A      0.651548   165A      0.658120  
     166A      0.661110   167A      0.669420   168A      0.670547  
     169A      0.673965   170A      0.679896   171A      0.690396  
     172A      0.694017   173A      0.698243   174A      0.699472  
     175A      0.714842   176A      0.714999   177A      0.721682  
     178A      0.722240   179A      0.733829   180A      0.736987  
     181A      0.737154   182A      0.756767   183A      0.760148  
     184A      0.764104   185A      0.771120   186A      0.778618  
     187A      0.790269   188A      0.793150   189A      0.804242  
     190A      0.809817   191A      0.811153   192A      0.814414  
     193A      0.818109   194A      0.823747   195A      0.825560  
     196A      0.827390   197A      0.836345   198A      0.839057  
     199A      0.842833   200A      0.857763   201A      0.862130  
     202A      0.863884   203A      0.873567   204A      0.877612  
     205A      0.879136   206A      0.885051   207A      0.899444  
     208A      0.904955   209A      0.912408   210A      0.917399  
     211A      0.919035   212A      0.934081   213A      0.935346  
     214A      0.949831   215A      0.954938   216A      0.962792  
     217A      0.965365   218A      0.975383   219A      0.988113  
     220A      0.989866   221A      0.994034   222A      1.000555  
     223A      1.000869   224A      1.006531   225A      1.008494  
     226A      1.010185   227A      1.012210   228A      1.021259  
     229A      1.022290   230A      1.032458   231A      1.034548  
     232A      1.036899   233A      1.047254   234A      1.047990  
     235A      1.057968   236A      1.058959   237A      1.059939  
     238A      1.061916   239A      1.068345   240A      1.076340  
     241A      1.086558   242A      1.087500   243A      1.091948  
     244A      1.100848   245A      1.104905   246A      1.106292  
     247A      1.108795   248A      1.114859   249A      1.115946  
     250A      1.120898   251A      1.124337   252A      1.128265  
     253A      1.129949   254A      1.135709   255A      1.137699  
     256A      1.142972   257A      1.143749   258A      1.148112  
     259A      1.160264   260A      1.160625   261A      1.163615  
     262A      1.168283   263A      1.169386   264A      1.174224  
     265A      1.188579   266A      1.192309   267A      1.194718  
     268A      1.201082   269A      1.212269   270A      1.219055  
     271A      1.224605   272A      1.229075   273A      1.237263  
     274A      1.239333   275A      1.245769   276A      1.254012  
     277A      1.258768   278A      1.259928   279A      1.269004  
     280A      1.271627   281A      1.277071   282A      1.280205  
     283A      1.291462   284A      1.294714   285A      1.299296  
     286A      1.299396   287A      1.307598   288A      1.314227  
     289A      1.315749   290A      1.321053   291A      1.322310  
     292A      1.323065   293A      1.328913   294A      1.337726  
     295A      1.341859   296A      1.345109   297A      1.347581  
     298A      1.351206   299A      1.357376   300A      1.372330  
     301A      1.376399   302A      1.379338   303A      1.382883  
     304A      1.396433   305A      1.396483   306A      1.406977  
     307A      1.408978   308A      1.422495   309A      1.428007  
     310A      1.436181   311A      1.437742   312A      1.441519  
     313A      1.449280   314A      1.460287   315A      1.470383  
     316A      1.474336   317A      1.477577   318A      1.480802  
     319A      1.495210   320A      1.507956   321A      1.512187  
     322A      1.520015   323A      1.524461   324A      1.533079  
     325A      1.548034   326A      1.549279   327A      1.558007  
     328A      1.568645   329A      1.576776   330A      1.588545  
     331A      1.594409   332A      1.605993   333A      1.614287  
     334A      1.615347   335A      1.629417   336A      1.630042  
     337A      1.643414   338A      1.643531   339A      1.651078  
     340A      1.671920   341A      1.683064   342A      1.688406  
     343A      1.698494   344A      1.707766   345A      1.718657  
     346A      1.736955   347A      1.742206   348A      1.749742  
     349A      1.761925   350A      1.770281   351A      1.774002  
     352A      1.781063   353A      1.782042   354A      1.798296  
     355A      1.802476   356A      1.804450   357A      1.816617  
     358A      1.829006   359A      1.831930   360A      1.836957  
     361A      1.840714   362A      1.844539   363A      1.852924  
     364A      1.862185   365A      1.867129   366A      1.872817  
     367A      1.893885   368A      1.897871   369A      1.922241  
     370A      1.929108   371A      1.936762   372A      1.943994  
     373A      1.947259   374A      1.952567   375A      1.962242  
     376A      1.963607   377A      1.978368   378A      1.982868  
     379A      1.995679   380A      2.005536   381A      2.016307  
     382A      2.025418   383A      2.026443   384A      2.032315  
     385A      2.042736   386A      2.062046   387A      2.067587  
     388A      2.069535   389A      2.081973   390A      2.094137  
     391A      2.095015   392A      2.100271   393A      2.106289  
     394A      2.116936   395A      2.120799   396A      2.130900  
     397A      2.135480   398A      2.146333   399A      2.149543  
     400A      2.161396   401A      2.162139   402A      2.171336  
     403A      2.174869   404A      2.179867   405A      2.179890  
     406A      2.188972   407A      2.194750   408A      2.199183  
     409A      2.207185   410A      2.224778   411A      2.229585  
[...]
	 R(4,11)          =         2.713692	       1.436024
	 R(4,17)          =         2.044531	       1.081919
	 R(5,7)           =         2.611966	       1.382193
	 R(5,10)          =         2.653634	       1.404243
	 R(5,18)          =         2.038983	       1.078983
	 R(6,8)           =         2.611984	       1.382202
	 R(6,10)          =         2.653595	       1.404222
	 R(6,19)          =         2.038983	       1.078983
	 R(7,12)          =         2.531347	       1.339531
	 R(7,20)          =         2.046848	       1.083145
	 R(8,12)          =         2.531327	       1.339521
	 R(8,21)          =         2.046845	       1.083144
	 R(9,10)          =         2.721381	       1.440093
	 R(11,13)         =         2.384693	       1.261925
	 B(1,3,11)        =         2.146538	     122.987546
	 B(1,3,16)        =         2.095181	     120.045031
	 B(1,9,2)         =         2.024186	     115.977334
	 B(1,9,10)        =         2.129375	     122.004211
	 B(2,4,11)        =         2.146585	     122.990246
	 B(2,4,17)        =         2.095165	     120.044139
	 B(2,9,10)        =         2.129618	     122.018134
	 B(3,1,9)         =         2.135254	     122.341051
	 B(3,1,14)        =         2.061751	     118.129643
	 B(3,11,4)        =         1.978554	     113.362814
	 B(3,11,13)       =         2.152335	     123.319726
	 B(4,2,9)         =         2.135208	     122.338433
	 B(4,2,15)        =         2.061735	     118.128725
	 B(4,11,13)       =         2.152296	     123.317452
	 B(5,7,12)        =         2.174999	     124.618261
	 B(5,7,20)        =         2.083324	     119.365700
	 B(5,10,6)        =         1.986907	     113.841405
	 B(5,10,9)        =         2.148038	     123.073514
	 B(6,8,12)        =         2.175035	     124.620334
	 B(6,8,21)        =         2.083312	     119.364981
	 B(6,10,9)        =         2.148238	     123.084943
	 B(7,5,10)        =         2.113168	     121.075632
	 B(7,5,18)        =         2.069349	     118.564943
	 B(7,12,8)        =         2.003097	     114.769001
	 B(8,6,10)        =         2.113142	     121.074116
	 B(8,6,19)        =         2.069330	     118.563856
	 B(9,1,14)        =         2.085734	     119.503733
	 B(9,2,15)        =         2.085779	     119.506349
	 B(10,5,18)       =         2.100484	     120.348871
	 B(10,6,19)       =         2.100521	     120.351001
	 B(11,3,16)       =         2.041427	     116.965136
	 B(11,4,17)       =         2.041398	     116.963504
	 B(12,7,20)       =         2.024830	     116.014187
	 B(12,8,21)       =         2.024808	     116.012965
	 D(1,3,11,4)      =         0.004730	       0.271020
	 D(1,3,11,13)     =        -3.137415	    -179.760649
	 D(1,9,2,4)       =         0.005505	       0.315439
	 D(1,9,2,15)      =         3.113795	     178.407300
	 D(1,9,10,5)      =        -0.261507	     -14.983262
	 D(1,9,10,6)      =         2.882596	     165.160603
	 D(2,4,11,3)      =         0.003601	       0.206311
	 D(2,4,11,13)     =        -3.137439	    -179.762021
	 D(2,9,1,3)       =         0.002820	       0.161576
	 D(2,9,1,14)      =         3.111693	     178.286866
	 D(2,9,10,5)      =         2.883830	     165.231300
	 D(2,9,10,6)      =        -0.255252	     -14.624835
	 D(3,1,9,10)      =        -3.135241	    -179.636055
	 D(3,11,4,17)     =        -3.128754	    -179.264409
	 D(4,2,9,10)      =        -3.139620	    -179.886960
	 D(4,11,3,16)     =        -3.127249	    -179.178155
	 D(5,7,12,8)      =        -0.002822	      -0.161701
	 D(5,10,6,8)      =        -0.001800	      -0.103148
	 D(5,10,6,19)     =         3.118405	     178.671460
	 D(6,8,12,7)      =        -0.003150	      -0.180502
	 D(6,10,5,7)      =        -0.003703	      -0.212145
	 D(6,10,5,18)     =         3.116967	     178.589064
	 D(7,5,10,9)      =         3.140190	     179.919640
	 D(7,12,8,21)     =        -3.136331	    -179.698504
	 D(8,6,10,9)      =         3.137492	     179.765051
	 D(8,12,7,20)     =        -3.135688	    -179.661700
	 D(9,1,3,11)      =        -0.008124	      -0.465492
	 D(9,1,3,16)      =         3.123570	     178.967360
	 D(9,2,4,11)      =        -0.008928	      -0.511509
	 D(9,2,4,17)      =         3.123154	     178.943523
	 D(9,10,5,18)     =        -0.022325	      -1.279152
	 D(9,10,6,19)     =        -0.025488	      -1.460341
	 D(10,5,7,12)     =         0.006433	       0.368576
	 D(10,5,7,20)     =         3.139027	     179.852982
	 D(10,6,8,12)     =         0.005571	       0.319190
	 D(10,6,8,21)     =         3.138489	     179.822160
	 D(10,9,1,14)     =        -0.026368	      -1.510766
	 D(10,9,2,15)     =        -0.031330	      -1.795099
	 D(11,3,1,14)     =        -3.117426	    -178.615364
	 D(11,4,2,15)     =        -3.117655	    -178.628456
	 D(12,7,5,18)     =        -3.114602	    -178.453534
	 D(12,8,6,19)     =        -3.115008	    -178.476821
	 D(13,11,3,16)    =         0.013791	       0.790176
	 D(13,11,4,17)    =         0.013391	       0.767259
	 D(14,1,3,16)     =         0.014268	       0.817489
	 D(15,2,4,17)     =         0.014426	       0.826576
	 D(18,5,7,20)     =         0.017992	       1.030872
	 D(19,6,8,21)     =         0.017910	       1.026148

	Current energy   :      -553.1793060369

	Energy change for the previous step:
		Projected    :        -0.0000052308
		Actual       :        -0.0000010368

	Performing BFGS update.
	Previous computed or guess Hessian on step 1.
	Steps to be used in Hessian update: 6 5
	Adding user-defined constraint: Fragment 1; Coordinate 61:
		Value =    -0.261507; Fixed value    =    -0.261800
		Force =    -0.000190; Force constant =     0.650000
	Removing off-diagonal coupling between coordinate 61 and others.
	Taking RFO optimization step.
	Going to follow RFO solution 1.
	Using RFO vector 1.
	Norm of target step-size    0.00253
	Projected energy change by RFO approximation:        -0.0000009258

	Back-transformation to cartesian coordinates...
	Successfully converged to displaced geometry.

	--- Internal Coordinate Step in ANG or DEG, aJ/ANG or AJ/DEG ---
	 ---------------------------------------------------------------------------
	   Coordinate                Previous        Force       Change         New 
	   ----------                --------       ------       ------       ------
	    1 R(1,3)          =      1.375372    -0.000056    -0.000007     1.375365
	    2 R(1,9)          =      1.405858    -0.000077    -0.000007     1.405851
	    3 R(1,14)         =      1.082210    -0.000007    -0.000003     1.082207
	    4 R(2,4)          =      1.375371    -0.000066    -0.000008     1.375363
	    5 R(2,9)          =      1.405840    -0.000000    -0.000001     1.405839
	    6 R(2,15)         =      1.082210    -0.000046    -0.000006     1.082204
	    7 R(3,11)         =      1.436013    -0.000159    -0.000030     1.435984
	    8 R(3,16)         =      1.081915    -0.000034    -0.000009     1.081906
	    9 R(4,11)         =      1.436024    -0.000181    -0.000033     1.435991
	   10 R(4,17)         =      1.081919    -0.000038    -0.000009     1.081910
	   11 R(5,7)          =      1.382193    -0.000056    -0.000008     1.382185
	   12 R(5,10)         =      1.404243     0.000022     0.000002     1.404245
	   13 R(5,18)         =      1.078983     0.000036     0.000004     1.078988
	   14 R(6,8)          =      1.382202    -0.000059    -0.000007     1.382195
	   15 R(6,10)         =      1.404222     0.000120     0.000012     1.404234
	   16 R(6,19)         =      1.078983    -0.000003     0.000001     1.078984
	   17 R(7,12)         =      1.339531     0.000054     0.000018     1.339549
	   18 R(7,20)         =      1.083145     0.000037     0.000006     1.083151
	   19 R(8,12)         =      1.339521     0.000048     0.000016     1.339537
	   20 R(8,21)         =      1.083144     0.000046     0.000007     1.083151
	   21 R(9,10)         =      1.440093     0.000338     0.000035     1.440127
	   22 R(11,13)        =      1.261925     0.000248     0.000031     1.261957
	   23 B(1,3,11)       =    122.987546    -0.000001    -0.004968   122.982578
	   24 B(1,3,16)       =    120.045031     0.000001     0.008513   120.053545
	   25 B(1,9,2)        =    115.977334     0.000001     0.005734   115.983068
	   26 B(1,9,10)       =    122.004211    -0.000000    -0.001927   122.002283
	   27 B(2,4,11)       =    122.990246    -0.000001    -0.005886   122.984359
	   28 B(2,4,17)       =    120.044139     0.000002     0.008922   120.053061
	   29 B(2,9,10)       =    122.018134    -0.000001    -0.003787   122.014346
	   30 B(3,1,9)        =    122.341051    -0.000001    -0.003022   122.338029
	   31 B(3,1,14)       =    118.129643     0.000002     0.009769   118.139412
	   32 B(3,11,4)       =    113.362814     0.000002     0.009918   113.372732
	   33 B(3,11,13)      =    123.319726    -0.000001    -0.005172   123.314554
	   34 B(4,2,9)        =    122.338433    -0.000000    -0.002219   122.336214
	   35 B(4,2,15)       =    118.128725     0.000002     0.009097   118.137822
	   36 B(4,11,13)      =    123.317452    -0.000001    -0.004738   123.312714
	   37 B(5,7,12)       =    124.618261    -0.000000     0.000306   124.618568
	   38 B(5,7,20)       =    119.365700     0.000000     0.001371   119.367071
	   39 B(5,10,6)       =    113.841405    -0.000000    -0.000526   113.840879
	   40 B(5,10,9)       =    123.073514     0.000000     0.001401   123.074915
	   41 B(6,8,12)       =    124.620334    -0.000000     0.000012   124.620346
	   42 B(6,8,21)       =    119.364981     0.000000     0.001180   119.366161
	   43 B(6,10,9)       =    123.084943     0.000000    -0.000893   123.084050
	   44 B(7,5,10)       =    121.075632     0.000000     0.000594   121.076226
	   45 B(7,5,18)       =    118.564943    -0.000001    -0.004438   118.560505
	   46 B(7,12,8)       =    114.769001     0.000000    -0.000753   114.768248
	   47 B(8,6,10)       =    121.074116     0.000000     0.000620   121.074735
	   48 B(8,6,19)       =    118.563856    -0.000001    -0.004647   118.559210
	   49 B(9,1,14)       =    119.503733    -0.000001    -0.007561   119.496172
	   50 B(9,2,15)       =    119.506349    -0.000001    -0.007754   119.498594
	   51 B(10,5,18)      =    120.348871     0.000000     0.003450   120.352321
	   52 B(10,6,19)      =    120.351001     0.000001     0.003626   120.354627
	   53 B(11,3,16)      =    116.965136    -0.000000    -0.003441   116.961695
	   54 B(11,4,17)      =    116.963504    -0.000000    -0.002907   116.960597
	   55 B(12,7,20)      =    116.014187    -0.000000    -0.001457   116.012730
	   56 B(12,8,21)      =    116.012965    -0.000000    -0.000940   116.012025
	   57 D(1,3,11,4)     =      0.271020    -0.000000     0.000139     0.271159
	   58 D(1,3,11,13)    =   -179.760649     0.000000     0.041296  -179.719353
	   59 D(1,9,2,4)      =      0.315439     0.000000     0.017618     0.333057
	   60 D(1,9,2,15)     =    178.407300    -0.000000    -0.013493   178.393807
	   61 D(1,9,10,5)     =    -14.983262     0.000000     0.000080   -14.983182
	   62 D(1,9,10,6)     =    165.160603     0.000000     0.008912   165.169515
	   63 D(2,4,11,3)     =      0.206311     0.000000     0.041003     0.247314
	   64 D(2,4,11,13)    =   -179.762021    -0.000000    -0.000153  -179.762174
	   65 D(2,9,1,3)      =      0.161576     0.000000     0.023517     0.185093
	   66 D(2,9,1,14)     =    178.286866    -0.000000    -0.005877   178.280989
	   67 D(2,9,10,5)     =    165.231300     0.000000    -0.006441   165.224859
	   68 D(2,9,10,6)     =    -14.624835     0.000000     0.002392   -14.622444
	   69 D(3,1,9,10)     =   -179.636055     0.000000     0.017385  -179.618671
	   70 D(3,11,4,17)    =   -179.264409     0.000000     0.024540  -179.239869
	   71 D(4,2,9,10)     =   -179.886960     0.000000     0.023756  -179.863205
	   72 D(4,11,3,16)    =   -179.178155    -0.000000    -0.012673  -179.190828
	   73 D(5,7,12,8)     =     -0.161701     0.000000     0.018165    -0.143536
	   74 D(5,10,6,8)     =     -0.103148     0.000000     0.022165    -0.080982
	   75 D(5,10,6,19)    =    178.671460    -0.000000     0.000059   178.671519
	   76 D(6,8,12,7)     =     -0.180502     0.000000     0.019966    -0.160535
	   77 D(6,10,5,7)     =     -0.212145     0.000000     0.012964    -0.199180
	   78 D(6,10,5,18)    =    178.589064    -0.000000    -0.009258   178.579806
	   79 D(7,5,10,9)     =    179.919640     0.000000     0.021056   179.940695
	   80 D(7,12,8,21)    =   -179.698504    -0.000000    -0.016753  -179.715257
	   81 D(8,6,10,9)     =    179.765051     0.000000     0.014076   179.779127
	   82 D(8,12,7,20)    =   -179.661700    -0.000000    -0.012509  -179.674209
	   83 D(9,1,3,11)     =     -0.465492    -0.000000    -0.032429    -0.497921
	   84 D(9,1,3,16)     =    178.967360    -0.000000    -0.019302   178.948058
	   85 D(9,2,4,11)     =     -0.511509    -0.000000    -0.051744    -0.563254
	   86 D(9,2,4,17)     =    178.943523    -0.000000    -0.034854   178.908668
	   87 D(9,10,5,18)    =     -1.279152    -0.000000    -0.001167    -1.280318
	   88 D(9,10,6,19)    =     -1.460341     0.000000    -0.008030    -1.468371
	   89 D(10,5,7,12)    =      0.368576    -0.000000    -0.035318     0.333258
	   90 D(10,5,7,20)    =    179.852982    -0.000000    -0.003700   179.849281
	   91 D(10,6,8,12)    =      0.319190    -0.000000    -0.041316     0.277874
	   92 D(10,6,8,21)    =    179.822160     0.000000    -0.003460   179.818699
	   93 D(10,9,1,14)    =     -1.510766    -0.000000    -0.012009    -1.522775
	   94 D(10,9,2,15)    =     -1.795099    -0.000000    -0.007356    -1.802455
	   95 D(11,3,1,14)    =   -178.615364    -0.000000    -0.003109  -178.618473
	   96 D(11,4,2,15)    =   -178.628456    -0.000000    -0.020733  -178.649189
	   97 D(12,7,5,18)    =   -178.453534    -0.000000    -0.013577  -178.467110
	   98 D(12,8,6,19)    =   -178.476821    -0.000000    -0.019696  -178.496517
	   99 D(13,11,3,16)   =      0.790176     0.000000     0.028484     0.818661
	  100 D(13,11,4,17)   =      0.767259    -0.000000    -0.016616     0.750643
	  101 D(14,1,3,16)    =      0.817489     0.000000     0.010018     0.827506
	  102 D(15,2,4,17)    =      0.826576    -0.000000    -0.003843     0.822733
	  103 D(18,5,7,20)    =      1.030872     0.000000     0.018041     1.048913
	  104 D(19,6,8,21)    =      1.026148     0.000000     0.018160     1.044308
	 ---------------------------------------------------------------------------
	Successfully symmetrized geometry.
	 Forces used to impose fixed constraints are not included.
	  Forces zeroed: 61 

  ==> Convergence Check <==

  Measures of convergence in internal coordinates in au.
  Criteria marked as inactive (o), active & met (*), and active & unmet ( ).
  ---------------------------------------------------------------------------------------------
   Step     Total Energy     Delta E     MAX Force     RMS Force      MAX Disp      RMS Disp   
  ---------------------------------------------------------------------------------------------
    Convergence Criteria    1.00e-06 *    3.00e-04 *             o    1.20e-03 *             o
  ---------------------------------------------------------------------------------------------
      7    -553.17930604   -1.04e-06      4.10e-05 *    1.16e-05 o    9.03e-04 *    2.49e-04 o  ~
  ---------------------------------------------------------------------------------------------


  **** Optimization is complete! (in 7 steps) ****

  ==> Optimization Summary <==

  Measures of convergence in internal coordinates in au.
  --------------------------------------------------------------------------------------------------------------- ~
   Step         Total Energy             Delta E       MAX Force       RMS Force        MAX Disp        RMS Disp  ~
  --------------------------------------------------------------------------------------------------------------- ~
      1    -553.167795031148   -553.167795031148      0.02645993      0.00775686      0.03485283      0.00979239  ~
      2    -553.174049712562     -0.006254681414      0.01758696      0.00475348      0.03845768      0.00979313  ~
      3    -553.177674437152     -0.003624724591      0.00919066      0.00246790      0.03575244      0.00979525  ~
      4    -553.179165054624     -0.001490617472      0.00250519      0.00061766      0.02070113      0.00749537  ~
      5    -553.179301637129     -0.000136582505      0.00050697      0.00009095      0.00760660      0.00203290  ~
      6    -553.179305000056     -0.000003362927      0.00010601      0.00003735      0.00304984      0.00077872  ~
      7    -553.179306036894     -0.000001036838      0.00004101      0.00001165      0.00090311      0.00024852  ~
  --------------------------------------------------------------------------------------------------------------- ~

	Writing optimization data to binary file.
	Final energy is   -553.1793060368942
	Final (previous) structure:
	Cartesian Geometry (in Angstrom)
	    C    -1.3069091601   0.7314348652  -0.5353163206
	    C    -0.3220985780   0.1328370177   1.5517984335
	    C    -2.3712068132   1.3033236680   0.1218463302
	    C    -1.3845336479   0.6922864696   2.2225386253
	    C     0.8542081498  -0.7582595816  -1.9199785629
	    C     2.0828769441  -0.8023496693   0.0865732215
	    C     1.9491469873  -1.3234301215  -2.5461958625
	    C     3.1250017181  -1.3716505360  -0.6207848067
	    C    -0.2387337715   0.1248918339   0.1484550889
	    C     0.8759001921  -0.4650093422  -0.5468685357
	    C    -2.4879157194   1.3219017923   1.5529885048
	    N     3.0956186675  -1.6439344362  -1.9320109960
	    O    -3.4635787589   1.8408973518   2.1622347117
	    H    -1.2876483553   0.7822110019  -1.6161632898
	    H     0.4566142384  -0.3415143724   2.1347012812
	    H    -3.1655224290   1.7749727215  -0.4413146543
	    H    -1.4189752332   0.6625707244   3.3035008798
	    H    -0.0308423146  -0.5626164897  -2.5053116537
	    H     2.2214110599  -0.6023044173   1.1377604844
	    H     1.9013663967  -1.5403723369  -3.6063168067
	    H     4.0449356932  -1.6182147139  -0.1049089620
	Saving final (previous) structure.
			--------------------------
			 OPTKING Finished Execution 
			--------------------------

    Final optimized geometry and variables:
    Molecular point group: c1
    Full point group: C1

    Geometry (in Angstrom), charge = -1, multiplicity = 1:

    C           -1.306909160125     0.731434865239    -0.535316320599
    C           -0.322098578046     0.132837017725     1.551798433521
    C           -2.371206813236     1.303323667962     0.121846330187
    C           -1.384533647879     0.692286469565     2.222538625286
    C            0.854208149816    -0.758259581599    -1.919978562884
    C            2.082876944078    -0.802349669305     0.086573221526
    C            1.949146987288    -1.323430121504    -2.546195862485
    C            3.125001718107    -1.371650535973    -0.620784806699
    C           -0.238733771549     0.124891833909     0.148455088939
    C            0.875900192134    -0.465009342209    -0.546868535700
    C           -2.487915719434     1.321901792334     1.552988504833
    N            3.095618667488    -1.643934436220    -1.932010995978
    O           -3.463578758899     1.840897351809     2.162234711742
    H           -1.287648355253     0.782211001896    -1.616163289836
    H            0.456614238425    -0.341514372366     2.134701281187
    H           -3.165522429047     1.774972721481    -0.441314654288
    H           -1.418975233188     0.662570724402     3.303500879760
    H           -0.030842314616    -0.562616489720    -2.505311653688
    H            2.221411059877    -0.602304417273     1.137760484448
    H            1.901366396708    -1.540372336914    -3.606316806672
    H            4.044935693151    -1.618214713870    -0.104908962041

	Cleaning optimization helper files.

*** Psi4 exiting successfully. Buy a developer a beer!
