
    -----------------------------------------------------------------------
          Psi4: An Open-Source Ab Initio Electronic Structure Package
                               Psi4 1.1 release

                         Git: Rev {HEAD} add49b9 


    R. M. Parrish, L. A. Burns, D. G. A. Smith, A. C. Simmonett,
    A. E. DePrince III, E. G. Hohenstein, U. Bozkaya, A. Yu. Sokolov,
    R. Di Remigio, R. M. Richard, J. F. Gonthier, A. M. James,
    H. R. McAlexander, A. Kumar, M. Saitow, X. Wang, B. P. Pritchard,
    P. Verma, H. F. Schaefer III, K. Patkowski, R. A. King, E. F. Valeev,
    F. A. Evangelista, J. M. Turney, T. D. Crawford, and C. D. Sherrill,
    J. Chem. Theory Comput. in press (2017).
    (doi: 10.1021/acs.jctc.7b00174)

    -----------------------------------------------------------------------


    Psi4 started on: Saturday, 11 November 2017 06:12PM

    Process ID:  21293
    PSIDATADIR: /cbio/jclab/home/chayas/anaconda/envs/py35/share/psi4
    Memory:     500.0 MiB
    Threads:    8
    
  ==> Input File <==

--------------------------------------------------------------------------

memory 5 Gb

molecule phepyrF {
  symmetry C1
  0 1 
  C      1.885   -1.036   -0.112
  C      0.807   -0.463   0.561
  C      2.921   -1.631   0.608
  C      0.764   -0.484   1.955
  C      3.895   -3.620   3.070
  C      5.056   -1.515   3.136
  C      4.952   -4.165   3.781
  C      6.061   -2.154   3.844
  C      2.878   -1.652   2.002
  C      3.955   -2.270   2.745
  C      1.800   -1.079   2.676
  N      6.038   -3.463   4.178
  F      1.744   -1.089   4.016
  H      1.918   -1.020   -1.198
  H      0.000   -0.000   -0.000
  H      3.755   -2.073   0.068
  H      -0.076   -0.038   2.480
  H      3.053   -4.242   2.782
  H      5.138   -0.459   2.901
  H      4.954   -5.214   4.057
  H      6.940   -1.609   4.173
  units Angstrom
}

dih_string = "3 9 10 5 270"
set optking fixed_dihedral = $dih_string

optimize('MP2/aug-cc-PVTZ')
--------------------------------------------------------------------------

  Memory set to   4.657 GiB by Python driver.
gradient() will perform analytic gradient computation.

*** tstart() called on gpu-2-11.local
*** at Sat Nov 11 18:12:58 2017

    SCF Algorithm Type (re)set to DF.

*** tstart() called on gpu-2-11.local
*** at Sat Nov 11 18:12:58 2017

   => Loading Basis Set <=

    Name: AUG-CC-PVTZ
    Role: ORBITAL
    Keyword: BASIS
    atoms 1-11  entry C          line   221 file /cbio/jclab/home/chayas/anaconda/envs/py35/share/psi4/basis/aug-cc-pvtz.gbs 
    atoms 12    entry N          line   267 file /cbio/jclab/home/chayas/anaconda/envs/py35/share/psi4/basis/aug-cc-pvtz.gbs 
    atoms 13    entry F          line   359 file /cbio/jclab/home/chayas/anaconda/envs/py35/share/psi4/basis/aug-cc-pvtz.gbs 
    atoms 14-21 entry H          line    34 file /cbio/jclab/home/chayas/anaconda/envs/py35/share/psi4/basis/aug-cc-pvtz.gbs 


         ---------------------------------------------------------
                                   SCF
            by Justin Turney, Rob Parrish, and Andy Simmonett
                              RHF Reference
                        8 Threads,   4768 MiB Core
         ---------------------------------------------------------

  ==> Geometry <==

    Molecular point group: c1
    Full point group: C1

    Geometry (in Angstrom), charge = 0, multiplicity = 1:

       Center              X                  Y                   Z               Mass       
    ------------   -----------------  -----------------  -----------------  -----------------
           C         -1.369602264787     0.840643535467    -2.662366722068    12.000000000000
           C         -2.447602264787     1.413643535467    -1.989366722068    12.000000000000
           C         -0.333602264787     0.245643535467    -1.942366722068    12.000000000000
           C         -2.490602264787     1.392643535467    -0.595366722068    12.000000000000
           C          0.640397735213    -1.743356464533     0.519633277932    12.000000000000
           C          1.801397735213     0.361643535467     0.585633277932    12.000000000000
           C          1.697397735213    -2.288356464533     1.230633277932    12.000000000000
           C          2.806397735213    -0.277356464533     1.293633277932    12.000000000000
           C         -0.376602264787     0.224643535467    -0.548366722068    12.000000000000
           C          0.700397735213    -0.393356464533     0.194633277932    12.000000000000
           C         -1.454602264787     0.797643535467     0.125633277932    12.000000000000
           N          2.783397735213    -1.586356464533     1.627633277932    14.003074004780
           F         -1.510602264787     0.787643535467     1.465633277932    18.998403224000
           H         -1.336602264787     0.856643535467    -3.748366722068     1.007825032070
           H         -3.254602264787     1.876643535467    -2.550366722068     1.007825032070
           H          0.500397735213    -0.196356464533    -2.482366722068     1.007825032070
           H         -3.330602264787     1.838643535467    -0.070366722068     1.007825032070
           H         -0.201602264787    -2.365356464533     0.231633277932     1.007825032070
           H          1.883397735213     1.417643535467     0.350633277932     1.007825032070
           H          1.699397735213    -3.337356464533     1.506633277932     1.007825032070
           H          3.685397735213     0.267643535467     1.622633277932     1.007825032070

  Running in c1 symmetry.

  Rotational constants: A =      0.06382  B =      0.01727  C =      0.01573 [cm^-1]
  Rotational constants: A =   1913.25378  B =    517.69546  C =    471.56093 [MHz]
  Nuclear repulsion =  714.309910758161209

  Charge       = 0
  Multiplicity = 1
  Electrons    = 90
  Nalpha       = 45
  Nbeta        = 45

  ==> Algorithm <==

  SCF Algorithm Type is DF.
  DIIS enabled.
  MOM disabled.
  Fractional occupation disabled.
  Guess Type is SAD.
  Energy threshold   = 1.00e-10
  Density threshold  = 1.00e-10
  Integral threshold = 0.00e+00

  ==> Primary Basis <==

  Basis Set: AUG-CC-PVTZ
    Blend: AUG-CC-PVTZ
    Number of shells: 254
    Number of basis function: 782
    Number of Cartesian functions: 915
    Spherical Harmonics?: true
    Max angular momentum: 3

   => Loading Basis Set <=

    Name: (AUG-CC-PVTZ AUX)
    Role: JKFIT
    Keyword: DF_BASIS_SCF
    atoms 1-11  entry C          line   161 file /cbio/jclab/home/chayas/anaconda/envs/py35/share/psi4/basis/aug-cc-pvtz-jkfit.gbs 
    atoms 12    entry N          line   223 file /cbio/jclab/home/chayas/anaconda/envs/py35/share/psi4/basis/aug-cc-pvtz-jkfit.gbs 
    atoms 13    entry F          line   347 file /cbio/jclab/home/chayas/anaconda/envs/py35/share/psi4/basis/aug-cc-pvtz-jkfit.gbs 
    atoms 14-21 entry H          line    69 file /cbio/jclab/home/chayas/anaconda/envs/py35/share/psi4/basis/aug-cc-pvtz-jkfit.gbs 

  ==> Pre-Iterations <==

   -------------------------------------------------------
    Irrep   Nso     Nmo     Nalpha   Nbeta   Ndocc  Nsocc
   -------------------------------------------------------
     A        782     782       0       0       0       0
   -------------------------------------------------------
    Total     782     782      45      45      45       0
   -------------------------------------------------------

  ==> Integral Setup <==

  ==> DFJK: Density-Fitted J/K Matrices <==

    J tasked:                  Yes
    K tasked:                  Yes
    wK tasked:                  No
    OpenMP threads:              8
    Integrals threads:           8
    Memory (MB):              3576
    Algorithm:                Disk
    Integral Cache:           NONE
    Schwarz Cutoff:          1E-12
    Fitting Condition:       1E-12

   => Auxiliary Basis Set <=

  Basis Set: (AUG-CC-PVTZ AUX)
    Blend: AUG-CC-PVTZ-JKFIT
    Number of shells: 502
    Number of basis function: 1720
    Number of Cartesian functions: 2143
    Spherical Harmonics?: true
    Max angular momentum: 4

  Minimum eigenvalue in the overlap matrix is 6.6976859229E-07.
  Using Symmetric Orthogonalization.

  SCF Guess: Superposition of Atomic Densities via on-the-fly atomic UHF.

  ==> Iterations <==

                           Total Energy        Delta E     RMS |[F,P]|

   @DF-RHF iter   0:  -580.09723926050719   -5.80097e+02   2.17874e-02 
   @DF-RHF iter   1:  -574.91932884374091    5.17791e+00   2.24798e-03 
   @DF-RHF iter   2:  -575.22717147649280   -3.07843e-01   5.80945e-04 DIIS
   @DF-RHF iter   3:  -575.26918654456006   -4.20151e-02   3.60838e-04 DIIS
   @DF-RHF iter   4:  -575.28107302243950   -1.18865e-02   1.26288e-04 DIIS
   @DF-RHF iter   5:  -575.28219159317337   -1.11857e-03   4.93014e-05 DIIS
   @DF-RHF iter   6:  -575.28240177389921   -2.10181e-04   2.00567e-05 DIIS
   @DF-RHF iter   7:  -575.28244005867225   -3.82848e-05   6.15792e-06 DIIS
   @DF-RHF iter   8:  -575.28244545629514   -5.39762e-06   2.12267e-06 DIIS
   @DF-RHF iter   9:  -575.28244636146724   -9.05172e-07   9.64443e-07 DIIS
   @DF-RHF iter  10:  -575.28244663369583   -2.72229e-07   5.28048e-07 DIIS
   @DF-RHF iter  11:  -575.28244672264429   -8.89485e-08   1.59744e-07 DIIS
   @DF-RHF iter  12:  -575.28244672956328   -6.91898e-09   6.16683e-08 DIIS
   @DF-RHF iter  13:  -575.28244672995743   -3.94152e-10   2.19660e-08 DIIS
   @DF-RHF iter  14:  -575.28244673000199   -4.45652e-11   5.84914e-09 DIIS
   @DF-RHF iter  15:  -575.28244672999574    6.25278e-12   2.01245e-09 DIIS
   @DF-RHF iter  16:  -575.28244672999722   -1.47793e-12   1.02629e-09 DIIS
   @DF-RHF iter  17:  -575.28244673001041   -1.31877e-11   3.16473e-10 DIIS
   @DF-RHF iter  18:  -575.28244673001325   -2.84217e-12   1.95289e-10 DIIS
   @DF-RHF iter  19:  -575.28244673000631    6.93490e-12   9.84334e-11 DIIS

  ==> Post-Iterations <==

    Orbital Energies (a.u.)
    -----------------------

    Doubly Occupied:                                                      

       1A    -26.320752     2A    -15.567862     3A    -11.340187  
       4A    -11.276841     5A    -11.276629     6A    -11.267456  
       7A    -11.260327     8A    -11.257510     9A    -11.256610  
      10A    -11.254350    11A    -11.249412    12A    -11.241614  
      13A    -11.241574    14A     -1.638954    15A     -1.252663  
      16A     -1.182546    17A     -1.113742    18A     -1.037012  
      19A     -1.033372    20A     -1.025482    21A     -0.891937  
      22A     -0.858443    23A     -0.858342    24A     -0.822570  
      25A     -0.755231    26A     -0.723495    27A     -0.711472  
      28A     -0.705737    29A     -0.668497    30A     -0.668028  
      31A     -0.651876    32A     -0.624708    33A     -0.612417  
      34A     -0.601290    35A     -0.587952    36A     -0.546716  
      37A     -0.530674    38A     -0.530501    39A     -0.513212  
      40A     -0.508078    41A     -0.421378    42A     -0.378812  
      43A     -0.357656    44A     -0.351330    45A     -0.346075  

    Virtual:                                                              

      46A      0.023326    47A      0.031390    48A      0.033808  
      49A      0.034949    50A      0.043583    51A      0.048718  
      52A      0.051413    53A      0.052691    54A      0.077073  
      55A      0.084892    56A      0.087916    57A      0.089764  
      58A      0.090995    59A      0.095845    60A      0.097896  
      61A      0.102100    62A      0.103756    63A      0.107938  
      64A      0.110895    65A      0.114196    66A      0.114648  
      67A      0.115923    68A      0.122870    69A      0.125835  
      70A      0.126886    71A      0.132167    72A      0.133256  
      73A      0.133447    74A      0.139820    75A      0.140488  
      76A      0.143732    77A      0.144550    78A      0.152409  
      79A      0.158214    80A      0.161662    81A      0.166731  
      82A      0.171000    83A      0.177132    84A      0.190138  
      85A      0.192487    86A      0.193555    87A      0.194416  
      88A      0.210141    89A      0.212359    90A      0.228894  
      91A      0.233272    92A      0.235349    93A      0.235742  
      94A      0.241001    95A      0.242549    96A      0.245916  
      97A      0.252338    98A      0.257213    99A      0.262149  
     100A      0.264703   101A      0.267674   102A      0.270625  
     103A      0.270979   104A      0.279110   105A      0.283761  
     106A      0.290338   107A      0.294548   108A      0.296580  
     109A      0.302770   110A      0.306293   111A      0.310322  
     112A      0.316364   113A      0.316502   114A      0.319596  
     115A      0.323509   116A      0.324033   117A      0.326047  
     118A      0.333533   119A      0.337125   120A      0.343836  
     121A      0.347564   122A      0.353701   123A      0.363294  
     124A      0.363810   125A      0.369079   126A      0.383575  
     127A      0.386779   128A      0.387597   129A      0.388617  
     130A      0.397585   131A      0.400299   132A      0.412126  
     133A      0.413885   134A      0.417528   135A      0.420661  
     136A      0.423136   137A      0.430125   138A      0.432270  
     139A      0.434758   140A      0.442017   141A      0.445647  
     142A      0.446517   143A      0.452681   144A      0.455499  
     145A      0.464393   146A      0.466023   147A      0.468797  
     148A      0.471972   149A      0.475744   150A      0.479107  
     151A      0.484895   152A      0.490496   153A      0.494484  
     154A      0.499161   155A      0.499896   156A      0.504003  
     157A      0.505416   158A      0.509565   159A      0.512809  
     160A      0.515428   161A      0.518182   162A      0.521198  
     163A      0.523664   164A      0.529101   165A      0.531397  
     166A      0.538967   167A      0.541480   168A      0.550802  
     169A      0.552051   170A      0.557688   171A      0.567030  
     172A      0.568421   173A      0.576805   174A      0.578619  
     175A      0.585048   176A      0.588880   177A      0.590695  
     178A      0.598197   179A      0.602315   180A      0.606893  
     181A      0.620113   182A      0.624962   183A      0.628556  
     184A      0.630250   185A      0.633049   186A      0.644259  
     187A      0.651190   188A      0.654673   189A      0.664795  
     190A      0.668215   191A      0.670269   192A      0.683376  
     193A      0.685396   194A      0.695285   195A      0.697947  
     196A      0.706919   197A      0.710357   198A      0.717092  
     199A      0.723086   200A      0.728900   201A      0.733948  
     202A      0.734881   203A      0.741080   204A      0.752214  
     205A      0.756287   206A      0.757914   207A      0.764820  
     208A      0.770189   209A      0.779209   210A      0.783391  
     211A      0.785668   212A      0.794200   213A      0.796198  
     214A      0.804659   215A      0.813045   216A      0.813639  
     217A      0.823453   218A      0.828304   219A      0.842119  
     220A      0.857125   221A      0.862058   222A      0.868218  
     223A      0.872574   224A      0.874952   225A      0.878380  
     226A      0.879664   227A      0.884287   228A      0.892292  
     229A      0.897549   230A      0.904923   231A      0.909567  
     232A      0.911104   233A      0.915302   234A      0.920503  
     235A      0.928516   236A      0.929566   237A      0.930931  
     238A      0.937068   239A      0.942272   240A      0.949511  
     241A      0.953349   242A      0.956185   243A      0.961182  
     244A      0.962459   245A      0.964480   246A      0.974282  
     247A      0.979488   248A      0.987306   249A      0.990277  
     250A      0.996675   251A      0.998867   252A      1.003124  
     253A      1.007868   254A      1.016092   255A      1.021316  
     256A      1.021929   257A      1.037078   258A      1.043827  
     259A      1.045346   260A      1.047140   261A      1.049198  
     262A      1.059688   263A      1.062167   264A      1.066734  
     265A      1.071643   266A      1.073599   267A      1.077909  
     268A      1.088915   269A      1.093920   270A      1.098033  
     271A      1.098720   272A      1.100991   273A      1.107110  
     274A      1.111171   275A      1.116921   276A      1.121314  
     277A      1.131132   278A      1.133753   279A      1.140239  
     280A      1.143435   281A      1.152498   282A      1.161172  
     283A      1.168849   284A      1.173698   285A      1.173819  
     286A      1.180429   287A      1.186455   288A      1.186779  
     289A      1.191356   290A      1.201846   291A      1.202028  
     292A      1.208731   293A      1.209791   294A      1.212357  
     295A      1.220381   296A      1.232260   297A      1.239227  
     298A      1.241581   299A      1.252224   300A      1.254885  
     301A      1.256679   302A      1.264042   303A      1.265479  
     304A      1.273091   305A      1.277834   306A      1.289963  
     307A      1.296195   308A      1.296339   309A      1.306314  
     310A      1.311370   311A      1.316319   312A      1.320869  
     313A      1.324244   314A      1.332467   315A      1.339581  
     316A      1.342501   317A      1.358524   318A      1.368933  
     319A      1.374505   320A      1.375414   321A      1.395561  
     322A      1.398789   323A      1.401308   324A      1.407369  
     325A      1.415732   326A      1.421038   327A      1.430096  
     328A      1.430333   329A      1.445325   330A      1.451557  
     331A      1.457106   332A      1.478402   333A      1.484226  
     334A      1.496223   335A      1.500810   336A      1.504296  
     337A      1.523869   338A      1.529551   339A      1.540053  
     340A      1.542431   341A      1.552203   342A      1.554975  
     343A      1.560874   344A      1.562143   345A      1.574677  
     346A      1.588247   347A      1.595550   348A      1.602912  
     349A      1.619444   350A      1.621735   351A      1.629731  
     352A      1.634286   353A      1.661172   354A      1.666844  
     355A      1.671379   356A      1.674381   357A      1.675054  
     358A      1.692640   359A      1.697433   360A      1.707185  
     361A      1.709229   362A      1.716362   363A      1.725931  
     364A      1.726085   365A      1.743239   366A      1.746089  
     367A      1.752645   368A      1.756621   369A      1.762165  
     370A      1.762895   371A      1.772908   372A      1.773175  
     373A      1.788614   374A      1.805519   375A      1.816631  
     376A      1.816949   377A      1.827633   378A      1.832628  
     379A      1.845272   380A      1.846883   381A      1.852057  
     382A      1.858097   383A      1.874093   384A      1.883469  
     385A      1.884279   386A      1.902460   387A      1.902588  
     388A      1.913369   389A      1.923670   390A      1.937244  
     391A      1.944793   392A      1.951402   393A      1.958336  
     394A      1.963447   395A      1.975276   396A      1.985199  
     397A      2.000297   398A      2.003860   399A      2.009458  
     400A      2.013221   401A      2.027425   402A      2.029755  
     403A      2.044293   404A      2.048131   405A      2.050970  
     406A      2.064759   407A      2.069175   408A      2.075617  
     409A      2.085519   410A      2.090696   411A      2.104003  
     412A      2.106416   413A      2.111981   414A      2.116499  
     415A      2.121846   416A      2.126861   417A      2.138169  
     418A      2.146842   419A      2.149626   420A      2.161630  
     421A      2.182519   422A      2.184320   423A      2.192141  
     424A      2.205659   425A      2.205720   426A      2.215703  
     427A      2.226632   428A      2.229048   429A      2.244586  
     430A      2.250624   431A      2.262767   432A      2.263266  
     433A      2.274717   434A      2.283874   435A      2.297704  
     436A      2.301555   437A      2.312195   438A      2.327468  
     439A      2.330670   440A      2.346063   441A      2.361664  
     442A      2.361960   443A      2.372097   444A      2.372245  
     445A      2.385108   446A      2.396875   447A      2.417494  
     448A      2.443775   449A      2.447688   450A      2.464687  
     451A      2.466390   452A      2.477426   453A      2.508712  
     454A      2.511022   455A      2.521178   456A      2.551521  
     457A      2.568424   458A      2.578629   459A      2.582019  
     460A      2.587425   461A      2.588893   462A      2.595223  
     463A      2.611640   464A      2.641783   465A      2.648879  
     466A      2.669018   467A      2.692558   468A      2.703866  
     469A      2.759168   470A      2.760391   471A      2.765604  
     472A      2.768526   473A      2.787969   474A      2.825111  
     475A      2.828708   476A      2.838494   477A      2.840170  
     478A      2.922036   479A      2.929186   480A      2.945676  
     481A      2.996662   482A      3.016054   483A      3.025205  
     484A      3.032174   485A      3.061592   486A      3.063341  
     487A      3.094554   488A      3.120824   489A      3.133508  
     490A      3.138247   491A      3.154108   492A      3.160692  
     493A      3.168073   494A      3.175821   495A      3.209451  
     496A      3.215824   497A      3.236637   498A      3.247004  
     499A      3.266715   500A      3.276679   501A      3.282851  
     502A      3.296462   503A      3.314359   504A      3.329085  
     505A      3.336336   506A      3.351741   507A      3.379799  
     508A      3.390303   509A      3.390447   510A      3.416634  
     511A      3.417553   512A      3.422078   513A      3.430309  
     514A      3.438858   515A      3.447658   516A      3.449499  
     517A      3.450569   518A      3.462367   519A      3.472673  
     520A      3.473625   521A      3.499119   522A      3.509159  
     523A      3.517518   524A      3.522737   525A      3.523476  
     526A      3.530428   527A      3.532173   528A      3.544034  
     529A      3.556747   530A      3.570587   531A      3.580555  
     532A      3.582613   533A      3.587118   534A      3.601819  
     535A      3.603761   536A      3.612522   537A      3.620011  
     538A      3.621526   539A      3.626605   540A      3.640096  
     541A      3.657787   542A      3.665841   543A      3.682256  
     544A      3.704268   545A      3.707002   546A      3.708573  
     547A      3.717757   548A      3.722678   549A      3.737260  
     550A      3.741695   551A      3.746090   552A      3.763397  
     553A      3.771089   554A      3.779495   555A      3.802251  
     556A      3.809595   557A      3.813717   558A      3.819611  
     559A      3.823015   560A      3.829866   561A      3.838050  
     562A      3.857852   563A      3.866866   564A      3.878095  
     565A      3.879934   566A      3.881267   567A      3.894278  
     568A      3.902444   569A      3.915816   570A      3.919176  
     571A      3.928962   572A      3.939707   573A      3.946296  
     574A      3.950063   575A      3.960784   576A      3.965967  
     577A      3.975519   578A      3.977078   579A      3.994197  
     580A      4.001247   581A      4.002072   582A      4.011822  
     583A      4.031638   584A      4.037312   585A      4.039624  
     586A      4.054975   587A      4.062701   588A      4.072720  
     589A      4.082919   590A      4.088029   591A      4.107718  
     592A      4.111905   593A      4.112927   594A      4.131547  
     595A      4.137226   596A      4.148340   597A      4.152474  
     598A      4.169393   599A      4.180691   600A      4.184283  
     601A      4.190797   602A      4.212014   603A      4.222945  
     604A      4.225417   605A      4.228061   606A      4.235888  
     607A      4.241666   608A      4.255893   609A      4.267451  
     610A      4.273437   611A      4.292113   612A      4.295072  
     613A      4.314605   614A      4.318133   615A      4.327212  
     616A      4.345667   617A      4.347175   618A      4.359214  
     619A      4.359845   620A      4.368660   621A      4.389955  
     622A      4.401956   623A      4.402931   624A      4.410699  
     625A      4.428037   626A      4.430472   627A      4.431154  
     628A      4.448365   629A      4.454940   630A      4.465129  
     631A      4.473099   632A      4.484652   633A      4.504990  
     634A      4.508215   635A      4.518375   636A      4.525629  
     637A      4.531287   638A      4.564442   639A      4.569954  
     640A      4.596600   641A      4.608026   642A      4.626045  
     643A      4.634088   644A      4.638144   645A      4.661095  
     646A      4.678356   647A      4.682424   648A      4.690113  
     649A      4.729928   650A      4.744438   651A      4.751612  
     652A      4.754809   653A      4.767833   654A      4.771139  
     655A      4.799441   656A      4.828536   657A      4.858921  
     658A      4.861156   659A      4.878101   660A      4.896349  
     661A      4.898125   662A      4.906799   663A      4.918724  
     664A      4.960102   665A      4.960911   666A      4.973136  
     667A      4.981287   668A      4.996591   669A      5.013968  
     670A      5.020827   671A      5.026367   672A      5.032861  
     673A      5.060038   674A      5.064399   675A      5.064698  
     676A      5.085163   677A      5.106092   678A      5.117427  
     679A      5.119420   680A      5.135165   681A      5.137746  
     682A      5.147998   683A      5.164683   684A      5.169439  
     685A      5.173386   686A      5.173688   687A      5.180970  
     688A      5.197818   689A      5.205565   690A      5.224436  
     691A      5.269584   692A      5.278163   693A      5.322538  
     694A      5.328532   695A      5.340298   696A      5.340638  
     697A      5.351094   698A      5.367802   699A      5.386865  
     700A      5.387201   701A      5.422601   702A      5.428874  
     703A      5.450970   704A      5.475400   705A      5.486086  
     706A      5.512803   707A      5.540082   708A      5.545590  
     709A      5.557615   710A      5.587466   711A      5.633094  
     712A      5.640513   713A      5.647994   714A      5.690185  
     715A      5.737583   716A      5.753555   717A      5.784856  
     718A      5.786518   719A      5.805479   720A      5.844883  
     721A      5.854109   722A      5.880704   723A      5.891775  
     724A      5.912515   725A      5.958788   726A      6.014435  
     727A      6.017885   728A      6.076506   729A      6.106542  
     730A      6.174472   731A      6.205735   732A      6.228391  
     733A      6.229624   734A      6.239755   735A      6.263995  
     736A      6.277054   737A      6.342531   738A      6.352338  
     739A      6.378833   740A      6.461630   741A      6.509361  
     742A      6.567071   743A      6.585896   744A      6.678226  
     745A      6.690900   746A      6.694285   747A      6.747856  
     748A      6.823679   749A      6.884247   750A      6.918144  
     751A      6.983361   752A      7.034284   753A      7.059753  
     754A      7.068138   755A      7.282045   756A      7.402152  
     757A      7.483475   758A      8.990421   759A      9.046086  
     760A      9.273427   761A      9.284323   762A      9.400303  
     763A      9.510773   764A      9.529562   765A      9.590098  
     766A      9.665097   767A      9.712298   768A     10.022580  
     769A     10.074887   770A     15.612607   771A     16.029069  
     772A     16.419809   773A     16.506500   774A     16.734978  
     775A     18.525343   776A     18.842360   777A     19.040980  
     778A     19.566853   779A     20.058314   780A     20.124835  
     781A     20.222513   782A     21.925690  

    Final Occupation by Irrep:
              A 
    DOCC [    45 ]

  Energy converged.

  @DF-RHF Final Energy:  -575.28244673000631

   => Energetics <=

    Nuclear Repulsion Energy =            714.3099107581612088
    One-Electron Energy =               -2200.5420732272154964
    Two-Electron Energy =                 910.9497157390480879
    DFT Exchange-Correlation Energy =       0.0000000000000000
    Empirical Dispersion Energy =           0.0000000000000000
    PCM Polarization Energy =               0.0000000000000000
    EFP Energy =                            0.0000000000000000
    Total Energy =                       -575.2824467300063134



Properties will be evaluated at   0.000000,   0.000000,   0.000000 Bohr

Properties computed using the SCF density matrix

  Nuclear Dipole Moment: (a.u.)
     X:     1.0843      Y:    -0.4027      Z:    -6.2059

  Electronic Dipole Moment: (a.u.)
     X:    -1.7927      Y:     0.8267      Z:     5.0817

  Dipole Moment: (a.u.)
     X:    -0.7084      Y:     0.4241      Z:    -1.1242     Total:     1.3948

  Dipole Moment: (Debye)
     X:    -1.8005      Y:     1.0779      Z:    -2.8574     Total:     3.5452


*** tstop() called on gpu-2-11.local at Sat Nov 11 18:20:09 2017
Module time:
	user time   =     964.51 seconds =      16.08 minutes
	system time =      49.35 seconds =       0.82 minutes
	total time  =        431 seconds =       7.18 minutes
Total time:
	user time   =     964.51 seconds =      16.08 minutes
	system time =      49.35 seconds =       0.82 minutes
	total time  =        431 seconds =       7.18 minutes

  //>>>>>>>>>>>>>>>>>>>>>>>>>>>>>>>>>>>//
  //               DFMP2               //
  //<<<<<<<<<<<<<<<<<<<<<<<<<<<<<<<<<<<//

   => Loading Basis Set <=

    Name: (AUG-CC-PVTZ AUX)
    Role: RIFIT
    Keyword: DF_BASIS_MP2
    atoms 1-11  entry C          line   147 file /cbio/jclab/home/chayas/anaconda/envs/py35/share/psi4/basis/aug-cc-pvtz-ri.gbs 
    atoms 12    entry N          line   205 file /cbio/jclab/home/chayas/anaconda/envs/py35/share/psi4/basis/aug-cc-pvtz-ri.gbs 
    atoms 13    entry F          line   321 file /cbio/jclab/home/chayas/anaconda/envs/py35/share/psi4/basis/aug-cc-pvtz-ri.gbs 
    atoms 14-21 entry H          line    29 file /cbio/jclab/home/chayas/anaconda/envs/py35/share/psi4/basis/aug-cc-pvtz-ri.gbs 

	 --------------------------------------------------------
	                          DF-MP2                         
	      2nd-Order Density-Fitted Moller-Plesset Theory     
	              RMP2 Wavefunction,   8 Threads             
	                                                         
	        Rob Parrish, Justin Turney, Andy Simmonett,      
	           Ed Hohenstein, and C. David Sherrill          
	 --------------------------------------------------------

   => Auxiliary Basis Set <=

  Basis Set: (AUG-CC-PVTZ AUX)
    Blend: AUG-CC-PVTZ-RI
    Number of shells: 476
    Number of basis function: 1746
    Number of Cartesian functions: 2208
    Spherical Harmonics?: true
    Max angular momentum: 4

	 --------------------------------------------------------
	                 NBF =   782, NAUX =  1746
	 --------------------------------------------------------
	   CLASS    FOCC     OCC    AOCC    AVIR     VIR    FVIR
	   PAIRS       0      45      45     737     737       0
	 --------------------------------------------------------


         ------------------------------------------------------------
                                     CPHF                           
                                  Rob Parrish                       
         ------------------------------------------------------------

  ==> Geometry <==

    Molecular point group: c1
    Full point group: C1

    Geometry (in Angstrom), charge = 0, multiplicity = 1:

       Center              X                  Y                   Z               Mass       
    ------------   -----------------  -----------------  -----------------  -----------------
           C         -1.369602264787     0.840643535467    -2.662366722068    12.000000000000
           C         -2.447602264787     1.413643535467    -1.989366722068    12.000000000000
           C         -0.333602264787     0.245643535467    -1.942366722068    12.000000000000
           C         -2.490602264787     1.392643535467    -0.595366722068    12.000000000000
           C          0.640397735213    -1.743356464533     0.519633277932    12.000000000000
           C          1.801397735213     0.361643535467     0.585633277932    12.000000000000
           C          1.697397735213    -2.288356464533     1.230633277932    12.000000000000
           C          2.806397735213    -0.277356464533     1.293633277932    12.000000000000
           C         -0.376602264787     0.224643535467    -0.548366722068    12.000000000000
           C          0.700397735213    -0.393356464533     0.194633277932    12.000000000000
           C         -1.454602264787     0.797643535467     0.125633277932    12.000000000000
           N          2.783397735213    -1.586356464533     1.627633277932    14.003074004780
           F         -1.510602264787     0.787643535467     1.465633277932    18.998403224000
           H         -1.336602264787     0.856643535467    -3.748366722068     1.007825032070
           H         -3.254602264787     1.876643535467    -2.550366722068     1.007825032070
           H          0.500397735213    -0.196356464533    -2.482366722068     1.007825032070
           H         -3.330602264787     1.838643535467    -0.070366722068     1.007825032070
           H         -0.201602264787    -2.365356464533     0.231633277932     1.007825032070
           H          1.883397735213     1.417643535467     0.350633277932     1.007825032070
           H          1.699397735213    -3.337356464533     1.506633277932     1.007825032070
           H          3.685397735213     0.267643535467     1.622633277932     1.007825032070

  Nuclear repulsion =  714.309910758161209
  Reference energy  = -575.282446730006313

  ==> Basis Set <==

  Basis Set: AUG-CC-PVTZ
    Blend: AUG-CC-PVTZ
    Number of shells: 254
    Number of basis function: 782
    Number of Cartesian functions: 915
    Spherical Harmonics?: true
    Max angular momentum: 3

  ==> CGRSolver (by Rob Parrish) <==

   Number of roots    =         1
   Preconditioning    =    JACOBI
   Convergence cutoff =     1E-06
   Maximum iterations =       100

  ==> CPHFRHamiltonian (by Rob Parrish) <== 

  ==> DFJK: Density-Fitted J/K Matrices <==

    J tasked:                  Yes
    K tasked:                  Yes
    wK tasked:                  No
    OpenMP threads:              8
    Integrals threads:           8
    Memory (MB):              3576
    Algorithm:                Disk
    Integral Cache:           NONE
    Schwarz Cutoff:          1E-12
    Fitting Condition:       1E-12

   => Auxiliary Basis Set <=

  Basis Set: (AUG-CC-PVTZ AUX)
    Blend: AUG-CC-PVTZ-JKFIT
    Number of shells: 502
    Number of basis function: 1720
    Number of Cartesian functions: 2143
    Spherical Harmonics?: true
    Max angular momentum: 4

  ==> CPHF Iterations <==

  => Iterations <=

             Iter  Converged  Remaining    Residual
  CGR           1          0          1   9.740E-02
  CGR           2          0          1   2.967E-02
  CGR           3          0          1   1.881E-02
  CGR           4          0          1   9.379E-03
  CGR           5          0          1   3.624E-03
  CGR           6          0          1   1.287E-03
  CGR           7          0          1   3.677E-04
  CGR           8          0          1   1.215E-04
  CGR           9          0          1   4.219E-05
  CGR          10          0          1   1.047E-05
  CGR          11          0          1   3.890E-06
  CGR          12          1          0   9.931E-07

    CGRSolver converged.

  ==> DFCorrGrad: Density-Fitted Correlated Gradients <==

    OpenMP threads:              8
    Integrals threads:           8
    Memory (MB):              3576
    Schwarz Cutoff:          0E+00
    Fitting Condition:       1E-12

   => Auxiliary Basis Set <=

  Basis Set: (AUG-CC-PVTZ AUX)
    Blend: AUG-CC-PVTZ-JKFIT
    Number of shells: 502
    Number of basis function: 1720
    Number of Cartesian functions: 2143
    Spherical Harmonics?: true
    Max angular momentum: 4

	-----------------------------------------------------------
	 ==================> DF-MP2 Energies <==================== 
	-----------------------------------------------------------
	 Reference Energy          =    -575.2824467300063134 [Eh]
	 Singles Energy            =      -0.0000000000000006 [Eh]
	 Same-Spin Energy          =      -0.6074284166594062 [Eh]
	 Opposite-Spin Energy      =      -1.8319395853198761 [Eh]
	 Correlation Energy        =      -2.4393680019792829 [Eh]
	 Total Energy              =    -577.7218147319855461 [Eh]
	-----------------------------------------------------------
	 ================> DF-SCS-MP2 Energies <================== 
	-----------------------------------------------------------
	 SCS Same-Spin Scale       =       0.3333333333333333 [-]
	 SCS Opposite-Spin Scale   =       1.2000000000000000 [-]
	 SCS Same-Spin Energy      =      -0.2024761388864687 [Eh]
	 SCS Opposite-Spin Energy  =      -2.1983275023838513 [Eh]
	 SCS Correlation Energy    =      -2.4008036412703206 [Eh]
	 SCS Total Energy          =    -577.6832503712765856 [Eh]
	-----------------------------------------------------------


  -Total Gradient:
     Atom            X                  Y                   Z
    ------   -----------------  -----------------  -----------------
       1       -0.000308074350     0.000229218778     0.000753018309
       2       -0.004120895106     0.002370991259    -0.002147302555
       3        0.011150000886    -0.006396807360     0.005234613866
       4        0.001235779586    -0.000472952004    -0.003855347003
       5       -0.005836207275    -0.000263896411    -0.003053850278
       6       -0.001632455288     0.006602018192    -0.002661017886
       7       -0.013438955117    -0.002764461945    -0.006042004329
       8       -0.005327189303     0.011435803358    -0.005871057474
       9        0.006014868365    -0.003215688236     0.000572676404
      10       -0.004320795089     0.001501368317    -0.004659126320
      11        0.008294475573    -0.005522700500     0.023156988786
      12        0.013648877107    -0.006607040083     0.009076730622
      13       -0.002795587781     0.001568516134     0.002622925931
      14        0.000096289432     0.000068330096    -0.005286997375
      15       -0.003572273677     0.002086916425    -0.003842653327
      16        0.002695258662    -0.001222908868    -0.006654674633
      17       -0.004944255615     0.002653432125     0.000874484749
      18       -0.002507338776    -0.004549670888    -0.000355777823
      19        0.002296857829     0.004113064630    -0.000018412666
      20        0.000701668945    -0.002557219593     0.000903128250
      21        0.002669950987     0.000943686580     0.001253654745


*** tstop() called on gpu-2-11.local at Sat Nov 11 18:47:17 2017
Module time:
	user time   =    4424.66 seconds =      73.74 minutes
	system time =     106.76 seconds =       1.78 minutes
	total time  =       2059 seconds =      34.32 minutes
Total time:
	user time   =    4424.66 seconds =      73.74 minutes
	system time =     106.76 seconds =       1.78 minutes
	total time  =       2059 seconds =      34.32 minutes

			-----------------------------------------
			 OPTKING 2.0: for geometry optimizations 
			  - R.A. King,  Bethel University        
			-----------------------------------------

	Internal coordinates to be generated automatically.
	Detected frag 1 with atoms:  1 2 3 4 5 6 7 8 9 10 11 12 13 14 15 16 17 18 19 20
	 21
	---Fragment 1 Bond Connectivity---
	 1 : 2 3 14
	 2 : 1 4 15
	 3 : 1 9 16
	 4 : 2 11 17
	 5 : 7 10 18
	 6 : 8 10 19
	 7 : 5 12 20
	 8 : 6 12 21
	 9 : 3 10 11
	 10 : 5 6 9
	 11 : 4 9 13
	 12 : 7 8
	 13 : 11
	 14 : 1
	 15 : 2
	 16 : 3
	 17 : 4
	 18 : 5
	 19 : 6
	 20 : 7
	 21 : 8

	Assuming in current code that numbering for constraints corresponds to unified fragment.
	Fixed dihedral atom list: 
	     3     9    10     5
	---Fragment 1 Geometry and Gradient---
	 C          -2.5881731914        1.5885860574       -5.0311439700
	 C          -4.6252979627        2.6713991316       -3.7593582826
	 C          -0.6304169178        0.4641990083       -3.6705411543
	 C          -4.7065561864        2.6317148828       -1.1250800533
	 C           1.2101763357       -3.2944662700        0.9819645848
	 C           3.4041483760        0.6834072398        1.1066865096
	 C           3.2076168581       -4.3243670124        2.3255598653
	 C           5.3033231395       -0.5241277592        2.4446126117
	 C          -0.7116751415        0.4245147596       -1.0362629251
	 C           1.3235599036       -0.7433359906        0.3678035916
	 C          -2.7487999127        1.5073278337        0.2374124885
	 N           5.2598594384       -2.9977792671        3.0757811401
	 F          -2.8546245762        1.4884305724        2.7696455065
	 H          -2.5258122290        1.6188216755       -7.0833865503
	 H          -6.1503069519        3.5463423311       -4.8194946431
	 H           0.9456146771       -0.3710599424       -4.6909932661
	 H          -6.2939261380        3.4745327380       -0.1329738336
	 H          -0.3809730682       -4.4698759246        0.4377234586
	 H           3.5591059188        2.6789580361        0.6626008684
	 H           3.2113963104       -6.3066897258        2.8471242780
	 H           6.9643924103        0.5057729833        3.0663325094
	            -0.0003080743        0.0002292188        0.0007530183
	            -0.0041208951        0.0023709913       -0.0021473026
	             0.0111500009       -0.0063968074        0.0052346139
	             0.0012357796       -0.0004729520       -0.0038553470
	            -0.0058362073       -0.0002638964       -0.0030538503
	            -0.0016324553        0.0066020182       -0.0026610179
	            -0.0134389551       -0.0027644619       -0.0060420043
	            -0.0053271893        0.0114358034       -0.0058710575
	             0.0060148684       -0.0032156882        0.0005726764
	            -0.0043207951        0.0015013683       -0.0046591263
	             0.0082944756       -0.0055227005        0.0231569888
	             0.0136488771       -0.0066070401        0.0090767306
	            -0.0027955878        0.0015685161        0.0026229259
	             0.0000962894        0.0000683301       -0.0052869974
	            -0.0035722737        0.0020869164       -0.0038426533
	             0.0026952587       -0.0012229089       -0.0066546746
	            -0.0049442556        0.0026534321        0.0008744847
	            -0.0025073388       -0.0045496709       -0.0003557778
	             0.0022968578        0.0041130646       -0.0000184127
	             0.0007016689       -0.0025572196        0.0009031282
	             0.0026699510        0.0009436866        0.0012536547

	Previous optimization step data not found.  Starting new optimization.

	---Fragment 1 Intrafragment Coordinates---
	 - Coordinate -           - BOHR/RAD -       - ANG/DEG -
	 R(1,2)           =         2.634350	       1.394038
	 R(1,3)           =         2.635962	       1.394891
	 R(1,14)          =         2.053412	       1.086619
	 R(2,4)           =         2.635830	       1.394821
	 R(2,15)          =         2.053063	       1.086434
	 R(3,9)           =         2.635830	       1.394821
	 R(3,16)          =         2.054959	       1.087437
	 R(4,11)          =         2.636938	       1.395407
	 R(4,17)          =         2.052891	       1.086343
	 R(5,7)           =         2.618342	       1.385567
	 R(5,10)          =         2.626464	       1.389865
	 R(5,18)          =         2.051717	       1.085722
	 R(6,8)           =         2.618215	       1.385500
	 R(6,10)          =         2.628763	       1.391081
	 R(6,19)          =         2.050231	       1.084935
	 R(7,12)          =         2.556241	       1.352704
	 R(7,20)          =         2.049792	       1.084703
	 R(8,12)          =         2.553275	       1.351135
	 R(8,21)          =         2.050947	       1.085314
	 R(9,10)          =         2.734494	       1.447032
	 R(9,11)          =         2.635263	       1.394521
	 R(11,13)         =         2.534514	       1.341207
	 B(1,2,4)         =         2.094553	     120.009056
	 B(1,2,15)        =         2.094721	     120.018646
	 B(1,3,9)         =         2.093692	     119.959722
	 B(1,3,16)        =         2.079074	     119.122177
	 B(2,1,3)         =         2.094940	     120.031219
	 B(2,1,14)        =         2.094311	     119.995189
	 B(2,4,11)        =         2.094306	     119.994870
	 B(2,4,17)        =         2.095140	     120.042665
	 B(3,1,14)        =         2.093934	     119.973570
	 B(3,9,10)        =         2.090528	     119.778448
	 B(3,9,11)        =         2.095181	     120.045019
	 B(4,2,15)        =         2.093912	     119.972298
	 B(4,11,9)        =         2.093699	     119.960108
	 B(4,11,13)       =         2.081063	     119.236128
	 B(5,7,12)        =         2.163890	     123.981748
	 B(5,7,20)        =         2.108738	     120.821801
	 B(5,10,6)        =         2.089342	     119.710496
	 B(5,10,9)        =         2.097593	     120.183244
	 B(6,8,12)        =         2.166143	     124.110837
	 B(6,8,21)        =         2.106896	     120.716273
	 B(6,10,9)        =         2.096249	     120.106230
	 B(7,5,10)        =         2.059089	     117.977081
	 B(7,5,18)        =         2.097162	     120.158538
	 B(7,12,8)        =         2.030735	     116.352565
	 B(8,6,10)        =         2.057172	     117.867268
	 B(8,6,19)        =         2.099908	     120.315858
	 B(9,3,16)        =         2.110419	     120.918077
	 B(9,11,13)       =         2.108422	     120.803676
	 B(10,5,18)       =         2.126934	     121.864357
	 B(10,6,19)       =         2.126106	     121.816874
	 B(10,9,11)       =         2.097476	     120.176533
	 B(11,4,17)       =         2.093740	     119.962450
	 B(12,7,20)       =         2.010556	     115.196350
	 B(12,8,21)       =         2.010145	     115.172826
	 D(1,2,4,11)      =        -0.000325	      -0.018609
	 D(1,2,4,17)      =        -3.141151	    -179.974682
	 D(1,3,9,10)      =        -3.141334	    -179.985190
	 D(1,3,9,11)      =         0.000325	       0.018608
	 D(2,1,3,9)       =        -0.000348	      -0.019945
	 D(2,1,3,16)      =        -3.140969	    -179.964243
	 D(2,4,11,9)      =         0.000301	       0.017261
	 D(2,4,11,13)     =         3.140029	     179.910408
	 D(3,1,2,4)       =         0.000348	       0.019955
	 D(3,1,2,15)      =        -3.141142	    -179.974167
	 D(3,9,10,5)      =        -1.570736	     -89.996535
	 D(3,9,10,6)      =         1.569756	      89.940403
	 D(3,9,11,4)      =        -0.000301	      -0.017270
	 D(3,9,11,13)     =        -3.139999	    -179.908714
	 D(4,2,1,14)      =         3.141002	     179.966134
	 D(4,11,9,10)     =         3.141358	     179.986543
	 D(5,7,12,8)      =        -0.000281	      -0.016099
	 D(5,10,6,8)      =         0.000228	       0.013060
	 D(5,10,6,19)     =        -3.141214	    -179.978321
	 D(5,10,9,11)     =         1.570790	      89.999663
	 D(6,8,12,7)      =         0.000258	       0.014761
	 D(6,10,5,7)      =        -0.000249	      -0.014293
	 D(6,10,5,18)     =        -3.140865	    -179.958327
	 D(6,10,9,11)     =        -1.571903	     -90.063399
	 D(7,5,10,9)      =         3.140247	     179.922895
	 D(7,12,8,21)     =         3.140252	     179.923180
	 D(8,6,10,9)      =        -3.140269	    -179.924177
	 D(8,12,7,20)     =         3.139300	     179.868615
	 D(9,3,1,14)      =        -3.141002	    -179.966136
	 D(9,10,5,18)     =        -0.000369	      -0.021139
	 D(9,10,6,19)     =         0.001474	       0.084442
	 D(9,11,4,17)     =         3.141128	     179.973370
	 D(10,5,7,12)     =         0.000285	       0.016326
	 D(10,5,7,20)     =        -3.139188	    -179.862200
	 D(10,6,8,12)     =        -0.000239	      -0.013706
	 D(10,6,8,21)     =        -3.140149	    -179.917296
	 D(10,9,3,16)     =        -0.000731	      -0.041910
	 D(10,9,11,13)    =         0.001660	       0.095099
	 D(11,4,2,15)     =         3.141165	     179.975516
	 D(11,9,3,16)     =         3.140927	     179.961888
	 D(12,7,5,18)     =         3.140918	     179.961353
	 D(12,8,6,19)     =         3.141205	     179.977811
	 D(13,11,4,17)    =        -0.002330	      -0.133484
	 D(14,1,2,15)     =        -0.000488	      -0.027988
	 D(14,1,3,16)     =         0.001563	       0.089566
	 D(15,2,4,17)     =         0.000339	       0.019443
	 D(18,5,7,20)     =         0.001446	       0.082827
	 D(19,6,8,21)     =         0.001295	       0.074220

	Current energy   :      -577.7218147320

	Generating empirical Hessian (Schlegel '84) for each fragment.
	Adding user-defined constraint: Fragment 1; Coordinate 67:
		Value =    -1.570736; Fixed value    =    -1.570796
		Force =    -0.000030; Force constant =     0.500000
	Removing off-diagonal coupling between coordinate 67 and others.
	Taking RFO optimization step.
	Going to follow RFO solution 1.
	Using RFO vector 1.

	Determining step-restricting scale parameter for RS-RFO.
	Maximum step size allowed    0.10000

	 Iter      |step|        alpha        rfo_root  
	------------------------------------------------
	    0     0.14049       1.00000           1
	    1     0.11624      12.11850           1
	    2     0.10331      23.05593           1
	    3     0.10018      26.53323           1
	    4     0.10000      26.74799           1
	------------------------------------------------
	Norm of target step-size    0.10000
	Projected energy change by RFO approximation:        -0.0044023188

	Back-transformation to cartesian coordinates...
	Successfully converged to displaced geometry.

	--- Internal Coordinate Step in ANG or DEG, aJ/ANG or AJ/DEG ---
	 ---------------------------------------------------------------------------
	   Coordinate                Previous        Force       Change         New 
	   ----------                --------       ------       ------       ------
	    1 R(1,2)          =      1.394038    -0.048583    -0.005298     1.388740
	    2 R(1,3)          =      1.394891    -0.050166    -0.005421     1.389470
	    3 R(1,14)         =      1.086619    -0.043565    -0.005957     1.080662
	    4 R(2,4)          =      1.394821    -0.067986    -0.007560     1.387261
	    5 R(2,15)         =      1.086434    -0.045536    -0.006224     1.080210
	    6 R(3,9)          =      1.394821    -0.031507    -0.003410     1.391411
	    7 R(3,16)         =      1.087437    -0.048350    -0.006625     1.080812
	    8 R(4,11)         =      1.395407    -0.102730    -0.011457     1.383950
	    9 R(4,17)         =      1.086343    -0.043955    -0.006006     1.080337
	   10 R(5,7)          =      1.385567     0.006545     0.000679     1.386246
	   11 R(5,10)         =      1.389865    -0.021517    -0.002002     1.387863
	   12 R(5,18)         =      1.085722    -0.038271    -0.005222     1.080500
	   13 R(6,8)          =      1.385500     0.007574     0.000805     1.386305
	   14 R(6,10)         =      1.391081    -0.028713    -0.002785     1.388296
	   15 R(6,19)         =      1.084935    -0.034446    -0.004690     1.080245
	   16 R(7,12)         =      1.352704    -0.125469    -0.012474     1.340230
	   17 R(7,20)         =      1.084703    -0.022278    -0.003032     1.081671
	   18 R(8,12)         =      1.351135    -0.116508    -0.011539     1.339596
	   19 R(8,21)         =      1.085314    -0.024851    -0.003387     1.081927
	   20 R(9,10)         =      1.447032     0.160264     0.020424     1.467456
	   21 R(9,11)         =      1.394521    -0.065039    -0.007211     1.387310
	   22 R(11,13)        =      1.341207    -0.022456    -0.002100     1.339107
	   23 B(1,2,4)        =    120.009056     0.000043     0.095759   120.104815
	   24 B(1,2,15)       =    120.018646     0.000069     0.196699   120.215345
	   25 B(1,3,9)        =    119.959722     0.000280     0.659474   120.619196
	   26 B(1,3,16)       =    119.122177     0.000197     0.584743   119.706921
	   27 B(2,1,3)        =    120.031219    -0.000094    -0.175234   119.855985
	   28 B(2,1,14)       =    119.995189     0.000051     0.098630   120.093819
	   29 B(2,4,11)       =    119.994870    -0.000277    -0.651319   119.343552
	   30 B(2,4,17)       =    120.042665     0.000291     0.737785   120.780450
	   31 B(3,1,14)       =    119.973570     0.000043     0.076610   120.050180
	   32 B(3,9,10)       =    119.778448     0.000503     1.028159   120.806607
	   33 B(3,9,11)       =    120.045019    -0.000736    -1.504582   118.540437
	   34 B(4,2,15)       =    119.972298    -0.000112    -0.292458   119.679840
	   35 B(4,11,9)       =    119.960108     0.000784     1.575904   121.536013
	   36 B(4,11,13)      =    119.236128    -0.000091    -0.172311   119.063817
	   37 B(5,7,12)       =    123.981748    -0.000012    -0.101377   123.880371
	   38 B(5,7,20)       =    120.821801    -0.000050    -0.101459   120.720342
	   39 B(5,10,6)       =    119.710496    -0.000789    -1.505394   118.205102
	   40 B(5,10,9)       =    120.183244     0.000388     0.739096   120.922340
	   41 B(6,8,12)       =    124.110837    -0.000043    -0.166805   123.944032
	   42 B(6,8,21)       =    120.716273    -0.000033    -0.064437   120.651836
	   43 B(6,10,9)       =    120.106230     0.000401     0.766251   120.872481
	   44 B(7,5,10)       =    117.977081     0.000336     0.803941   118.781022
	   45 B(7,5,18)       =    120.158538     0.000015     0.094658   120.253196
	   46 B(7,12,8)       =    116.352565     0.000150     0.114208   116.466773
	   47 B(8,6,10)       =    117.867268     0.000357     0.855400   118.722668
	   48 B(8,6,19)       =    120.315858    -0.000010     0.030759   120.346617
	   49 B(9,3,16)       =    120.918077    -0.000477    -1.244210   119.673867
	   50 B(9,11,13)      =    120.803676    -0.000692    -1.403555   119.400122
	   51 B(10,5,18)      =    121.864357    -0.000351    -0.898602   120.965755
	   52 B(10,6,19)      =    121.816874    -0.000348    -0.886159   120.930715
	   53 B(10,9,11)      =    120.176533     0.000233     0.476423   120.652956
	   54 B(11,4,17)      =    119.962450    -0.000013    -0.086463   119.875987
	   55 B(12,7,20)      =    115.196350     0.000062     0.202900   115.399250
	   56 B(12,8,21)      =    115.172826     0.000076     0.231259   115.404084
	   57 D(1,2,4,11)     =     -0.018609     0.000000     0.001835    -0.016774
	   58 D(1,2,4,17)     =   -179.974682    -0.000000    -0.003434  -179.978116
	   59 D(1,3,9,10)     =   -179.985190    -0.000000     0.000098  -179.985091
	   60 D(1,3,9,11)     =      0.018608    -0.000000    -0.007666     0.010942
	   61 D(2,1,3,9)      =     -0.019945     0.000000     0.002923    -0.017022
	   62 D(2,1,3,16)     =   -179.964243    -0.000000    -0.005656  -179.969899
	   63 D(2,4,11,9)     =      0.017261    -0.000000    -0.006339     0.010922
	   64 D(2,4,11,13)    =    179.910408     0.000001     0.019651   179.930059
	   65 D(3,1,2,4)      =      0.019955     0.000000    -0.000072     0.019883
	   66 D(3,1,2,15)     =   -179.974167    -0.000000    -0.003329  -179.977496
	   67 D(3,9,10,5)     =    -89.996535     0.000000     0.002946   -89.993589
	   68 D(3,9,10,6)     =     89.940403    -0.000001    -0.036886    89.903518
	   69 D(3,9,11,4)     =     -0.017270     0.000000     0.009321    -0.007950
	   70 D(3,9,11,13)    =   -179.908714    -0.000001    -0.018107  -179.926820
	   71 D(4,2,1,14)     =    179.966134     0.000000     0.007437   179.973571
	   72 D(4,11,9,10)    =    179.986543     0.000000     0.001547   179.988090
	   73 D(5,7,12,8)     =     -0.016099     0.000000     0.003298    -0.012801
	   74 D(5,10,6,8)     =      0.013060     0.000002     0.044615     0.057675
	   75 D(5,10,6,19)    =   -179.978321     0.000001     0.027888  -179.950433
	   76 D(5,10,9,11)    =     89.999663     0.000001     0.010800    90.010462
	   77 D(6,8,12,7)     =      0.014761    -0.000000    -0.009985     0.004777
	   78 D(6,10,5,7)     =     -0.014293    -0.000002    -0.050688    -0.064982
	   79 D(6,10,5,18)    =   -179.958327    -0.000002    -0.047512  -180.005839
	   80 D(6,10,9,11)    =    -90.063399    -0.000001    -0.029032   -90.092431
	   81 D(7,5,10,9)     =    179.922895    -0.000004    -0.088090   179.834805
	   82 D(7,12,8,21)    =    179.923180     0.000000     0.002436   179.925616
	   83 D(8,6,10,9)     =   -179.924177     0.000003     0.082014  -179.842163
	   84 D(8,12,7,20)    =    179.868615     0.000002     0.048778   179.917392
	   85 D(9,3,1,14)     =   -179.966136    -0.000000    -0.004595  -179.970731
	   86 D(9,10,5,18)    =     -0.021139    -0.000004    -0.084914    -0.106053
	   87 D(9,10,6,19)    =      0.084442     0.000003     0.065287     0.149729
	   88 D(9,11,4,17)    =    179.973370     0.000000    -0.000750   179.972619
	   89 D(10,5,7,12)    =      0.016326     0.000001     0.027693     0.044019
	   90 D(10,5,7,20)    =   -179.862200    -0.000001    -0.020428  -179.882628
	   91 D(10,6,8,12)    =     -0.013706    -0.000001    -0.014563    -0.028269
	   92 D(10,6,8,21)    =   -179.917296    -0.000001    -0.027853  -179.945149
	   93 D(10,9,3,16)    =     -0.041910     0.000000     0.009711    -0.032199
	   94 D(10,9,11,13)   =      0.095099    -0.000001    -0.025880     0.069219
	   95 D(11,4,2,15)    =    179.975516     0.000000     0.005103   179.980619
	   96 D(11,9,3,16)    =    179.961888     0.000000     0.001946   179.963834
	   97 D(12,7,5,18)    =    179.961353     0.000001     0.023958   179.985311
	   98 D(12,8,6,19)    =    179.977811     0.000000     0.001979   179.979790
	   99 D(13,11,4,17)   =     -0.133484     0.000001     0.025241    -0.108244
	  100 D(14,1,2,15)    =     -0.027988     0.000000     0.004180    -0.023807
	  101 D(14,1,3,16)    =      0.089566    -0.000001    -0.013174     0.076392
	  102 D(15,2,4,17)    =      0.019443    -0.000000    -0.000166     0.019277
	  103 D(18,5,7,20)    =      0.082827    -0.000001    -0.024163     0.058664
	  104 D(19,6,8,21)    =      0.074220    -0.000000    -0.011311     0.062910
	 ---------------------------------------------------------------------------
	Successfully symmetrized geometry.
	 Forces used to impose fixed constraints are not included.
	  Forces zeroed: 67 

  ==> Convergence Check <==

  Measures of convergence in internal coordinates in au.
  Criteria marked as inactive (o), active & met (*), and active & unmet ( ).
  --------------------------------------------------------------------------------------------- ~
   Step     Total Energy     Delta E     MAX Force     RMS Force      MAX Disp      RMS Disp    ~
  --------------------------------------------------------------------------------------------- ~
    Convergence Criteria    1.00e-06 *    3.00e-04 *             o    1.20e-03 *             o  ~
  --------------------------------------------------------------------------------------------- ~
      1    -577.72181473   -5.78e+02      1.95e-02      4.46e-03 o    3.86e-02      9.81e-03 o  ~
  ---------------------------------------------------------------------------------------------

	Writing optimization data to binary file.
	Structure for next step:
	Cartesian Geometry (in Angstrom)
	    C    -1.3882384536   0.8513303460  -2.6701666786
	    C    -2.4596541996   1.4203387688  -1.9942251458
	    C    -0.3552542766   0.2582839481  -1.9547186173
	    C    -2.4989963824   1.3974374214  -0.6077113528
	    C     0.6610426828  -1.7424201558   0.5313674135
	    C     1.8111982104   0.3426977501   0.5965224423
	    C     1.7155826812  -2.2878336673   1.2470120681
	    C     2.8155620536  -0.2935439937   1.3094684073
	    C    -0.3824140014   0.2284532541  -0.5638922261
	    C     0.7064794830  -0.3964953514   0.1958290788
	    C    -1.4623855681   0.8030217038   0.0904478753
	    N     2.7900581383  -1.5909443453   1.6420620210
	    F    -1.5053933533   0.7853265888   1.4287474738
	    H    -1.3579809666   0.8688929188  -3.7502621178
	    H    -3.2660200323   1.8825994863  -2.5446279589
	    H     0.4776646004  -0.1834015068  -2.4832215305
	    H    -3.3273104797   1.8364731380  -0.0708031876
	    H    -0.1775218182  -2.3594471464   0.2422859763
	    H     1.8916341386   1.3936174325   0.3598218873
	    H     1.7135017247  -3.3335847034   1.5234416588
	    H     3.6897982584   0.2527123583   1.6379213495
			--------------------------
			 OPTKING Finished Execution 
			--------------------------

    Structure for next step:
    Molecular point group: c1
    Full point group: C1

    Geometry (in Angstrom), charge = 0, multiplicity = 1:

    C           -1.388616147720     0.851458955325    -2.665381156889
    C           -2.460031893687     1.420467378144    -1.989439624125
    C           -0.355631970712     0.258412557499    -1.949933095611
    C           -2.499374076469     1.397566030807    -0.602925831152
    C            0.660664988736    -1.742291546460     0.536152935135
    C            1.810820516353     0.342826359489     0.601307963985
    C            1.715204987080    -2.287705057924     1.251797589790
    C            2.815184359538    -0.293415384345     1.314253928960
    C           -0.382791695526     0.228581863455    -0.559106704407
    C            0.706101788871    -0.396366742040     0.200614600504
    C           -1.462763262240     0.803150313112     0.095233396992
    N            2.789680444161    -1.590815735931     1.646847542725
    F           -1.505771047408     0.785455198157     1.433532995465
    H           -1.358358660735     0.869021528165    -3.745476596131
    H           -3.266397726439     1.882728095634    -2.539842437243
    H            0.477286906348    -0.183272897462    -2.478436008793
    H           -3.327688173810     1.836601747343    -0.066017665933
    H           -0.177899512278    -2.359318537090     0.247071497954
    H            1.891256444465     1.393746041859     0.364607409004
    H            1.713124030584    -3.333456094055     1.528227180528
    H            3.689420564337     0.252840967667     1.642706871204

gradient() will perform analytic gradient computation.

*** tstart() called on gpu-2-11.local
*** at Sat Nov 11 18:47:19 2017

    SCF Algorithm Type (re)set to DF.

*** tstart() called on gpu-2-11.local
*** at Sat Nov 11 18:47:19 2017

   => Loading Basis Set <=

    Name: AUG-CC-PVTZ
    Role: ORBITAL
    Keyword: BASIS
    atoms 1-11  entry C          line   221 file /cbio/jclab/home/chayas/anaconda/envs/py35/share/psi4/basis/aug-cc-pvtz.gbs 
    atoms 12    entry N          line   267 file /cbio/jclab/home/chayas/anaconda/envs/py35/share/psi4/basis/aug-cc-pvtz.gbs 
    atoms 13    entry F          line   359 file /cbio/jclab/home/chayas/anaconda/envs/py35/share/psi4/basis/aug-cc-pvtz.gbs 
    atoms 14-21 entry H          line    34 file /cbio/jclab/home/chayas/anaconda/envs/py35/share/psi4/basis/aug-cc-pvtz.gbs 


         ---------------------------------------------------------
                                   SCF
            by Justin Turney, Rob Parrish, and Andy Simmonett
                              RHF Reference
                        8 Threads,   4768 MiB Core
         ---------------------------------------------------------

  ==> Geometry <==

    Molecular point group: c1
    Full point group: C1

    Geometry (in Angstrom), charge = 0, multiplicity = 1:

       Center              X                  Y                   Z               Mass       
    ------------   -----------------  -----------------  -----------------  -----------------
           C         -1.388616147720     0.851458955325    -2.665381156889    12.000000000000
           C         -2.460031893687     1.420467378144    -1.989439624125    12.000000000000
           C         -0.355631970712     0.258412557499    -1.949933095611    12.000000000000
           C         -2.499374076469     1.397566030807    -0.602925831152    12.000000000000
           C          0.660664988736    -1.742291546460     0.536152935135    12.000000000000
           C          1.810820516353     0.342826359489     0.601307963985    12.000000000000
           C          1.715204987080    -2.287705057924     1.251797589790    12.000000000000
           C          2.815184359538    -0.293415384345     1.314253928960    12.000000000000
           C         -0.382791695526     0.228581863455    -0.559106704407    12.000000000000
           C          0.706101788871    -0.396366742040     0.200614600504    12.000000000000
           C         -1.462763262240     0.803150313112     0.095233396992    12.000000000000
           N          2.789680444161    -1.590815735931     1.646847542725    14.003074004780
           F         -1.505771047408     0.785455198157     1.433532995465    18.998403224000
           H         -1.358358660735     0.869021528165    -3.745476596131     1.007825032070
           H         -3.266397726439     1.882728095634    -2.539842437243     1.007825032070
           H          0.477286906348    -0.183272897462    -2.478436008793     1.007825032070
           H         -3.327688173810     1.836601747343    -0.066017665933     1.007825032070
           H         -0.177899512278    -2.359318537090     0.247071497954     1.007825032070
           H          1.891256444465     1.393746041859     0.364607409004     1.007825032070
           H          1.713124030584    -3.333456094055     1.528227180528     1.007825032070
           H          3.689420564337     0.252840967667     1.642706871204     1.007825032070

  Running in c1 symmetry.

  Rotational constants: A =      0.06510  B =      0.01707  C =      0.01560 [cm^-1]
  Rotational constants: A =   1951.69079  B =    511.85790  C =    467.74430 [MHz]
  Nuclear repulsion =  714.883708434541518

  Charge       = 0
  Multiplicity = 1
  Electrons    = 90
  Nalpha       = 45
  Nbeta        = 45

  ==> Algorithm <==

  SCF Algorithm Type is DF.
  DIIS enabled.
  MOM disabled.
  Fractional occupation disabled.
  Guess Type is READ.
  Energy threshold   = 1.00e-10
  Density threshold  = 1.00e-10
  Integral threshold = 0.00e+00

  ==> Primary Basis <==

  Basis Set: AUG-CC-PVTZ
    Blend: AUG-CC-PVTZ
    Number of shells: 254
    Number of basis function: 782
    Number of Cartesian functions: 915
    Spherical Harmonics?: true
    Max angular momentum: 3

   => Loading Basis Set <=

    Name: (AUG-CC-PVTZ AUX)
    Role: JKFIT
    Keyword: DF_BASIS_SCF
    atoms 1-11  entry C          line   161 file /cbio/jclab/home/chayas/anaconda/envs/py35/share/psi4/basis/aug-cc-pvtz-jkfit.gbs 
    atoms 12    entry N          line   223 file /cbio/jclab/home/chayas/anaconda/envs/py35/share/psi4/basis/aug-cc-pvtz-jkfit.gbs 
    atoms 13    entry F          line   347 file /cbio/jclab/home/chayas/anaconda/envs/py35/share/psi4/basis/aug-cc-pvtz-jkfit.gbs 
    atoms 14-21 entry H          line    69 file /cbio/jclab/home/chayas/anaconda/envs/py35/share/psi4/basis/aug-cc-pvtz-jkfit.gbs 

  Reading orbitals from file 180, no projection.

  ==> Pre-Iterations <==

   -------------------------------------------------------
    Irrep   Nso     Nmo     Nalpha   Nbeta   Ndocc  Nsocc
   -------------------------------------------------------
     A        782     782       0       0       0       0
   -------------------------------------------------------
    Total     782     782      45      45      45       0
   -------------------------------------------------------

  ==> Integral Setup <==

  ==> DFJK: Density-Fitted J/K Matrices <==

    J tasked:                  Yes
    K tasked:                  Yes
    wK tasked:                  No
    OpenMP threads:              8
    Integrals threads:           8
    Memory (MB):              3576
    Algorithm:                Disk
    Integral Cache:           NONE
    Schwarz Cutoff:          1E-12
    Fitting Condition:       1E-12

   => Auxiliary Basis Set <=

  Basis Set: (AUG-CC-PVTZ AUX)
    Blend: AUG-CC-PVTZ-JKFIT
    Number of shells: 502
    Number of basis function: 1720
    Number of Cartesian functions: 2143
    Spherical Harmonics?: true
    Max angular momentum: 4

  Minimum eigenvalue in the overlap matrix is 6.4244964874E-07.
  Using Symmetric Orthogonalization.

  SCF Guess: Orbitals guess was supplied from a previous computation.

  ==> Iterations <==

                           Total Energy        Delta E     RMS |[F,P]|

   @DF-RHF iter   0:  -575.34783761568588   -5.75348e+02   3.15133e-04 
   @DF-RHF iter   1:  -575.28761790383578    6.02197e-02   7.80369e-05 
   @DF-RHF iter   2:  -575.28798684407707   -3.68940e-04   4.07959e-05 DIIS
   @DF-RHF iter   3:  -575.28818194842313   -1.95104e-04   9.74116e-06 DIIS
   @DF-RHF iter   4:  -575.28818828721558   -6.33879e-06   2.68032e-06 DIIS
   @DF-RHF iter   5:  -575.28819037459516   -2.08738e-06   1.19774e-06 DIIS
   @DF-RHF iter   6:  -575.28819092257095   -5.47976e-07   1.00443e-06 DIIS
   @DF-RHF iter   7:  -575.28819114676537   -2.24194e-07   3.67294e-07 DIIS
   @DF-RHF iter   8:  -575.28819119394439   -4.71790e-08   1.20605e-07 DIIS
   @DF-RHF iter   9:  -575.28819119724199   -3.29760e-09   4.60906e-08 DIIS
   @DF-RHF iter  10:  -575.28819119755212   -3.10138e-10   1.59540e-08 DIIS
   @DF-RHF iter  11:  -575.28819119757725   -2.51248e-11   3.54141e-09 DIIS
   @DF-RHF iter  12:  -575.28819119759851   -2.12594e-11   1.84966e-09 DIIS
   @DF-RHF iter  13:  -575.28819119759169    6.82121e-12   6.59441e-10 DIIS
   @DF-RHF iter  14:  -575.28819119759419   -2.50111e-12   4.40772e-10 DIIS
   @DF-RHF iter  15:  -575.28819119758441    9.77707e-12   1.30247e-10 DIIS
   @DF-RHF iter  16:  -575.28819119758737   -2.95586e-12   4.97911e-11 DIIS

  ==> Post-Iterations <==

    Orbital Energies (a.u.)
    -----------------------

    Doubly Occupied:                                                      

       1A    -26.318063     2A    -15.565953     3A    -11.336922  
       4A    -11.274639     5A    -11.274566     6A    -11.268489  
       7A    -11.259986     8A    -11.255739     9A    -11.254667  
      10A    -11.250707    11A    -11.246841    12A    -11.240435  
      13A    -11.240395    14A     -1.638359    15A     -1.259028  
      16A     -1.184691    17A     -1.114620    18A     -1.036655  
      19A     -1.036035    20A     -1.028245    21A     -0.891178  
      22A     -0.860975    23A     -0.859629    24A     -0.824919  
      25A     -0.756226    26A     -0.723901    27A     -0.711809  
      28A     -0.705050    29A     -0.670451    30A     -0.669645  
      31A     -0.652310    32A     -0.625718    33A     -0.612731  
      34A     -0.599655    35A     -0.590317    36A     -0.548538  
      37A     -0.533290    38A     -0.530805    39A     -0.515271  
      40A     -0.510132    41A     -0.420854    42A     -0.381782  
      43A     -0.358916    44A     -0.351034    45A     -0.346737  

    Virtual:                                                              

      46A      0.023369    47A      0.031386    48A      0.033859  
      49A      0.035101    50A      0.043509    51A      0.048851  
      52A      0.051448    53A      0.052625    54A      0.077209  
      55A      0.086096    56A      0.087861    57A      0.089647  
      58A      0.091121    59A      0.096173    60A      0.098802  
      61A      0.102443    62A      0.103623    63A      0.108103  
      64A      0.111014    65A      0.114200    66A      0.114675  
      67A      0.115881    68A      0.122953    69A      0.125613  
      70A      0.126745    71A      0.132402    72A      0.133409  
      73A      0.133507    74A      0.140014    75A      0.140511  
      76A      0.143542    77A      0.144858    78A      0.152337  
      79A      0.158003    80A      0.161804    81A      0.166831  
      82A      0.170147    83A      0.176744    84A      0.190260  
      85A      0.192547    86A      0.193858    87A      0.194183  
      88A      0.210001    89A      0.213081    90A      0.227987  
      91A      0.233321    92A      0.235498    93A      0.235634  
      94A      0.241323    95A      0.242439    96A      0.245193  
      97A      0.252341    98A      0.256973    99A      0.261843  
     100A      0.264587   101A      0.267700   102A      0.270604  
     103A      0.271337   104A      0.279076   105A      0.283441  
     106A      0.290679   107A      0.294188   108A      0.297748  
     109A      0.302531   110A      0.306859   111A      0.311694  
     112A      0.317828   113A      0.318034   114A      0.320557  
     115A      0.325136   116A      0.325536   117A      0.327176  
     118A      0.333873   119A      0.337506   120A      0.343674  
     121A      0.347656   122A      0.354191   123A      0.363504  
     124A      0.364789   125A      0.370605   126A      0.383490  
     127A      0.387050   128A      0.389138   129A      0.390744  
     130A      0.397096   131A      0.400802   132A      0.412088  
     133A      0.413219   134A      0.417289   135A      0.420519  
     136A      0.423846   137A      0.429968   138A      0.432621  
     139A      0.436380   140A      0.441474   141A      0.446630  
     142A      0.446749   143A      0.453916   144A      0.456977  
     145A      0.464763   146A      0.466633   147A      0.469257  
     148A      0.472620   149A      0.476142   150A      0.479680  
     151A      0.484883   152A      0.490228   153A      0.495380  
     154A      0.500146   155A      0.500832   156A      0.504112  
     157A      0.505491   158A      0.508989   159A      0.514412  
     160A      0.516193   161A      0.518915   162A      0.522441  
     163A      0.525418   164A      0.529170   165A      0.531134  
     166A      0.540343   167A      0.543973   168A      0.550790  
     169A      0.554211   170A      0.559443   171A      0.566852  
     172A      0.567946   173A      0.577640   174A      0.578407  
     175A      0.585211   176A      0.587830   177A      0.590736  
     178A      0.598875   179A      0.601540   180A      0.608430  
     181A      0.621227   182A      0.622224   183A      0.628777  
     184A      0.629827   185A      0.632843   186A      0.645154  
     187A      0.651472   188A      0.654504   189A      0.664587  
     190A      0.669282   191A      0.673040   192A      0.683265  
     193A      0.685768   194A      0.695733   195A      0.698033  
     196A      0.705449   197A      0.710888   198A      0.717929  
     199A      0.726075   200A      0.730740   201A      0.736653  
     202A      0.739072   203A      0.742921   204A      0.753401  
     205A      0.757262   206A      0.761324   207A      0.764789  
     208A      0.768485   209A      0.778009   210A      0.782710  
     211A      0.784069   212A      0.793141   213A      0.795501  
     214A      0.803887   215A      0.813501   216A      0.815149  
     217A      0.823932   218A      0.832722   219A      0.842813  
     220A      0.860897   221A      0.863857   222A      0.869526  
     223A      0.873831   224A      0.874491   225A      0.878059  
     226A      0.880817   227A      0.883289   228A      0.892932  
     229A      0.898384   230A      0.904571   231A      0.911332  
     232A      0.913212   233A      0.916332   234A      0.921647  
     235A      0.926721   236A      0.929830   237A      0.930546  
     238A      0.935132   239A      0.939514   240A      0.948413  
     241A      0.954520   242A      0.958357   243A      0.958890  
     244A      0.962671   245A      0.962961   246A      0.975485  
     247A      0.980570   248A      0.988882   249A      0.993619  
     250A      0.996087   251A      0.997974   252A      1.001360  
     253A      1.007799   254A      1.016166   255A      1.020911  
     256A      1.021246   257A      1.037503   258A      1.043431  
     259A      1.046156   260A      1.047937   261A      1.049961  
     262A      1.062080   263A      1.063976   264A      1.068850  
     265A      1.071618   266A      1.073658   267A      1.077821  
     268A      1.088557   269A      1.093165   270A      1.097806  
     271A      1.098132   272A      1.101920   273A      1.107181  
     274A      1.112239   275A      1.117749   276A      1.121052  
     277A      1.132892   278A      1.134185   279A      1.143270  
     280A      1.145254   281A      1.151430   282A      1.164211  
     283A      1.170705   284A      1.174700   285A      1.175826  
     286A      1.181528   287A      1.186533   288A      1.188049  
     289A      1.191808   290A      1.202983   291A      1.203315  
     292A      1.210562   293A      1.211026   294A      1.215555  
     295A      1.220270   296A      1.232292   297A      1.239074  
     298A      1.240430   299A      1.251745   300A      1.253539  
     301A      1.259600   302A      1.264061   303A      1.266047  
     304A      1.277148   305A      1.279086   306A      1.291193  
     307A      1.296742   308A      1.297849   309A      1.306045  
     310A      1.312225   311A      1.316305   312A      1.321701  
     313A      1.327067   314A      1.334661   315A      1.342308  
     316A      1.345597   317A      1.362609   318A      1.371290  
     319A      1.375642   320A      1.375764   321A      1.398809  
     322A      1.403554   323A      1.406630   324A      1.406987  
     325A      1.414638   326A      1.421740   327A      1.433094  
     328A      1.433920   329A      1.449018   330A      1.452195  
     331A      1.457244   332A      1.476854   333A      1.483191  
     334A      1.497487   335A      1.501554   336A      1.503779  
     337A      1.521113   338A      1.532134   339A      1.543324  
     340A      1.544255   341A      1.550629   342A      1.555540  
     343A      1.561536   344A      1.562022   345A      1.577225  
     346A      1.589643   347A      1.596757   348A      1.605652  
     349A      1.619867   350A      1.622630   351A      1.631221  
     352A      1.636635   353A      1.660517   354A      1.669680  
     355A      1.675322   356A      1.677416   357A      1.677724  
     358A      1.694692   359A      1.696745   360A      1.709744  
     361A      1.709993   362A      1.721709   363A      1.722554  
     364A      1.734052   365A      1.744466   366A      1.747557  
     367A      1.757791   368A      1.759746   369A      1.763795  
     370A      1.766000   371A      1.775053   372A      1.779180  
     373A      1.787645   374A      1.809073   375A      1.816745  
     376A      1.819331   377A      1.831057   378A      1.834537  
     379A      1.847543   380A      1.854301   381A      1.854416  
     382A      1.858604   383A      1.879912   384A      1.884329  
     385A      1.887707   386A      1.902582   387A      1.911415  
     388A      1.914316   389A      1.930053   390A      1.938951  
     391A      1.946859   392A      1.953409   393A      1.960534  
     394A      1.966803   395A      1.972890   396A      1.986571  
     397A      2.000451   398A      2.005819   399A      2.010743  
     400A      2.012517   401A      2.028641   402A      2.030951  
     403A      2.052088   404A      2.053153   405A      2.053788  
     406A      2.061187   407A      2.066133   408A      2.075766  
     409A      2.092394   410A      2.095068   411A      2.106701  
     412A      2.108552   413A      2.115233   414A      2.117360  
     415A      2.122730   416A      2.129370   417A      2.137602  
     418A      2.149048   419A      2.151661   420A      2.163619  
     421A      2.183287   422A      2.183891   423A      2.186535  
     424A      2.206132   425A      2.207059   426A      2.214557  
     427A      2.227431   428A      2.232256   429A      2.243680  
     430A      2.251735   431A      2.264288   432A      2.272125  
     433A      2.279001   434A      2.285573   435A      2.298621  
[...]
	 R(4,17)          =         2.036811	       1.077834
	 R(5,7)           =         2.620471	       1.386694
	 R(5,10)          =         2.624177	       1.388655
	 R(5,18)          =         2.040326	       1.079694
	 R(6,8)           =         2.620497	       1.386707
	 R(6,10)          =         2.624181	       1.388657
	 R(6,19)          =         2.040328	       1.079695
	 R(7,12)          =         2.522343	       1.334767
	 R(7,20)          =         2.042593	       1.080894
	 R(8,12)          =         2.522325	       1.334757
	 R(8,21)          =         2.042594	       1.080894
	 R(9,10)          =         2.776344	       1.469178
	 R(9,11)          =         2.620142	       1.386520
	 R(11,13)         =         2.541773	       1.345048
	 B(1,2,4)         =         2.097149	     120.157760
	 B(1,2,15)        =         2.099607	     120.298615
	 B(1,3,9)         =         2.112015	     121.009574
	 B(1,3,16)        =         2.102865	     120.485307
	 B(2,1,3)         =         2.092412	     119.886399
	 B(2,1,14)        =         2.097170	     120.158982
	 B(2,4,11)        =         2.072540	     118.747823
	 B(2,4,17)        =         2.126951	     121.865291
	 B(3,1,14)        =         2.093603	     119.954619
	 B(3,9,10)        =         2.122253	     121.596143
	 B(3,9,11)        =         2.051316	     117.531732
	 B(4,2,15)        =         2.086430	     119.543625
	 B(4,11,9)        =         2.140938	     122.666711
	 B(4,11,13)       =         2.073041	     118.776475
	 B(5,7,12)        =         2.157164	     123.596404
	 B(5,7,20)        =         2.097157	     120.158236
	 B(5,10,6)        =         2.052384	     117.592968
	 B(5,10,9)        =         2.115409	     121.204003
	 B(6,8,12)        =         2.157145	     123.595292
	 B(6,8,21)        =         2.097172	     120.159118
	 B(6,10,9)        =         2.115357	     121.201033
	 B(7,5,10)        =         2.079304	     119.135328
	 B(7,5,18)        =         2.102916	     120.488218
	 B(7,12,8)        =         2.041053	     116.943707
	 B(8,6,10)        =         2.079314	     119.135921
	 B(8,6,19)        =         2.102912	     120.487954
	 B(9,3,16)        =         2.068305	     118.505119
	 B(9,11,13)       =         2.069207	     118.556814
	 B(10,5,18)       =         2.100965	     120.376451
	 B(10,6,19)       =         2.100960	     120.376122
	 B(10,9,11)       =         2.109617	     120.872122
	 B(11,4,17)       =         2.083694	     119.386886
	 B(12,7,20)       =         2.028864	     116.245356
	 B(12,8,21)       =         2.028868	     116.245585
	 D(1,2,4,11)      =        -0.000000	      -0.000000
	 D(1,2,4,17)      =         3.141556	     179.997924
	 D(1,3,9,10)      =         3.141337	     179.985330
	 D(1,3,9,11)      =         0.000072	       0.004137
	 D(2,1,3,9)       =         0.000028	       0.001613
	 D(2,1,3,16)      =         3.141505	     179.994990
	 D(2,4,11,9)      =         0.000118	       0.006741
	 D(2,4,11,13)     =         3.141556	     179.997913
	 D(3,1,2,4)       =        -0.000060	      -0.003435
	 D(3,1,2,15)      =         3.141549	     179.997478
	 D(3,9,10,5)      =        -1.570831	     -90.001964
	 D(3,9,10,6)      =         1.561575	      89.471678
	 D(3,9,11,4)      =        -0.000147	      -0.008435
	 D(3,9,11,13)     =         3.141593	     180.000000
	 D(4,2,1,14)      =         3.141512	     179.995354
	 D(4,11,9,10)     =        -3.141414	    -179.989772
	 D(5,7,12,8)      =         0.001870	       0.107146
	 D(5,10,6,8)      =         0.003551	       0.203478
	 D(5,10,6,19)     =        -3.137663	    -179.774839
	 D(5,10,9,11)     =         1.570423	      89.978606
	 D(6,8,12,7)      =        -0.001579	      -0.090458
	 D(6,10,5,7)      =        -0.003285	      -0.188234
	 D(6,10,5,18)     =         3.137965	     179.792127
	 D(6,10,9,11)     =        -1.580356	     -90.547752
	 D(7,5,10,9)      =         3.129441	     179.303764
	 D(7,12,8,21)     =         3.139603	     179.886001
	 D(8,6,10,9)      =        -3.129175	    -179.288536
	 D(8,12,7,20)     =        -3.140110	    -179.915031
	 D(9,3,1,14)      =        -3.141543	    -179.997179
	 D(9,10,5,18)     =        -0.012494	      -0.715875
	 D(9,10,6,19)     =         0.012796	       0.733148
	 D(9,11,4,17)     =        -3.141450	    -179.991832
	 D(10,5,7,12)     =         0.000583	       0.033400
	 D(10,5,7,20)     =        -3.140608	    -179.943596
	 D(10,6,8,12)     =        -0.001157	      -0.066272
	 D(10,6,8,21)     =         3.140862	     179.958147
	 D(10,9,3,16)     =        -0.000143	      -0.008176
	 D(10,9,11,13)    =         0.000332	       0.019038
	 D(11,4,2,15)     =         3.141566	     179.998483
	 D(11,9,3,16)     =        -3.141407	    -179.989369
	 D(12,7,5,18)     =        -3.140667	    -179.946939
	 D(12,8,6,19)     =         3.140057	     179.912019
	 D(13,11,4,17)    =        -0.000000	      -0.000000
	 D(14,1,2,15)     =        -0.000065	      -0.003733
	 D(14,1,3,16)     =        -0.000066	      -0.003802
	 D(15,2,4,17)     =        -0.000052	      -0.002981
	 D(18,5,7,20)     =         0.001328	       0.076066
	 D(19,6,8,21)     =        -0.001109	      -0.063561

	Current energy   :      -577.7249551392

	Energy change for the previous step:
		Projected    :         0.0000003501
		Actual       :        -0.0000002745

	Performing BFGS update.
	Previous computed or guess Hessian on step 1.
	Steps to be used in Hessian update: 5 4
	Adding user-defined constraint: Fragment 1; Coordinate 67:
		Value =    -1.570831; Fixed value    =    -1.570800
		Force =     0.000019; Force constant =     0.625000
	Removing off-diagonal coupling between coordinate 67 and others.
	Taking RFO optimization step.
	Going to follow RFO solution 1.
	Using RFO vector 1.
	Norm of target step-size    0.00088
	Projected energy change by RFO approximation:        -0.0000000465

	Back-transformation to cartesian coordinates...
	Successfully converged to displaced geometry.
	First geometry is closer to target in internal coordinates, so am using that one.
	First geometry has RMS(Delta(q)) = 2.13e-06

	--- Internal Coordinate Step in ANG or DEG, aJ/ANG or AJ/DEG ---
	 ---------------------------------------------------------------------------
	   Coordinate                Previous        Force       Change         New 
	   ----------                --------       ------       ------       ------
	    1 R(1,2)          =      1.387981     0.000158     0.000024     1.388005
	    2 R(1,3)          =      1.387016     0.000019     0.000002     1.387018
	    3 R(1,14)         =      1.078561    -0.000024    -0.000003     1.078558
	    4 R(2,4)          =      1.387244     0.000024     0.000004     1.387248
	    5 R(2,15)         =      1.078854    -0.000006    -0.000001     1.078853
	    6 R(3,9)          =      1.392522     0.000041     0.000008     1.392531
	    7 R(3,16)         =      1.079761    -0.000029    -0.000004     1.079756
	    8 R(4,11)         =      1.380033     0.000111     0.000014     1.380046
	    9 R(4,17)         =      1.077834    -0.000037    -0.000006     1.077828
	   10 R(5,7)          =      1.386694     0.000096     0.000008     1.386702
	   11 R(5,10)         =      1.388655    -0.000210    -0.000024     1.388630
	   12 R(5,18)         =      1.079694     0.000016     0.000002     1.079696
	   13 R(6,8)          =      1.386707     0.000104     0.000009     1.386717
	   14 R(6,10)         =      1.388657    -0.000228    -0.000026     1.388631
	   15 R(6,19)         =      1.079695     0.000020     0.000003     1.079698
	   16 R(7,12)         =      1.334767    -0.000158    -0.000013     1.334754
	   17 R(7,20)         =      1.080894    -0.000087    -0.000013     1.080881
	   18 R(8,12)         =      1.334757    -0.000153    -0.000012     1.334745
	   19 R(8,21)         =      1.080894    -0.000085    -0.000012     1.080882
	   20 R(9,10)         =      1.469178     0.000269     0.000032     1.469210
	   21 R(9,11)         =      1.386520    -0.000041    -0.000009     1.386511
	   22 R(11,13)        =      1.345048     0.000074     0.000018     1.345066
	   23 B(1,2,4)        =    120.157760    -0.000001    -0.001674   120.156086
	   24 B(1,2,15)       =    120.298615    -0.000000    -0.001730   120.296885
	   25 B(1,3,9)        =    121.009574     0.000000     0.000936   121.010511
	   26 B(1,3,16)       =    120.485307    -0.000001    -0.004138   120.481169
	   27 B(2,1,3)        =    119.886399     0.000000     0.000626   119.887026
	   28 B(2,1,14)       =    120.158982     0.000000    -0.000022   120.158960
	   29 B(2,4,11)       =    118.747823     0.000000    -0.000087   118.747736
	   30 B(2,4,17)       =    121.865291     0.000000     0.001160   121.866451
	   31 B(3,1,14)       =    119.954619    -0.000000    -0.000605   119.954014
	   32 B(3,9,10)       =    121.596143    -0.000001    -0.002052   121.594091
	   33 B(3,9,11)       =    117.531732    -0.000000    -0.001811   117.529922
	   34 B(4,2,15)       =    119.543625     0.000001     0.003404   119.547029
	   35 B(4,11,9)       =    122.666711     0.000001     0.002009   122.668720
	   36 B(4,11,13)      =    118.776475    -0.000001    -0.001995   118.774480
	   37 B(5,7,12)       =    123.596404     0.000001     0.002836   123.599240
	   38 B(5,7,20)       =    120.158236     0.000001     0.003590   120.161827
	   39 B(5,10,6)       =    117.592968    -0.000001    -0.001746   117.591221
	   40 B(5,10,9)       =    121.204003    -0.000000    -0.000440   121.203564
	   41 B(6,8,12)       =    123.595292     0.000001     0.003265   123.598558
	   42 B(6,8,21)       =    120.159118     0.000001     0.003113   120.162231
	   43 B(6,10,9)       =    121.201033     0.000001     0.002169   121.203202
	   44 B(7,5,10)       =    119.135328     0.000000     0.000690   119.136018
	   45 B(7,5,18)       =    120.488218     0.000000     0.000642   120.488861
	   46 B(7,12,8)       =    116.943707    -0.000002    -0.005277   116.938430
	   47 B(8,6,10)       =    119.135921     0.000000     0.000247   119.136168
	   48 B(8,6,19)       =    120.487954     0.000000     0.001048   120.489002
	   49 B(9,3,16)       =    118.505119     0.000001     0.003201   118.508320
	   50 B(9,11,13)      =    118.556814    -0.000000    -0.000015   118.556799
	   51 B(10,5,18)      =    120.376451    -0.000000    -0.001332   120.375118
	   52 B(10,6,19)      =    120.376122    -0.000000    -0.001298   120.374824
	   53 B(10,9,11)      =    120.872122     0.000001     0.003863   120.875985
	   54 B(11,4,17)      =    119.386886    -0.000000    -0.001073   119.385813
	   55 B(12,7,20)      =    116.245356    -0.000002    -0.006423   116.238933
	   56 B(12,8,21)      =    116.245585    -0.000002    -0.006374   116.239211
	   57 D(1,2,4,11)     =      0.000000     0.000000     0.000000     0.000000
	   58 D(1,2,4,17)     =    179.997924    -0.000000     0.000019   179.997943
	   59 D(1,3,9,10)     =    179.985330     0.000000     0.002569   179.987899
	   60 D(1,3,9,11)     =      0.004137     0.000000     0.002561     0.006698
	   61 D(2,1,3,9)      =      0.001613    -0.000000    -0.001613     0.000000
	   62 D(2,1,3,16)     =    179.994990    -0.000000    -0.000251   179.994739
	   63 D(2,4,11,9)     =      0.006741    -0.000000    -0.000036     0.006705
	   64 D(2,4,11,13)    =    179.997913     0.000000    -0.003983   179.993930
	   65 D(3,1,2,4)      =     -0.003435     0.000000     0.000102    -0.003332
	   66 D(3,1,2,15)     =    179.997478     0.000000     0.002522   180.000000
	   67 D(3,9,10,5)     =    -90.001964    -0.000000    -0.000284   -90.002248
	   68 D(3,9,10,6)     =     89.471678    -0.000000    -0.002540    89.469138
	   69 D(3,9,11,4)     =     -0.008435     0.000000    -0.001632    -0.010067
	   70 D(3,9,11,13)    =    180.000000    -0.000000     0.002682   180.002682
	   71 D(4,2,1,14)     =    179.995354    -0.000000    -0.001175   179.994179
	   72 D(4,11,9,10)    =   -179.989772    -0.000000    -0.001639  -179.991410
	   73 D(5,7,12,8)     =      0.107146    -0.000000    -0.009997     0.097149
	   74 D(5,10,6,8)     =      0.203478    -0.000000    -0.009927     0.193551
	   75 D(5,10,6,19)    =   -179.774839    -0.000000    -0.002832  -179.777670
	   76 D(5,10,9,11)    =     89.978606    -0.000000    -0.000277    89.978329
	   77 D(6,8,12,7)     =     -0.090458    -0.000000    -0.005382    -0.095840
	   78 D(6,10,5,7)     =     -0.188234    -0.000000    -0.004121    -0.192355
	   79 D(6,10,5,18)    =    179.792127    -0.000000    -0.003384   179.788743
	   80 D(6,10,9,11)    =    -90.547752    -0.000000    -0.002533   -90.550285
	   81 D(7,5,10,9)     =    179.303764    -0.000000    -0.006279   179.297485
	   82 D(7,12,8,21)    =    179.886001     0.000000     0.016096   179.902097
	   83 D(8,6,10,9)     =   -179.288536    -0.000000    -0.007756  -179.296291
	   84 D(8,12,7,20)    =   -179.915031     0.000000     0.015833  -179.899198
	   85 D(9,3,1,14)     =   -179.997179    -0.000000    -0.000572  -179.997751
	   86 D(9,10,5,18)    =     -0.715875    -0.000000    -0.005542    -0.721417
	   87 D(9,10,6,19)    =      0.733148    -0.000000    -0.000660     0.732488
	   88 D(9,11,4,17)    =   -179.991832    -0.000000     0.000748  -179.991083
	   89 D(10,5,7,12)    =      0.033400     0.000000     0.014848     0.048248
	   90 D(10,5,7,20)    =   -179.943596    -0.000000    -0.011945  -179.955541
	   91 D(10,6,8,12)    =     -0.066272     0.000000     0.015446    -0.050826
	   92 D(10,6,8,21)    =    179.958147    -0.000000    -0.006834   179.951314
	   93 D(10,9,3,16)    =     -0.008176     0.000000     0.001004    -0.007171
	   94 D(10,9,11,13)   =      0.019038    -0.000000     0.002300     0.021338
	   95 D(11,4,2,15)    =    179.998483    -0.000000    -0.001094   179.997389
	   96 D(11,9,3,16)    =   -179.989369    -0.000000     0.000996  -179.988373
	   97 D(12,7,5,18)    =   -179.946939     0.000000     0.014111  -179.932828
	   98 D(12,8,6,19)    =    179.912019     0.000000     0.008342   179.920361
	   99 D(13,11,4,17)   =      0.000000     0.000000    -0.003858    -0.003858
	  100 D(14,1,2,15)    =     -0.003733     0.000000     0.000757    -0.002976
	  101 D(14,1,3,16)    =     -0.003802     0.000000     0.001024    -0.002778
	  102 D(15,2,4,17)    =     -0.002981    -0.000000    -0.001899    -0.004880
	  103 D(18,5,7,20)    =      0.076066    -0.000000    -0.012683     0.063383
	  104 D(19,6,8,21)    =     -0.063561    -0.000000    -0.013938    -0.077499
	 ---------------------------------------------------------------------------
	Successfully symmetrized geometry.
	 Forces used to impose fixed constraints are not included.
	  Forces zeroed: 67 

  ==> Convergence Check <==

  Measures of convergence in internal coordinates in au.
  Criteria marked as inactive (o), active & met (*), and active & unmet ( ).
  ---------------------------------------------------------------------------------------------
   Step     Total Energy     Delta E     MAX Force     RMS Force      MAX Disp      RMS Disp   
  ---------------------------------------------------------------------------------------------
    Convergence Criteria    1.00e-06 *    3.00e-04 *             o    1.20e-03 *             o
  ---------------------------------------------------------------------------------------------
      6    -577.72495514   -2.75e-07 *    3.26e-05 *    9.27e-06 o    2.81e-04 *    8.67e-05 o  ~
  ---------------------------------------------------------------------------------------------


  **** Optimization is complete! (in 6 steps) ****

  ==> Optimization Summary <==

  Measures of convergence in internal coordinates in au.
  --------------------------------------------------------------------------------------------------------------- ~
   Step         Total Energy             Delta E       MAX Force       RMS Force        MAX Disp        RMS Disp  ~
  --------------------------------------------------------------------------------------------------------------- ~
      1    -577.721814731986   -577.721814731986      0.01945248      0.00446057      0.03859495      0.00980615  ~
      2    -577.724586341428     -0.002771609443      0.00401303      0.00123912      0.01802959      0.00594274  ~
      3    -577.724941518269     -0.000355176841      0.00186353      0.00026315      0.00357414      0.00115497  ~
      4    -577.724953788791     -0.000012270522      0.00055873      0.00007732      0.00247928      0.00076852  ~
      5    -577.724954864691     -0.000001075899      0.00007549      0.00002302      0.00155438      0.00042349  ~
      6    -577.724955139196     -0.000000274505      0.00003261      0.00000927      0.00028093      0.00008671  ~
  --------------------------------------------------------------------------------------------------------------- ~

	Writing optimization data to binary file.
	Final energy is   -577.7249551391956
	Final (previous) structure:
	Cartesian Geometry (in Angstrom)
	    C    -1.3931297357   0.8569794192  -2.6671595023
	    C    -2.4650203271   1.4233601133  -1.9913226266
	    C    -0.3611162100   0.2653308087  -1.9539175922
	    C    -2.5062672374   1.3988538015  -0.6049085752
	    C     0.6654240738  -1.7406810976   0.5472289302
	    C     1.8150507679   0.3372295911   0.6085797240
	    C     1.7207207284  -2.2883969593   1.2608645240
	    C     2.8220791326  -0.2980966304   1.3193618871
	    C    -0.3800639733   0.2284212939  -0.5620133000
	    C     0.7059051326  -0.3951309344   0.2063211198
	    C    -1.4662447081   0.8036807961   0.0796441749
	    N     2.7912149364  -1.5914043887   1.6479633879
	    F    -1.5056271945   0.7796331618   1.4239007943
	    H    -1.3610771674   0.8759553748  -3.7450767655
	    H    -3.2712990657   1.8853328191  -2.5394307283
	    H     0.4773380112  -0.1782303534  -2.4697968563
	    H    -3.3249492206   1.8302382948  -0.0522849809
	    H    -0.1773260286  -2.3515188405   0.2601948102
	    H     1.8912454232   1.3876631911   0.3708305942
	    H     1.7067651541  -3.3340883743   1.5341159326
	    H     3.6930404136   0.2559085903   1.6400442545
	Saving final (previous) structure.
			--------------------------
			 OPTKING Finished Execution 
			--------------------------

    Final optimized geometry and variables:
    Molecular point group: c1
    Full point group: C1

    Geometry (in Angstrom), charge = 0, multiplicity = 1:

    C           -1.393129735690     0.856979419245    -2.667159502314
    C           -2.465020327142     1.423360113251    -1.991322626593
    C           -0.361116210015     0.265330808742    -1.953917592246
    C           -2.506267237367     1.398853801450    -0.604908575219
    C            0.665424073768    -1.740681097630     0.547228930235
    C            1.815050767894     0.337229591102     0.608579724030
    C            1.720720728443    -2.288396959338     1.260864524030
    C            2.822079132583    -0.298096630404     1.319361887061
    C           -0.380063973326     0.228421293906    -0.562013299966
    C            0.705905132601    -0.395130934418     0.206321119846
    C           -1.466244708094     0.803680796095     0.079644174916
    N            2.791214936441    -1.591404388737     1.647963387871
    F           -1.505627194510     0.779633161769     1.423900794313
    H           -1.361077167359     0.875955374836    -3.745076765538
    H           -3.271299065731     1.885332819094    -2.539430728298
    H            0.477338011239    -0.178230353369    -2.469796856286
    H           -3.324949220559     1.830238294816    -0.052284980870
    H           -0.177326028602    -2.351518840528     0.260194810197
    H            1.891245423204     1.387663191106     0.370830594181
    H            1.706765154120    -3.334088374251     1.534115932553
    H            3.693040413587     0.255908590298     1.640044254498

	Cleaning optimization helper files.

*** Psi4 exiting successfully. Buy a developer a beer!
