
    -----------------------------------------------------------------------
          Psi4: An Open-Source Ab Initio Electronic Structure Package
                               Psi4 1.1 release

                         Git: Rev {HEAD} add49b9 


    R. M. Parrish, L. A. Burns, D. G. A. Smith, A. C. Simmonett,
    A. E. DePrince III, E. G. Hohenstein, U. Bozkaya, A. Yu. Sokolov,
    R. Di Remigio, R. M. Richard, J. F. Gonthier, A. M. James,
    H. R. McAlexander, A. Kumar, M. Saitow, X. Wang, B. P. Pritchard,
    P. Verma, H. F. Schaefer III, K. Patkowski, R. A. King, E. F. Valeev,
    F. A. Evangelista, J. M. Turney, T. D. Crawford, and C. D. Sherrill,
    J. Chem. Theory Comput. in press (2017).
    (doi: 10.1021/acs.jctc.7b00174)

    -----------------------------------------------------------------------


    Psi4 started on: Saturday, 11 November 2017 10:55PM

    Process ID:  24188
    PSIDATADIR: /cbio/jclab/home/chayas/anaconda/envs/py35/share/psi4
    Memory:     500.0 MiB
    Threads:    8
    
  ==> Input File <==

--------------------------------------------------------------------------

memory 5 Gb

molecule phepyrFOH_neutral {
  symmetry C1
  0 1 
  C      1.885   -1.036   -0.112
  C      0.807   -0.463   0.561
  C      5.009   -1.415   -0.673
  C      4.145   -3.608   -0.193
  C      1.800   -1.079   2.676
  C      6.059   -2.032   -1.334
  C      5.233   -4.127   -0.875
  C      2.921   -1.631   0.608
  C      4.038   -2.225   -0.095
  C      0.764   -0.484   1.955
  C      2.878   -1.652   2.002
  N      6.196   -3.372   -1.450
  O      -0.289   0.076   2.612
  F      3.866   -2.220   2.709
  H      1.904   -1.012   -1.199
  H      0.002   -0.002   -0.006
  H      4.960   -0.332   -0.617
  H      3.406   -4.271   0.245
  H      1.772   -1.099   3.762
  H      6.843   -1.445   -1.801
  H      5.362   -5.199   -0.981
  H      -0.175   -0.018   3.571
  units Angstrom
}

dih_string = "1 8 9 3 75"
set optking fixed_dihedral = $dih_string

optimize('MP2/aug-cc-PVTZ')
--------------------------------------------------------------------------

  Memory set to   4.657 GiB by Python driver.
gradient() will perform analytic gradient computation.

*** tstart() called on gpu-1-6.local
*** at Sat Nov 11 22:55:18 2017

    SCF Algorithm Type (re)set to DF.

*** tstart() called on gpu-1-6.local
*** at Sat Nov 11 22:55:18 2017

   => Loading Basis Set <=

    Name: AUG-CC-PVTZ
    Role: ORBITAL
    Keyword: BASIS
    atoms 1-11  entry C          line   221 file /cbio/jclab/home/chayas/anaconda/envs/py35/share/psi4/basis/aug-cc-pvtz.gbs 
    atoms 12    entry N          line   267 file /cbio/jclab/home/chayas/anaconda/envs/py35/share/psi4/basis/aug-cc-pvtz.gbs 
    atoms 13    entry O          line   313 file /cbio/jclab/home/chayas/anaconda/envs/py35/share/psi4/basis/aug-cc-pvtz.gbs 
    atoms 14    entry F          line   359 file /cbio/jclab/home/chayas/anaconda/envs/py35/share/psi4/basis/aug-cc-pvtz.gbs 
    atoms 15-22 entry H          line    34 file /cbio/jclab/home/chayas/anaconda/envs/py35/share/psi4/basis/aug-cc-pvtz.gbs 


         ---------------------------------------------------------
                                   SCF
            by Justin Turney, Rob Parrish, and Andy Simmonett
                              RHF Reference
                        8 Threads,   4768 MiB Core
         ---------------------------------------------------------

  ==> Geometry <==

    Molecular point group: c1
    Full point group: C1

    Geometry (in Angstrom), charge = 0, multiplicity = 1:

       Center              X                  Y                   Z               Mass       
    ------------   -----------------  -----------------  -----------------  -----------------
           C         -1.322034567064     0.755429683923    -0.800558656794    12.000000000000
           C         -2.400034567064     1.328429683923    -0.127558656794    12.000000000000
           C          1.801965432936     0.376429683923    -1.361558656794    12.000000000000
           C          0.937965432936    -1.816570316077    -0.881558656794    12.000000000000
           C         -1.407034567064     0.712429683923     1.987441343206    12.000000000000
           C          2.851965432936    -0.240570316077    -2.022558656794    12.000000000000
           C          2.025965432936    -2.335570316077    -1.563558656794    12.000000000000
           C         -0.286034567064     0.160429683923    -0.080558656794    12.000000000000
           C          0.830965432936    -0.433570316077    -0.783558656794    12.000000000000
           C         -2.443034567064     1.307429683923     1.266441343206    12.000000000000
           C         -0.329034567064     0.139429683923     1.313441343206    12.000000000000
           N          2.988965432936    -1.580570316077    -2.138558656794    14.003074004780
           O         -3.496034567064     1.867429683923     1.923441343206    15.994914619560
           F          0.658965432936    -0.428570316077     2.020441343206    18.998403224000
           H         -1.303034567064     0.779429683923    -1.887558656794     1.007825032070
           H         -3.205034567064     1.789429683923    -0.694558656794     1.007825032070
           H          1.752965432936     1.459429683923    -1.305558656794     1.007825032070
           H          0.198965432936    -2.479570316077    -0.443558656794     1.007825032070
           H         -1.435034567064     0.692429683923     3.073441343206     1.007825032070
           H          3.635965432936     0.346429683923    -2.489558656794     1.007825032070
           H          2.154965432936    -3.407570316077    -1.669558656794     1.007825032070
           H         -3.382034567064     1.773429683923     2.882441343206     1.007825032070

  Running in c1 symmetry.

  Rotational constants: A =      0.06327  B =      0.01287  C =      0.01182 [cm^-1]
  Rotational constants: A =   1896.87683  B =    385.91388  C =    354.27504 [MHz]
  Nuclear repulsion =  813.254110111649652

  Charge       = 0
  Multiplicity = 1
  Electrons    = 98
  Nalpha       = 49
  Nbeta        = 49

  ==> Algorithm <==

  SCF Algorithm Type is DF.
  DIIS enabled.
  MOM disabled.
  Fractional occupation disabled.
  Guess Type is SAD.
  Energy threshold   = 1.00e-10
  Density threshold  = 1.00e-10
  Integral threshold = 0.00e+00

  ==> Primary Basis <==

  Basis Set: AUG-CC-PVTZ
    Blend: AUG-CC-PVTZ
    Number of shells: 268
    Number of basis function: 828
    Number of Cartesian functions: 970
    Spherical Harmonics?: true
    Max angular momentum: 3

   => Loading Basis Set <=

    Name: (AUG-CC-PVTZ AUX)
    Role: JKFIT
    Keyword: DF_BASIS_SCF
    atoms 1-11  entry C          line   161 file /cbio/jclab/home/chayas/anaconda/envs/py35/share/psi4/basis/aug-cc-pvtz-jkfit.gbs 
    atoms 12    entry N          line   223 file /cbio/jclab/home/chayas/anaconda/envs/py35/share/psi4/basis/aug-cc-pvtz-jkfit.gbs 
    atoms 13    entry O          line   285 file /cbio/jclab/home/chayas/anaconda/envs/py35/share/psi4/basis/aug-cc-pvtz-jkfit.gbs 
    atoms 14    entry F          line   347 file /cbio/jclab/home/chayas/anaconda/envs/py35/share/psi4/basis/aug-cc-pvtz-jkfit.gbs 
    atoms 15-22 entry H          line    69 file /cbio/jclab/home/chayas/anaconda/envs/py35/share/psi4/basis/aug-cc-pvtz-jkfit.gbs 

  ==> Pre-Iterations <==

   -------------------------------------------------------
    Irrep   Nso     Nmo     Nalpha   Nbeta   Ndocc  Nsocc
   -------------------------------------------------------
     A        828     828       0       0       0       0
   -------------------------------------------------------
    Total     828     828      49      49      49       0
   -------------------------------------------------------

  ==> Integral Setup <==

  ==> DFJK: Density-Fitted J/K Matrices <==

    J tasked:                  Yes
    K tasked:                  Yes
    wK tasked:                  No
    OpenMP threads:              8
    Integrals threads:           8
    Memory (MB):              3576
    Algorithm:                Disk
    Integral Cache:           NONE
    Schwarz Cutoff:          1E-12
    Fitting Condition:       1E-12

   => Auxiliary Basis Set <=

  Basis Set: (AUG-CC-PVTZ AUX)
    Blend: AUG-CC-PVTZ-JKFIT
    Number of shells: 532
    Number of basis function: 1824
    Number of Cartesian functions: 2274
    Spherical Harmonics?: true
    Max angular momentum: 4

  Minimum eigenvalue in the overlap matrix is 7.2406850471E-07.
  Using Symmetric Orthogonalization.

  SCF Guess: Superposition of Atomic Densities via on-the-fly atomic UHF.

  ==> Iterations <==

                           Total Energy        Delta E     RMS |[F,P]|

   @DF-RHF iter   0:  -656.32984626599466   -6.56330e+02   2.28196e-02 
   @DF-RHF iter   1:  -649.76583862928032    6.56401e+00   2.36638e-03 
   @DF-RHF iter   2:  -650.09651335697617   -3.30675e-01   9.45784e-04 DIIS
   @DF-RHF iter   3:  -650.15353296303510   -5.70196e-02   4.27790e-04 DIIS
   @DF-RHF iter   4:  -650.17041038352363   -1.68774e-02   1.34996e-04 DIIS
   @DF-RHF iter   5:  -650.17227185087131   -1.86147e-03   5.43309e-05 DIIS
   @DF-RHF iter   6:  -650.17257681090803   -3.04960e-04   2.05972e-05 DIIS
   @DF-RHF iter   7:  -650.17262311013906   -4.62992e-05   6.17069e-06 DIIS
   @DF-RHF iter   8:  -650.17262834432290   -5.23418e-06   2.15887e-06 DIIS
   @DF-RHF iter   9:  -650.17262928435900   -9.40036e-07   1.13511e-06 DIIS
   @DF-RHF iter  10:  -650.17262960143819   -3.17079e-07   5.48857e-07 DIIS
   @DF-RHF iter  11:  -650.17262969283513   -9.13969e-08   2.09057e-07 DIIS
   @DF-RHF iter  12:  -650.17262970329966   -1.04645e-08   7.87685e-08 DIIS
   @DF-RHF iter  13:  -650.17262970415095   -8.51287e-10   2.76543e-08 DIIS
   @DF-RHF iter  14:  -650.17262970427214   -1.21190e-10   9.57208e-09 DIIS
   @DF-RHF iter  15:  -650.17262970430579   -3.36513e-11   4.59329e-09 DIIS
   @DF-RHF iter  16:  -650.17262970431523   -9.43601e-12   2.17051e-09 DIIS
   @DF-RHF iter  17:  -650.17262970431614   -9.09495e-13   1.02084e-09 DIIS
   @DF-RHF iter  18:  -650.17262970432364   -7.50333e-12   3.95522e-10 DIIS
   @DF-RHF iter  19:  -650.17262970432535   -1.70530e-12   1.67387e-10 DIIS
   @DF-RHF iter  20:  -650.17262970431921    6.13909e-12   7.64678e-11 DIIS

  ==> Post-Iterations <==

    Orbital Energies (a.u.)
    -----------------------

    Doubly Occupied:                                                      

       1A    -26.326556     2A    -20.608426     3A    -15.566458  
       4A    -11.348801     5A    -11.326879     6A    -11.275660  
       7A    -11.275151     8A    -11.265582     9A    -11.264531  
      10A    -11.253541    11A    -11.252188    12A    -11.245182  
      13A    -11.240155    14A    -11.239415    15A     -1.644439  
      16A     -1.423085    17A     -1.251252    18A     -1.181114  
      19A     -1.110077    20A     -1.040210    21A     -1.035548  
      22A     -1.019380    23A     -0.891286    24A     -0.874477  
      25A     -0.856114    26A     -0.824483    27A     -0.772579  
      28A     -0.746251    29A     -0.725524    30A     -0.710611  
      31A     -0.695856    32A     -0.666270    33A     -0.660485  
      34A     -0.642639    35A     -0.635772    36A     -0.613813  
      37A     -0.607881    38A     -0.600089    39A     -0.577807  
      40A     -0.542874    41A     -0.533016    42A     -0.531123  
      43A     -0.524994    44A     -0.492671    45A     -0.420078  
      46A     -0.380532    47A     -0.360232    48A     -0.349382  
      49A     -0.329509  

    Virtual:                                                              

      50A      0.021944    51A      0.029541    52A      0.034477  
      53A      0.035688    54A      0.044600    55A      0.047898  
      56A      0.051604    57A      0.053855    58A      0.076318  
      59A      0.082110    60A      0.085626    61A      0.086997  
      62A      0.091833    63A      0.094825    64A      0.098022  
      65A      0.102511    66A      0.105555    67A      0.107980  
      68A      0.109812    69A      0.112275    70A      0.113321  
      71A      0.119697    72A      0.120082    73A      0.125017  
      74A      0.128600    75A      0.131727    76A      0.133277  
      77A      0.135090    78A      0.139714    79A      0.141449  
      80A      0.143378    81A      0.146986    82A      0.151316  
      83A      0.155936    84A      0.156647    85A      0.166161  
      86A      0.169284    87A      0.174511    88A      0.185906  
      89A      0.188087    90A      0.192348    91A      0.196356  
      92A      0.204884    93A      0.210865    94A      0.217369  
      95A      0.226754    96A      0.230295    97A      0.234114  
      98A      0.237050    99A      0.239448   100A      0.241705  
     101A      0.243272   102A      0.252119   103A      0.257324  
     104A      0.258484   105A      0.259143   106A      0.263401  
     107A      0.264517   108A      0.269948   109A      0.275842  
     110A      0.282235   111A      0.282918   112A      0.283361  
     113A      0.291849   114A      0.294393   115A      0.300214  
     116A      0.303200   117A      0.309476   118A      0.312158  
     119A      0.316071   120A      0.318034   121A      0.323003  
     122A      0.327990   123A      0.330070   124A      0.334191  
     125A      0.337891   126A      0.341505   127A      0.344157  
     128A      0.350084   129A      0.353002   130A      0.363430  
     131A      0.367694   132A      0.377062   133A      0.380231  
     134A      0.385724   135A      0.390807   136A      0.395550  
     137A      0.400409   138A      0.406033   139A      0.409306  
     140A      0.410535   141A      0.416244   142A      0.418830  
     143A      0.423086   144A      0.427514   145A      0.431628  
     146A      0.436299   147A      0.437741   148A      0.440351  
     149A      0.447958   150A      0.450160   151A      0.458290  
     152A      0.462119   153A      0.463716   154A      0.470171  
     155A      0.470934   156A      0.476002   157A      0.479940  
     158A      0.482583   159A      0.486329   160A      0.489762  
     161A      0.495005   162A      0.497913   163A      0.501212  
     164A      0.503976   165A      0.506067   166A      0.509536  
     167A      0.513962   168A      0.514996   169A      0.518872  
     170A      0.523837   171A      0.525502   172A      0.529047  
     173A      0.535168   174A      0.542772   175A      0.543704  
     176A      0.549148   177A      0.551299   178A      0.556546  
     179A      0.561071   180A      0.563945   181A      0.571680  
     182A      0.575503   183A      0.581048   184A      0.586389  
     185A      0.589918   186A      0.595932   187A      0.606078  
     188A      0.616018   189A      0.618684   190A      0.625417  
     191A      0.629124   192A      0.634606   193A      0.636944  
     194A      0.638477   195A      0.641702   196A      0.656371  
     197A      0.667169   198A      0.670985   199A      0.677079  
     200A      0.680280   201A      0.690397   202A      0.694402  
     203A      0.696941   204A      0.702013   205A      0.708559  
     206A      0.715438   207A      0.726341   208A      0.729751  
     209A      0.730828   210A      0.734368   211A      0.739265  
     212A      0.745373   213A      0.752225   214A      0.760075  
     215A      0.763336   216A      0.769561   217A      0.774942  
     218A      0.779433   219A      0.783616   220A      0.788545  
     221A      0.790069   222A      0.798953   223A      0.804599  
     224A      0.807908   225A      0.814568   226A      0.823641  
     227A      0.826204   228A      0.835296   229A      0.844023  
     230A      0.846740   231A      0.850073   232A      0.856666  
     233A      0.867657   234A      0.875579   235A      0.882269  
     236A      0.883318   237A      0.889011   238A      0.893437  
     239A      0.897782   240A      0.902213   241A      0.905699  
     242A      0.909733   243A      0.917081   244A      0.919966  
     245A      0.921355   246A      0.931107   247A      0.935865  
     248A      0.939028   249A      0.939910   250A      0.946132  
     251A      0.948871   252A      0.949936   253A      0.956451  
     254A      0.959348   255A      0.963059   256A      0.970296  
     257A      0.975112   258A      0.981688   259A      0.988700  
     260A      0.993684   261A      0.997528   262A      1.004156  
     263A      1.005661   264A      1.009921   265A      1.015481  
     266A      1.017687   267A      1.022901   268A      1.024115  
     269A      1.028690   270A      1.038810   271A      1.043337  
     272A      1.046762   273A      1.048857   274A      1.050608  
     275A      1.061728   276A      1.069399   277A      1.071027  
     278A      1.074887   279A      1.080128   280A      1.086198  
     281A      1.089167   282A      1.091277   283A      1.097477  
     284A      1.100593   285A      1.105938   286A      1.108996  
     287A      1.115774   288A      1.128160   289A      1.134404  
     290A      1.136440   291A      1.140717   292A      1.144792  
     293A      1.147840   294A      1.152481   295A      1.157057  
     296A      1.162948   297A      1.170211   298A      1.175160  
     299A      1.177345   300A      1.187203   301A      1.188215  
     302A      1.190420   303A      1.192972   304A      1.200630  
     305A      1.206074   306A      1.213332   307A      1.215185  
     308A      1.218560   309A      1.221105   310A      1.232619  
     311A      1.237048   312A      1.240146   313A      1.253250  
     314A      1.256157   315A      1.262998   316A      1.271021  
     317A      1.279368   318A      1.282156   319A      1.286896  
     320A      1.290734   321A      1.300304   322A      1.303716  
     323A      1.310328   324A      1.314894   325A      1.322122  
     326A      1.325754   327A      1.328990   328A      1.338457  
     329A      1.346429   330A      1.360172   331A      1.368938  
     332A      1.371969   333A      1.382179   334A      1.383485  
     335A      1.388113   336A      1.403416   337A      1.410625  
     338A      1.415598   339A      1.420362   340A      1.426481  
     341A      1.430107   342A      1.435999   343A      1.446332  
     344A      1.462881   345A      1.473775   346A      1.478394  
     347A      1.483293   348A      1.494297   349A      1.498204  
     350A      1.508601   351A      1.513506   352A      1.520661  
     353A      1.526258   354A      1.540018   355A      1.545572  
     356A      1.559495   357A      1.562068   358A      1.570352  
     359A      1.574638   360A      1.583993   361A      1.589975  
     362A      1.598166   363A      1.604206   364A      1.613141  
     365A      1.617448   366A      1.624564   367A      1.626233  
     368A      1.638810   369A      1.646440   370A      1.656929  
     371A      1.666898   372A      1.671772   373A      1.675935  
     374A      1.685154   375A      1.688214   376A      1.698341  
     377A      1.707279   378A      1.717004   379A      1.722168  
     380A      1.727697   381A      1.735411   382A      1.742466  
     383A      1.746203   384A      1.751780   385A      1.763589  
     386A      1.767823   387A      1.775998   388A      1.778669  
     389A      1.787384   390A      1.797617   391A      1.803038  
     392A      1.810339   393A      1.815436   394A      1.827653  
     395A      1.830759   396A      1.847411   397A      1.851010  
     398A      1.867609   399A      1.870723   400A      1.880227  
     401A      1.884571   402A      1.892409   403A      1.895979  
     404A      1.905526   405A      1.911366   406A      1.917950  
     407A      1.926559   408A      1.932604   409A      1.940731  
     410A      1.945067   411A      1.960148   412A      1.960529  
     413A      1.975038   414A      1.982379   415A      1.986002  
     416A      2.003845   417A      2.015884   418A      2.021086  
     419A      2.023597   420A      2.033818   421A      2.041632  
     422A      2.047859   423A      2.061020   424A      2.065050  
     425A      2.068528   426A      2.078713   427A      2.092806  
     428A      2.095371   429A      2.099408   430A      2.104975  
     431A      2.113527   432A      2.121738   433A      2.129135  
     434A      2.133194   435A      2.141759   436A      2.144593  
     437A      2.157420   438A      2.161743   439A      2.175094  
     440A      2.183806   441A      2.188655   442A      2.197038  
     443A      2.205271   444A      2.215062   445A      2.223261  
     446A      2.228829   447A      2.242643   448A      2.249390  
     449A      2.261601   450A      2.271081   451A      2.279920  
     452A      2.283963   453A      2.294854   454A      2.308976  
     455A      2.317338   456A      2.328383   457A      2.341326  
     458A      2.346478   459A      2.351999   460A      2.363500  
     461A      2.372436   462A      2.378649   463A      2.396331  
     464A      2.409889   465A      2.418738   466A      2.426158  
     467A      2.433808   468A      2.447119   469A      2.453103  
     470A      2.461797   471A      2.484502   472A      2.500642  
     473A      2.513270   474A      2.535288   475A      2.545251  
     476A      2.554880   477A      2.569962   478A      2.574446  
     479A      2.580272   480A      2.588680   481A      2.594327  
     482A      2.598893   483A      2.605893   484A      2.629301  
     485A      2.636233   486A      2.653851   487A      2.665069  
     488A      2.680403   489A      2.706311   490A      2.724031  
     491A      2.742747   492A      2.753405   493A      2.759663  
     494A      2.807169   495A      2.814156   496A      2.822401  
     497A      2.825616   498A      2.840830   499A      2.850486  
     500A      2.868297   501A      2.885362   502A      2.894674  
     503A      2.910537   504A      2.952928   505A      2.959467  
     506A      2.991851   507A      3.020870   508A      3.026167  
     509A      3.044422   510A      3.048391   511A      3.065384  
     512A      3.069122   513A      3.086804   514A      3.124818  
     515A      3.139547   516A      3.154498   517A      3.171042  
     518A      3.173616   519A      3.180171   520A      3.186101  
     521A      3.202373   522A      3.209973   523A      3.228195  
     524A      3.243073   525A      3.254260   526A      3.265060  
     527A      3.283949   528A      3.295482   529A      3.299075  
     530A      3.316781   531A      3.331979   532A      3.348091  
     533A      3.353233   534A      3.375185   535A      3.386365  
     536A      3.391974   537A      3.404705   538A      3.414250  
     539A      3.418635   540A      3.431121   541A      3.439473  
     542A      3.442001   543A      3.451193   544A      3.459704  
     545A      3.467120   546A      3.473620   547A      3.483731  
     548A      3.494568   549A      3.501304   550A      3.512347  
     551A      3.519316   552A      3.530019   553A      3.537559  
     554A      3.542107   555A      3.547309   556A      3.556598  
     557A      3.560665   558A      3.576541   559A      3.585109  
     560A      3.589108   561A      3.603016   562A      3.610788  
     563A      3.619243   564A      3.626896   565A      3.633894  
     566A      3.640148   567A      3.642821   568A      3.659107  
     569A      3.660340   570A      3.671929   571A      3.684339  
     572A      3.693083   573A      3.709333   574A      3.716017  
     575A      3.720540   576A      3.746177   577A      3.746445  
     578A      3.747992   579A      3.764215   580A      3.769089  
     581A      3.780412   582A      3.793247   583A      3.800416  
     584A      3.807460   585A      3.813625   586A      3.824543  
     587A      3.830214   588A      3.843202   589A      3.852686  
     590A      3.856954   591A      3.874393   592A      3.880941  
     593A      3.890738   594A      3.899318   595A      3.904279  
     596A      3.914088   597A      3.926298   598A      3.927136  
     599A      3.933366   600A      3.936712   601A      3.945998  
     602A      3.948702   603A      3.957428   604A      3.963982  
     605A      3.977908   606A      3.985760   607A      4.003226  
     608A      4.011671   609A      4.034052   610A      4.036273  
     611A      4.047676   612A      4.051650   613A      4.066765  
     614A      4.072262   615A      4.076704   616A      4.083057  
     617A      4.088774   618A      4.097644   619A      4.112456  
     620A      4.119418   621A      4.134375   622A      4.137385  
     623A      4.144823   624A      4.158330   625A      4.166955  
     626A      4.178263   627A      4.185337   628A      4.191823  
     629A      4.206524   630A      4.212586   631A      4.213819  
     632A      4.224026   633A      4.241313   634A      4.243344  
     635A      4.248174   636A      4.258901   637A      4.267291  
     638A      4.276157   639A      4.289106   640A      4.297620  
     641A      4.306231   642A      4.313168   643A      4.324003  
     644A      4.328956   645A      4.348787   646A      4.357474  
     647A      4.366092   648A      4.369355   649A      4.378237  
     650A      4.393961   651A      4.407066   652A      4.417630  
     653A      4.425723   654A      4.428433   655A      4.437517  
     656A      4.439247   657A      4.450163   658A      4.455169  
     659A      4.461165   660A      4.466493   661A      4.496754  
     662A      4.509611   663A      4.510180   664A      4.524094  
     665A      4.527711   666A      4.543546   667A      4.554760  
     668A      4.572194   669A      4.575822   670A      4.591689  
     671A      4.600737   672A      4.601723   673A      4.622301  
     674A      4.635278   675A      4.654846   676A      4.674789  
     677A      4.683959   678A      4.695672   679A      4.697898  
     680A      4.720427   681A      4.738797   682A      4.741213  
     683A      4.758919   684A      4.771499   685A      4.783764  
     686A      4.799652   687A      4.815197   688A      4.841983  
     689A      4.850467   690A      4.878738   691A      4.893861  
     692A      4.901843   693A      4.905054   694A      4.929366  
     695A      4.947012   696A      4.957653   697A      4.967036  
     698A      4.972245   699A      4.982322   700A      4.987083  
     701A      5.020222   702A      5.023055   703A      5.030727  
     704A      5.038515   705A      5.047769   706A      5.060449  
     707A      5.074660   708A      5.094708   709A      5.100934  
     710A      5.109766   711A      5.124573   712A      5.133112  
     713A      5.143945   714A      5.158326   715A      5.164582  
     716A      5.172425   717A      5.179993   718A      5.188520  
     719A      5.194427   720A      5.199902   721A      5.215273  
     722A      5.272471   723A      5.278314   724A      5.298281  
     725A      5.302324   726A      5.327795   727A      5.335579  
     728A      5.356416   729A      5.368319   730A      5.384623  
     731A      5.390459   732A      5.427487   733A      5.438856  
     734A      5.454241   735A      5.454849   736A      5.466185  
     737A      5.483883   738A      5.497852   739A      5.536198  
     740A      5.551540   741A      5.556382   742A      5.578812  
     743A      5.590038   744A      5.609629   745A      5.638320  
     746A      5.689154   747A      5.725770   748A      5.744370  
     749A      5.752664   750A      5.768867   751A      5.790467  
     752A      5.827487   753A      5.836557   754A      5.871566  
     755A      5.878731   756A      5.884120   757A      5.911698  
     758A      5.955901   759A      6.020431   760A      6.046002  
     761A      6.079275   762A      6.100065   763A      6.134863  
     764A      6.181457   765A      6.229407   766A      6.240370  
     767A      6.271401   768A      6.300546   769A      6.334689  
     770A      6.354502   771A      6.396397   772A      6.470878  
     773A      6.479794   774A      6.520270   775A      6.553639  
     776A      6.567561   777A      6.692257   778A      6.695358  
     779A      6.705218   780A      6.711758   781A      6.751148  
     782A      6.835732   783A      6.870819   784A      6.885872  
     785A      6.922151   786A      6.964746   787A      6.994398  
     788A      7.049389   789A      7.056161   790A      7.067756  
     791A      7.184349   792A      7.252598   793A      7.391128  
     794A      7.410718   795A      7.414490   796A      7.473200  
     797A      7.678829   798A      7.684605   799A      7.747448  
     800A      7.997828   801A      8.378008   802A      8.631009  
     803A      8.987215   804A      9.042482   805A      9.270715  
     806A      9.286562   807A      9.401280   808A      9.512207  
     809A      9.530906   810A      9.590291   811A      9.644384  
     812A      9.708615   813A     10.021435   814A     10.075575  
     815A     15.567284   816A     16.086399   817A     16.533212  
     818A     16.578221   819A     16.726668   820A     16.790012  
     821A     18.508803   822A     18.773261   823A     19.184715  
     824A     19.780997   825A     20.112606   826A     20.202617  
     827A     20.434193   828A     21.838813  

    Final Occupation by Irrep:
              A 
    DOCC [    49 ]

  Energy converged.

  @DF-RHF Final Energy:  -650.17262970431921

   => Energetics <=

    Nuclear Repulsion Energy =            813.2541101116496520
    One-Electron Energy =               -2501.3335246745336917
    Two-Electron Energy =                1037.9067848585648335
    DFT Exchange-Correlation Energy =       0.0000000000000000
    Empirical Dispersion Energy =           0.0000000000000000
    PCM Polarization Energy =               0.0000000000000000
    EFP Energy =                            0.0000000000000000
    Total Energy =                       -650.1726297043192062



Properties will be evaluated at   0.000000,   0.000000,   0.000000 Bohr

Properties computed using the SCF density matrix

  Nuclear Dipole Moment: (a.u.)
     X:    -2.1305      Y:     1.3117      Z:    -4.2665

  Electronic Dipole Moment: (a.u.)
     X:     1.1609      Y:    -0.8030      Z:     4.8623

  Dipole Moment: (a.u.)
     X:    -0.9696      Y:     0.5087      Z:     0.5957     Total:     1.2465

  Dipole Moment: (Debye)
     X:    -2.4644      Y:     1.2929      Z:     1.5142     Total:     3.1682


*** tstop() called on gpu-1-6.local at Sat Nov 11 23:03:46 2017
Module time:
	user time   =    1193.34 seconds =      19.89 minutes
	system time =      52.67 seconds =       0.88 minutes
	total time  =        508 seconds =       8.47 minutes
Total time:
	user time   =    1193.35 seconds =      19.89 minutes
	system time =      52.68 seconds =       0.88 minutes
	total time  =        508 seconds =       8.47 minutes

  //>>>>>>>>>>>>>>>>>>>>>>>>>>>>>>>>>>>//
  //               DFMP2               //
  //<<<<<<<<<<<<<<<<<<<<<<<<<<<<<<<<<<<//

   => Loading Basis Set <=

    Name: (AUG-CC-PVTZ AUX)
    Role: RIFIT
    Keyword: DF_BASIS_MP2
    atoms 1-11  entry C          line   147 file /cbio/jclab/home/chayas/anaconda/envs/py35/share/psi4/basis/aug-cc-pvtz-ri.gbs 
    atoms 12    entry N          line   205 file /cbio/jclab/home/chayas/anaconda/envs/py35/share/psi4/basis/aug-cc-pvtz-ri.gbs 
    atoms 13    entry O          line   263 file /cbio/jclab/home/chayas/anaconda/envs/py35/share/psi4/basis/aug-cc-pvtz-ri.gbs 
    atoms 14    entry F          line   321 file /cbio/jclab/home/chayas/anaconda/envs/py35/share/psi4/basis/aug-cc-pvtz-ri.gbs 
    atoms 15-22 entry H          line    29 file /cbio/jclab/home/chayas/anaconda/envs/py35/share/psi4/basis/aug-cc-pvtz-ri.gbs 

	 --------------------------------------------------------
	                          DF-MP2                         
	      2nd-Order Density-Fitted Moller-Plesset Theory     
	              RMP2 Wavefunction,   8 Threads             
	                                                         
	        Rob Parrish, Justin Turney, Andy Simmonett,      
	           Ed Hohenstein, and C. David Sherrill          
	 --------------------------------------------------------

   => Auxiliary Basis Set <=

  Basis Set: (AUG-CC-PVTZ AUX)
    Blend: AUG-CC-PVTZ-RI
    Number of shells: 504
    Number of basis function: 1852
    Number of Cartesian functions: 2344
    Spherical Harmonics?: true
    Max angular momentum: 4

	 --------------------------------------------------------
	                 NBF =   828, NAUX =  1852
	 --------------------------------------------------------
	   CLASS    FOCC     OCC    AOCC    AVIR     VIR    FVIR
	   PAIRS       0      49      49     779     779       0
	 --------------------------------------------------------


         ------------------------------------------------------------
                                     CPHF                           
                                  Rob Parrish                       
         ------------------------------------------------------------

  ==> Geometry <==

    Molecular point group: c1
    Full point group: C1

    Geometry (in Angstrom), charge = 0, multiplicity = 1:

       Center              X                  Y                   Z               Mass       
    ------------   -----------------  -----------------  -----------------  -----------------
           C         -1.322034567064     0.755429683923    -0.800558656794    12.000000000000
           C         -2.400034567064     1.328429683923    -0.127558656794    12.000000000000
           C          1.801965432936     0.376429683923    -1.361558656794    12.000000000000
           C          0.937965432936    -1.816570316077    -0.881558656794    12.000000000000
           C         -1.407034567064     0.712429683923     1.987441343206    12.000000000000
           C          2.851965432936    -0.240570316077    -2.022558656794    12.000000000000
           C          2.025965432936    -2.335570316077    -1.563558656794    12.000000000000
           C         -0.286034567064     0.160429683923    -0.080558656794    12.000000000000
           C          0.830965432936    -0.433570316077    -0.783558656794    12.000000000000
           C         -2.443034567064     1.307429683923     1.266441343206    12.000000000000
           C         -0.329034567064     0.139429683923     1.313441343206    12.000000000000
           N          2.988965432936    -1.580570316077    -2.138558656794    14.003074004780
           O         -3.496034567064     1.867429683923     1.923441343206    15.994914619560
           F          0.658965432936    -0.428570316077     2.020441343206    18.998403224000
           H         -1.303034567064     0.779429683923    -1.887558656794     1.007825032070
           H         -3.205034567064     1.789429683923    -0.694558656794     1.007825032070
           H          1.752965432936     1.459429683923    -1.305558656794     1.007825032070
           H          0.198965432936    -2.479570316077    -0.443558656794     1.007825032070
           H         -1.435034567064     0.692429683923     3.073441343206     1.007825032070
           H          3.635965432936     0.346429683923    -2.489558656794     1.007825032070
           H          2.154965432936    -3.407570316077    -1.669558656794     1.007825032070
           H         -3.382034567064     1.773429683923     2.882441343206     1.007825032070

  Nuclear repulsion =  813.254110111649652
  Reference energy  = -650.172629704319206

  ==> Basis Set <==

  Basis Set: AUG-CC-PVTZ
    Blend: AUG-CC-PVTZ
    Number of shells: 268
    Number of basis function: 828
    Number of Cartesian functions: 970
    Spherical Harmonics?: true
    Max angular momentum: 3

  ==> CGRSolver (by Rob Parrish) <==

   Number of roots    =         1
   Preconditioning    =    JACOBI
   Convergence cutoff =     1E-06
   Maximum iterations =       100

  ==> CPHFRHamiltonian (by Rob Parrish) <== 

  ==> DFJK: Density-Fitted J/K Matrices <==

    J tasked:                  Yes
    K tasked:                  Yes
    wK tasked:                  No
    OpenMP threads:              8
    Integrals threads:           8
    Memory (MB):              3576
    Algorithm:                Disk
    Integral Cache:           NONE
    Schwarz Cutoff:          1E-12
    Fitting Condition:       1E-12

   => Auxiliary Basis Set <=

  Basis Set: (AUG-CC-PVTZ AUX)
    Blend: AUG-CC-PVTZ-JKFIT
    Number of shells: 532
    Number of basis function: 1824
    Number of Cartesian functions: 2274
    Spherical Harmonics?: true
    Max angular momentum: 4

  ==> CPHF Iterations <==

  => Iterations <=

             Iter  Converged  Remaining    Residual
  CGR           1          0          1   1.020E-01
  CGR           2          0          1   3.367E-02
  CGR           3          0          1   2.186E-02
  CGR           4          0          1   9.588E-03
  CGR           5          0          1   3.961E-03
  CGR           6          0          1   1.475E-03
  CGR           7          0          1   4.376E-04
  CGR           8          0          1   1.472E-04
  CGR           9          0          1   4.717E-05
  CGR          10          0          1   1.448E-05
  CGR          11          0          1   6.886E-06
  CGR          12          0          1   2.999E-06
  CGR          13          0          1   1.458E-06
  CGR          14          1          0   5.213E-07

    CGRSolver converged.

  ==> DFCorrGrad: Density-Fitted Correlated Gradients <==

    OpenMP threads:              8
    Integrals threads:           8
    Memory (MB):              3576
    Schwarz Cutoff:          0E+00
    Fitting Condition:       1E-12

   => Auxiliary Basis Set <=

  Basis Set: (AUG-CC-PVTZ AUX)
    Blend: AUG-CC-PVTZ-JKFIT
    Number of shells: 532
    Number of basis function: 1824
    Number of Cartesian functions: 2274
    Spherical Harmonics?: true
    Max angular momentum: 4

	-----------------------------------------------------------
	 ==================> DF-MP2 Energies <==================== 
	-----------------------------------------------------------
	 Reference Energy          =    -650.1726297043192062 [Eh]
	 Singles Energy            =      -0.0000000000000002 [Eh]
	 Same-Spin Energy          =      -0.6772220761378809 [Eh]
	 Opposite-Spin Energy      =      -2.0193133376385721 [Eh]
	 Correlation Energy        =      -2.6965354137764530 [Eh]
	 Total Energy              =    -652.8691651180956796 [Eh]
	-----------------------------------------------------------
	 ================> DF-SCS-MP2 Energies <================== 
	-----------------------------------------------------------
	 SCS Same-Spin Scale       =       0.3333333333333333 [-]
	 SCS Opposite-Spin Scale   =       1.2000000000000000 [-]
	 SCS Same-Spin Energy      =      -0.2257406920459603 [Eh]
	 SCS Opposite-Spin Energy  =      -2.4231760051662863 [Eh]
	 SCS Correlation Energy    =      -2.6489166972122464 [Eh]
	 SCS Total Energy          =    -652.8215464015314637 [Eh]
	-----------------------------------------------------------


  -Total Gradient:
     Atom            X                  Y                   Z
    ------   -----------------  -----------------  -----------------
       1        0.008192157776    -0.005501892048    -0.014223588678
       2        0.003914616840    -0.002379332426     0.002842067679
       3       -0.002726206486     0.005931035525     0.003194062208
       4       -0.006677634371    -0.001407214221     0.003011589355
       5       -0.007593975673     0.004168744735     0.001139031513
       6       -0.005875721885     0.012532346597     0.004384275756
       7       -0.011905966725    -0.002474113706     0.007390138688
       8        0.001066753388    -0.000490363663    -0.004449409912
       9       -0.004097478932     0.002200510667     0.000298263061
      10       -0.008985332254     0.005102060635    -0.004441780527
      11        0.022523867026    -0.010922326024     0.006232620344
      12        0.013162748309    -0.007358010208    -0.008423217132
      13        0.003023697493    -0.001618793126     0.000272084043
      14        0.001102791888    -0.000908836606     0.002888696423
      15       -0.002596110975     0.001803856401    -0.006247405045
      16       -0.003113887645     0.001993129093    -0.005325557775
      17        0.001650065394     0.004769121657    -0.001362352950
      18       -0.001938405717    -0.004431020554     0.000963238524
      19       -0.001106232707     0.000278772271     0.004372261112
      20        0.002320441423     0.001008992630    -0.001421528698
      21        0.000870664919    -0.002637366035    -0.000571319777
      22       -0.001210851087     0.000340698409     0.009477831790


*** tstop() called on gpu-1-6.local at Sat Nov 11 23:41:53 2017
Module time:
	user time   =    5885.95 seconds =      98.10 minutes
	system time =     115.86 seconds =       1.93 minutes
	total time  =       2795 seconds =      46.58 minutes
Total time:
	user time   =    5885.96 seconds =      98.10 minutes
	system time =     115.87 seconds =       1.93 minutes
	total time  =       2795 seconds =      46.58 minutes

			-----------------------------------------
			 OPTKING 2.0: for geometry optimizations 
			  - R.A. King,  Bethel University        
			-----------------------------------------

	Internal coordinates to be generated automatically.
	Detected frag 1 with atoms:  1 2 3 4 5 6 7 8 9 10 11 12 13 14 15 16 17 18 19 20
	 21 22
	---Fragment 1 Bond Connectivity---
	 1 : 2 8 15
	 2 : 1 10 16
	 3 : 6 9 17
	 4 : 7 9 18
	 5 : 10 11 19
	 6 : 3 12 20
	 7 : 4 12 21
	 8 : 1 9 11
	 9 : 3 4 8
	 10 : 2 5 13
	 11 : 5 8 14
	 12 : 6 7
	 13 : 10 22
	 14 : 11
	 15 : 1
	 16 : 2
	 17 : 3
	 18 : 4
	 19 : 5
	 20 : 6
	 21 : 7
	 22 : 13

	Assuming in current code that numbering for constraints corresponds to unified fragment.
	Fixed dihedral atom list: 
	     1     8     9     3
	---Fragment 1 Geometry and Gradient---
	 C          -2.4982832700        1.4275552153       -1.5128366147
	 C          -4.5354080412        2.5103682894       -0.2410509272
	 C           3.4052211692        0.7113490109       -2.5729729752
	 C           1.7724977904       -3.4328203985       -1.6659044314
	 C          -2.6589099913        1.3462969916        3.7557198438
	 C           5.3894336087       -0.4546120131       -3.8220819490
	 C           3.8285198229       -4.4135882615       -2.9546976540
	 C          -0.5405269963        0.3031681662       -0.1522337990
	 C           1.5702970941       -0.8193291567       -1.4807112704
	 C          -4.6166662649        2.4706840406        2.3932273020
	 C          -0.6217852200        0.2634839174        2.4820444303
	 N           5.6483260889       -2.9868450312       -4.0412901805
	 O          -6.6065478829        3.5289306750        3.6347773713
	 F           1.2452641993       -0.8098805261        3.8180808062
	 H          -2.4623784734        1.4729086425       -3.5669689211
	 H          -6.0566375782        3.3815320367       -1.3125256446
	 H           3.3126245887        2.7579224128       -2.4671483118
	 H           0.3759901782       -4.6857088246       -0.8382043852
	 H          -2.7118223230        1.3085024689        5.8079624241
	 H           6.8709788969        0.6546572269       -4.7045840531
	 H           4.0722944941       -6.4393746759       -3.1550086241
	 H          -6.3911191037        3.3512964185        5.4470247328
	             0.0081921578       -0.0055018920       -0.0142235887
	             0.0039146168       -0.0023793324        0.0028420677
	            -0.0027262065        0.0059310355        0.0031940622
	            -0.0066776344       -0.0014072142        0.0030115894
	            -0.0075939757        0.0041687447        0.0011390315
	            -0.0058757219        0.0125323466        0.0043842758
	            -0.0119059667       -0.0024741137        0.0073901387
	             0.0010667534       -0.0004903637       -0.0044494099
	            -0.0040974789        0.0022005107        0.0002982631
	            -0.0089853323        0.0051020606       -0.0044417805
	             0.0225238670       -0.0109223260        0.0062326203
	             0.0131627483       -0.0073580102       -0.0084232171
	             0.0030236975       -0.0016187931        0.0002720840
	             0.0011027919       -0.0009088366        0.0028886964
	            -0.0025961110        0.0018038564       -0.0062474050
	            -0.0031138876        0.0019931291       -0.0053255578
	             0.0016500654        0.0047691217       -0.0013623529
	            -0.0019384057       -0.0044310206        0.0009632385
	            -0.0011062327        0.0002787723        0.0043722611
	             0.0023204414        0.0010089926       -0.0014215287
	             0.0008706649       -0.0026373660       -0.0005713198
	            -0.0012108511        0.0003406984        0.0094778318

	Previous optimization step data not found.  Starting new optimization.

	---Fragment 1 Intrafragment Coordinates---
	 - Coordinate -           - BOHR/RAD -       - ANG/DEG -
	 R(1,2)           =         2.634350	       1.394038
	 R(1,8)           =         2.635962	       1.394891
	 R(1,15)          =         2.054947	       1.087431
	 R(2,10)          =         2.635830	       1.394821
	 R(2,16)          =         2.054537	       1.087214
	 R(3,6)           =         2.618556	       1.385680
	 R(3,9)           =         2.627348	       1.390333
	 R(3,17)          =         2.051398	       1.085553
	 R(4,7)           =         2.617273	       1.385001
	 R(4,9)           =         2.627835	       1.390591
	 R(4,18)          =         2.050622	       1.085142
	 R(5,10)          =         2.636938	       1.395407
	 R(5,11)          =         2.635263	       1.394521
	 R(5,19)          =         2.053272	       1.086545
	 R(6,12)          =         2.554855	       1.351971
	 R(6,20)          =         2.050430	       1.085041
	 R(7,12)          =         2.554990	       1.352043
	 R(7,21)          =         2.050210	       1.084924
	 R(8,9)           =         2.735038	       1.447320
	 R(8,11)          =         2.635830	       1.394821
	 R(10,13)         =         2.573123	       1.361638
	 R(11,14)         =         2.534359	       1.341125
	 R(13,22)         =         1.833631	       0.970316
	 B(1,2,10)        =         2.094553	     120.009056
	 B(1,2,16)        =         2.088723	     119.675016
	 B(1,8,9)         =         2.091569	     119.838095
	 B(1,8,11)        =         2.093692	     119.959722
	 B(2,1,8)         =         2.094940	     120.031219
	 B(2,1,15)        =         2.079469	     119.144799
	 B(2,10,5)        =         2.094306	     119.994870
	 B(2,10,13)       =         2.094247	     119.991510
	 B(3,6,12)        =         2.164024	     123.989464
	 B(3,6,20)        =         2.108235	     120.792960
	 B(3,9,4)         =         2.090218	     119.760658
	 B(3,9,8)         =         2.096504	     120.120840
	 B(4,7,12)        =         2.164798	     124.033779
	 B(4,7,21)        =         2.108052	     120.782475
	 B(4,9,8)         =         2.096462	     120.118429
	 B(5,10,13)       =         2.094633	     120.013619
	 B(5,11,8)        =         2.095181	     120.045019
	 B(5,11,14)       =         2.081414	     119.256220
	 B(6,3,9)         =         2.057946	     117.911600
	 B(6,3,17)        =         2.097901	     120.200853
	 B(6,12,7)        =         2.031753	     116.410869
	 B(7,4,9)         =         2.057632	     117.893614
	 B(7,4,18)        =         2.099927	     120.316976
	 B(8,1,15)        =         2.108776	     120.823969
	 B(8,11,14)       =         2.106591	     120.698759
	 B(9,3,17)        =         2.127339	     121.887545
	 B(9,4,18)        =         2.125625	     121.789352
	 B(9,8,11)        =         2.097924	     120.202184
	 B(10,2,16)       =         2.099909	     120.315896
	 B(10,5,11)       =         2.093699	     119.960108
	 B(10,5,19)       =         2.100355	     120.341451
	 B(10,13,22)      =         1.924294	     110.253909
	 B(11,5,19)       =         2.089132	     119.698439
	 B(12,6,20)       =         2.010925	     115.217515
	 B(12,7,21)       =         2.010335	     115.183714
	 D(1,2,10,5)      =        -0.000325	      -0.018609
	 D(1,2,10,13)     =         3.141388	     179.988267
	 D(1,8,9,3)       =         1.309160	      75.009359
	 D(1,8,9,4)       =        -1.834165	    -105.089908
	 D(1,8,11,5)      =         0.000325	       0.018608
	 D(1,8,11,14)     =        -3.141528	    -179.996269
	 D(2,1,8,9)       =         3.141277	     179.981897
	 D(2,1,8,11)      =        -0.000348	      -0.019945
	 D(2,10,5,11)     =         0.000301	       0.017261
	 D(2,10,5,19)     =        -3.141029	    -179.967685
	 D(2,10,13,22)    =         3.141285	     179.982383
	 D(3,6,12,7)      =         0.000018	       0.001051
	 D(3,9,4,7)       =        -0.000773	      -0.044305
	 D(3,9,4,18)      =        -3.140840	    -179.956891
	 D(3,9,8,11)      =        -1.832400	    -104.988795
	 D(4,7,12,6)      =         0.000039	       0.002261
	 D(4,9,3,6)       =         0.000825	       0.047281
	 D(4,9,3,17)      =        -3.140998	    -179.965938
	 D(4,9,8,11)      =         1.307460	      74.911938
	 D(5,10,2,16)     =         3.140149	     179.917291
	 D(5,10,13,22)    =        -0.000187	      -0.010740
	 D(5,11,8,9)      =        -3.141300	    -179.983240
	 D(6,3,9,8)       =         3.140692	     179.948370
	 D(6,12,7,21)     =         3.140503	     179.937543
	 D(7,4,9,8)       =        -3.140640	    -179.945397
	 D(7,12,6,20)     =         3.140054	     179.911840
	 D(8,1,2,10)      =         0.000348	       0.019955
	 D(8,1,2,16)      =        -3.140133	    -179.916358
	 D(8,9,3,17)      =        -0.001132	      -0.064849
	 D(8,9,4,18)      =         0.002479	       0.142017
	 D(8,11,5,10)     =        -0.000301	      -0.017270
	 D(8,11,5,19)     =         3.141030	     179.967774
	 D(9,3,6,12)      =        -0.000452	      -0.025882
	 D(9,3,6,20)      =        -3.140405	    -179.931928
	 D(9,4,7,12)      =         0.000340	       0.019473
	 D(9,4,7,21)      =        -3.140063	    -179.912356
	 D(9,8,1,15)      =         0.000403	       0.023110
	 D(9,8,11,14)     =         0.000033	       0.001883
	 D(10,2,1,15)     =         3.141234	     179.979432
	 D(10,5,11,14)    =         3.141547	     179.997392
	 D(11,5,10,13)    =        -3.141411	    -179.989616
	 D(11,8,1,15)     =        -3.141221	    -179.978731
	 D(12,6,3,17)     =         3.141368	     179.987105
	 D(12,7,4,18)     =         3.140430	     179.933401
	 D(13,10,2,16)    =        -0.001324	      -0.075833
	 D(13,10,5,19)    =         0.000444	       0.025437
	 D(14,11,5,19)    =        -0.000307	      -0.017564
	 D(15,1,2,16)     =         0.000753	       0.043120
	 D(17,3,6,20)     =         0.001415	       0.081059
	 D(18,4,7,21)     =         0.000027	       0.001572
	 R(4,14)          =         6.101793	       3.228930

	Current energy   :      -652.8691651181

	Generating empirical Hessian (Schlegel '84) for each fragment.
	Adding user-defined constraint: Fragment 1; Coordinate 61:
		Value =     1.309160; Fixed value    =     1.308997
		Force =    -0.000082; Force constant =     0.500000
	Removing off-diagonal coupling between coordinate 61 and others.
	Taking RFO optimization step.
	Going to follow RFO solution 1.
	Using RFO vector 1.

	Determining step-restricting scale parameter for RS-RFO.
	Maximum step size allowed    0.10000

	 Iter      |step|        alpha        rfo_root  
	------------------------------------------------
	    0     0.16627       1.00000           1
	    1     0.13561       8.63428           1
	    2     0.11160      23.17066           1
	    3     0.10180      33.19780           1
	    4     0.10005      35.35919           1
	    5     0.10000      35.42864           1
	------------------------------------------------
	Norm of target step-size    0.10000
	Projected energy change by RFO approximation:        -0.0048681780

	Back-transformation to cartesian coordinates...
	The INTCO_EXCEPTion handler:
	TORS::compute_val: unable to compute torsion value
	Dynamic level is 0.
	exc.g_really_quit() is 0.

  **** Optimization has failed! (in 1 steps) ****
			--------------------------
			 OPTKING Finished Execution 
			--------------------------
	Cleaning optimization helper files.

*** Psi4 exiting successfully. Buy a developer a beer!
