
    -----------------------------------------------------------------------
          Psi4: An Open-Source Ab Initio Electronic Structure Package
                               Psi4 1.1 release

                         Git: Rev {HEAD} add49b9 


    R. M. Parrish, L. A. Burns, D. G. A. Smith, A. C. Simmonett,
    A. E. DePrince III, E. G. Hohenstein, U. Bozkaya, A. Yu. Sokolov,
    R. Di Remigio, R. M. Richard, J. F. Gonthier, A. M. James,
    H. R. McAlexander, A. Kumar, M. Saitow, X. Wang, B. P. Pritchard,
    P. Verma, H. F. Schaefer III, K. Patkowski, R. A. King, E. F. Valeev,
    F. A. Evangelista, J. M. Turney, T. D. Crawford, and C. D. Sherrill,
    J. Chem. Theory Comput. in press (2017).
    (doi: 10.1021/acs.jctc.7b00174)

    -----------------------------------------------------------------------


    Psi4 started on: Saturday, 11 November 2017 09:40PM

    Process ID:   3148
    PSIDATADIR: /cbio/jclab/home/chayas/anaconda/envs/py35/share/psi4
    Memory:     500.0 MiB
    Threads:    8
    
  ==> Input File <==

--------------------------------------------------------------------------

memory 5 Gb

molecule phepyrFOH_neutral {
  symmetry C1
  0 1 
  C      1.885   -1.036   -0.112
  C      0.807   -0.463   0.561
  C      4.907   -3.081   0.572
  C      4.245   -1.942   -1.440
  C      1.800   -1.079   2.676
  C      5.960   -3.625   -0.146
  C      5.328   -2.537   -2.068
  C      2.921   -1.631   0.608
  C      4.038   -2.225   -0.095
  C      0.764   -0.484   1.955
  C      2.878   -1.652   2.002
  N      6.193   -3.374   -1.454
  O      -0.289   0.076   2.612
  F      3.866   -2.220   2.709
  H      1.904   -1.012   -1.199
  H      0.002   -0.002   -0.006
  H      4.777   -3.326   1.621
  H      3.588   -1.278   -1.993
  H      1.772   -1.099   3.762
  H      6.665   -4.300   0.328
  H      5.534   -2.348   -3.117
  H      -0.175   -0.018   3.571
  units Angstrom
}

dih_string = "1 8 9 3 195"
set optking fixed_dihedral = $dih_string

optimize('MP2/aug-cc-PVTZ')
--------------------------------------------------------------------------

  Memory set to   4.657 GiB by Python driver.
gradient() will perform analytic gradient computation.

*** tstart() called on gpu-1-12.local
*** at Sat Nov 11 21:40:34 2017

    SCF Algorithm Type (re)set to DF.

*** tstart() called on gpu-1-12.local
*** at Sat Nov 11 21:40:34 2017

   => Loading Basis Set <=

    Name: AUG-CC-PVTZ
    Role: ORBITAL
    Keyword: BASIS
    atoms 1-11  entry C          line   221 file /cbio/jclab/home/chayas/anaconda/envs/py35/share/psi4/basis/aug-cc-pvtz.gbs 
    atoms 12    entry N          line   267 file /cbio/jclab/home/chayas/anaconda/envs/py35/share/psi4/basis/aug-cc-pvtz.gbs 
    atoms 13    entry O          line   313 file /cbio/jclab/home/chayas/anaconda/envs/py35/share/psi4/basis/aug-cc-pvtz.gbs 
    atoms 14    entry F          line   359 file /cbio/jclab/home/chayas/anaconda/envs/py35/share/psi4/basis/aug-cc-pvtz.gbs 
    atoms 15-22 entry H          line    34 file /cbio/jclab/home/chayas/anaconda/envs/py35/share/psi4/basis/aug-cc-pvtz.gbs 


         ---------------------------------------------------------
                                   SCF
            by Justin Turney, Rob Parrish, and Andy Simmonett
                              RHF Reference
                        8 Threads,   4768 MiB Core
         ---------------------------------------------------------

  ==> Geometry <==

    Molecular point group: c1
    Full point group: C1

    Geometry (in Angstrom), charge = 0, multiplicity = 1:

       Center              X                  Y                   Z               Mass       
    ------------   -----------------  -----------------  -----------------  -----------------
           C         -1.321394216685     0.755794888838    -0.799780766943    12.000000000000
           C         -2.399394216685     1.328794888838    -0.126780766943    12.000000000000
           C          1.700605783315    -1.289205111162    -0.115780766943    12.000000000000
           C          1.038605783315    -0.150205111162    -2.127780766943    12.000000000000
           C         -1.406394216685     0.712794888838     1.988219233057    12.000000000000
           C          2.753605783315    -1.833205111162    -0.833780766943    12.000000000000
           C          2.121605783315    -0.745205111162    -2.755780766943    12.000000000000
           C         -0.285394216685     0.160794888838    -0.079780766943    12.000000000000
           C          0.831605783315    -0.433205111162    -0.782780766943    12.000000000000
           C         -2.442394216685     1.307794888838     1.267219233057    12.000000000000
           C         -0.328394216685     0.139794888838     1.314219233057    12.000000000000
           N          2.986605783315    -1.582205111162    -2.141780766943    14.003074004780
           O         -3.495394216685     1.867794888838     1.924219233057    15.994914619560
           F          0.659605783315    -0.428205111162     2.021219233057    18.998403224000
           H         -1.302394216685     0.779794888838    -1.886780766943     1.007825032070
           H         -3.204394216685     1.789794888838    -0.693780766943     1.007825032070
           H          1.570605783315    -1.534205111162     0.933219233057     1.007825032070
           H          0.381605783315     0.513794888838    -2.680780766943     1.007825032070
           H         -1.434394216685     0.692794888838     3.074219233057     1.007825032070
           H          3.458605783315    -2.508205111162    -0.359780766943     1.007825032070
           H          2.327605783315    -0.556205111162    -3.804780766943     1.007825032070
           H         -3.381394216685     1.773794888838     2.883219233057     1.007825032070

  Running in c1 symmetry.

  Rotational constants: A =      0.06327  B =      0.01361  C =      0.01126 [cm^-1]
  Rotational constants: A =   1896.89940  B =    407.94811  C =    337.49295 [MHz]
  Nuclear repulsion =  817.639813399685067

  Charge       = 0
  Multiplicity = 1
  Electrons    = 98
  Nalpha       = 49
  Nbeta        = 49

  ==> Algorithm <==

  SCF Algorithm Type is DF.
  DIIS enabled.
  MOM disabled.
  Fractional occupation disabled.
  Guess Type is SAD.
  Energy threshold   = 1.00e-10
  Density threshold  = 1.00e-10
  Integral threshold = 0.00e+00

  ==> Primary Basis <==

  Basis Set: AUG-CC-PVTZ
    Blend: AUG-CC-PVTZ
    Number of shells: 268
    Number of basis function: 828
    Number of Cartesian functions: 970
    Spherical Harmonics?: true
    Max angular momentum: 3

   => Loading Basis Set <=

    Name: (AUG-CC-PVTZ AUX)
    Role: JKFIT
    Keyword: DF_BASIS_SCF
    atoms 1-11  entry C          line   161 file /cbio/jclab/home/chayas/anaconda/envs/py35/share/psi4/basis/aug-cc-pvtz-jkfit.gbs 
    atoms 12    entry N          line   223 file /cbio/jclab/home/chayas/anaconda/envs/py35/share/psi4/basis/aug-cc-pvtz-jkfit.gbs 
    atoms 13    entry O          line   285 file /cbio/jclab/home/chayas/anaconda/envs/py35/share/psi4/basis/aug-cc-pvtz-jkfit.gbs 
    atoms 14    entry F          line   347 file /cbio/jclab/home/chayas/anaconda/envs/py35/share/psi4/basis/aug-cc-pvtz-jkfit.gbs 
    atoms 15-22 entry H          line    69 file /cbio/jclab/home/chayas/anaconda/envs/py35/share/psi4/basis/aug-cc-pvtz-jkfit.gbs 

  ==> Pre-Iterations <==

   -------------------------------------------------------
    Irrep   Nso     Nmo     Nalpha   Nbeta   Ndocc  Nsocc
   -------------------------------------------------------
     A        828     828       0       0       0       0
   -------------------------------------------------------
    Total     828     828      49      49      49       0
   -------------------------------------------------------

  ==> Integral Setup <==

  ==> DFJK: Density-Fitted J/K Matrices <==

    J tasked:                  Yes
    K tasked:                  Yes
    wK tasked:                  No
    OpenMP threads:              8
    Integrals threads:           8
    Memory (MB):              3576
    Algorithm:                Disk
    Integral Cache:           NONE
    Schwarz Cutoff:          1E-12
    Fitting Condition:       1E-12

   => Auxiliary Basis Set <=

  Basis Set: (AUG-CC-PVTZ AUX)
    Blend: AUG-CC-PVTZ-JKFIT
    Number of shells: 532
    Number of basis function: 1824
    Number of Cartesian functions: 2274
    Spherical Harmonics?: true
    Max angular momentum: 4

  Minimum eigenvalue in the overlap matrix is 5.9057452772E-07.
  Using Symmetric Orthogonalization.

  SCF Guess: Superposition of Atomic Densities via on-the-fly atomic UHF.

  ==> Iterations <==

                           Total Energy        Delta E     RMS |[F,P]|

   @DF-RHF iter   0:  -656.25678691685664   -6.56257e+02   2.23994e-02 
   @DF-RHF iter   1:  -649.78739961606823    6.46939e+00   2.10665e-03 
   @DF-RHF iter   2:  -650.10383776411084   -3.16438e-01   8.72760e-04 DIIS
   @DF-RHF iter   3:  -650.14576890590956   -4.19311e-02   4.74079e-04 DIIS
   @DF-RHF iter   4:  -650.15908838716859   -1.33195e-02   8.14746e-05 DIIS
   @DF-RHF iter   5:  -650.16043412989632   -1.34574e-03   4.16516e-05 DIIS
   @DF-RHF iter   6:  -650.16066539119447   -2.31261e-04   1.79947e-05 DIIS
   @DF-RHF iter   7:  -650.16070011188458   -3.47207e-05   3.94475e-06 DIIS
   @DF-RHF iter   8:  -650.16070322159078   -3.10971e-06   1.90451e-06 DIIS
   @DF-RHF iter   9:  -650.16070366517579   -4.43585e-07   7.95228e-07 DIIS
   @DF-RHF iter  10:  -650.16070376608604   -1.00910e-07   3.22816e-07 DIIS
   @DF-RHF iter  11:  -650.16070379731354   -3.12275e-08   1.57943e-07 DIIS
   @DF-RHF iter  12:  -650.16070380351835   -6.20480e-09   5.25462e-08 DIIS
   @DF-RHF iter  13:  -650.16070380418660   -6.68251e-10   2.34522e-08 DIIS
   @DF-RHF iter  14:  -650.16070380424924   -6.26414e-11   6.80991e-09 DIIS
   @DF-RHF iter  15:  -650.16070380426754   -1.83036e-11   3.18729e-09 DIIS
   @DF-RHF iter  16:  -650.16070380426345    4.09273e-12   1.45300e-09 DIIS
   @DF-RHF iter  17:  -650.16070380428118   -1.77351e-11   7.63983e-10 DIIS
   @DF-RHF iter  18:  -650.16070380426481    1.63709e-11   3.85638e-10 DIIS
   @DF-RHF iter  19:  -650.16070380427652   -1.17097e-11   1.73387e-10 DIIS
   @DF-RHF iter  20:  -650.16070380427186    4.66116e-12   8.09260e-11 DIIS

  ==> Post-Iterations <==

    Orbital Energies (a.u.)
    -----------------------

    Doubly Occupied:                                                      

       1A    -26.335807     2A    -20.612628     3A    -15.559240  
       4A    -11.354369     5A    -11.332037     6A    -11.271690  
       7A    -11.268991     8A    -11.267688     9A    -11.263978  
      10A    -11.257989    11A    -11.255753    12A    -11.249408  
      13A    -11.236081    14A    -11.226365    15A     -1.659415  
      16A     -1.427118    17A     -1.245930    18A     -1.184906  
      19A     -1.110582    20A     -1.045967    21A     -1.030714  
      22A     -1.020283    23A     -0.897477    24A     -0.882121  
      25A     -0.852424    26A     -0.827084    27A     -0.775194  
      28A     -0.757494    29A     -0.726387    30A     -0.720813  
      31A     -0.709082    32A     -0.677593    33A     -0.653031  
      34A     -0.641237    35A     -0.628734    36A     -0.612491  
      37A     -0.610340    38A     -0.589810    39A     -0.577942  
      40A     -0.547292    41A     -0.542768    42A     -0.535122  
      43A     -0.507146    44A     -0.500584    45A     -0.413653  
      46A     -0.404667    47A     -0.363113    48A     -0.345340  
      49A     -0.310419  

    Virtual:                                                              

      50A      0.020779    51A      0.027901    52A      0.034953  
      53A      0.039904    54A      0.044456    55A      0.049228  
      56A      0.057290    57A      0.060520    58A      0.072011  
      59A      0.076603    60A      0.080800    61A      0.083458  
      62A      0.089650    63A      0.091463    64A      0.097876  
      65A      0.101399    66A      0.104251    67A      0.109416  
      68A      0.110950    69A      0.112005    70A      0.116637  
      71A      0.119272    72A      0.126802    73A      0.130675  
      74A      0.133686    75A      0.136786    76A      0.138616  
      77A      0.141300    78A      0.143756    79A      0.144578  
      80A      0.151394    81A      0.152260    82A      0.156843  
      83A      0.164770    84A      0.166281    85A      0.171667  
      86A      0.176946    87A      0.181335    88A      0.186235  
      89A      0.188629    90A      0.194624    91A      0.201982  
      92A      0.207422    93A      0.211829    94A      0.220280  
      95A      0.224375    96A      0.227993    97A      0.228903  
      98A      0.233618    99A      0.239398   100A      0.243988  
     101A      0.246929   102A      0.248048   103A      0.254690  
     104A      0.257759   105A      0.262311   106A      0.263706  
     107A      0.268728   108A      0.271214   109A      0.276094  
     110A      0.279219   111A      0.283636   112A      0.288495  
     113A      0.292938   114A      0.298262   115A      0.303271  
     116A      0.304472   117A      0.306838   118A      0.314237  
     119A      0.317804   120A      0.321506   121A      0.326224  
     122A      0.327727   123A      0.333890   124A      0.340652  
     125A      0.345070   126A      0.345774   127A      0.349679  
     128A      0.356103   129A      0.363439   130A      0.372303  
     131A      0.372571   132A      0.383362   133A      0.387194  
     134A      0.390682   135A      0.395255   136A      0.400842  
     137A      0.405480   138A      0.408876   139A      0.412961  
     140A      0.423362   141A      0.423851   142A      0.426367  
     143A      0.431141   144A      0.433453   145A      0.434220  
     146A      0.438212   147A      0.447170   148A      0.448509  
     149A      0.449027   150A      0.455604   151A      0.456929  
     152A      0.465666   153A      0.467552   154A      0.470280  
     155A      0.473620   156A      0.478454   157A      0.480853  
     158A      0.487388   159A      0.490391   160A      0.491921  
     161A      0.499158   162A      0.500492   163A      0.503063  
     164A      0.506377   165A      0.509584   166A      0.510493  
     167A      0.513683   168A      0.515006   169A      0.522473  
     170A      0.525174   171A      0.528958   172A      0.536325  
     173A      0.538010   174A      0.543870   175A      0.548297  
     176A      0.551610   177A      0.558379   178A      0.560902  
     179A      0.569419   180A      0.570228   181A      0.575416  
     182A      0.576883   183A      0.591880   184A      0.594545  
     185A      0.595596   186A      0.599836   187A      0.604824  
     188A      0.618357   189A      0.623130   190A      0.625575  
     191A      0.636042   192A      0.638500   193A      0.646915  
     194A      0.652716   195A      0.659700   196A      0.662267  
     197A      0.676181   198A      0.683717   199A      0.688863  
     200A      0.692163   201A      0.695260   202A      0.699399  
     203A      0.703432   204A      0.709304   205A      0.715062  
     206A      0.723265   207A      0.726096   208A      0.729866  
     209A      0.742198   210A      0.745951   211A      0.749818  
     212A      0.751899   213A      0.759245   214A      0.768815  
     215A      0.771342   216A      0.780453   217A      0.784483  
     218A      0.789466   219A      0.792473   220A      0.804663  
     221A      0.808974   222A      0.811722   223A      0.816753  
     224A      0.822565   225A      0.827147   226A      0.830557  
     227A      0.843544   228A      0.843995   229A      0.855848  
     230A      0.859938   231A      0.862839   232A      0.864906  
     233A      0.867701   234A      0.876270   235A      0.885427  
     236A      0.890031   237A      0.894177   238A      0.895715  
     239A      0.900272   240A      0.902176   241A      0.907563  
     242A      0.915966   243A      0.921118   244A      0.923258  
     245A      0.931545   246A      0.935288   247A      0.938800  
     248A      0.944160   249A      0.949935   250A      0.951902  
     251A      0.959019   252A      0.962491   253A      0.969252  
     254A      0.970258   255A      0.972653   256A      0.977301  
     257A      0.978833   258A      0.981796   259A      0.990378  
     260A      0.993261   261A      0.995696   262A      1.005844  
     263A      1.008474   264A      1.013846   265A      1.016491  
     266A      1.025549   267A      1.029550   268A      1.033232  
     269A      1.034684   270A      1.039747   271A      1.044716  
     272A      1.045857   273A      1.053026   274A      1.055464  
     275A      1.061966   276A      1.067010   277A      1.070929  
     278A      1.076937   279A      1.079577   280A      1.089348  
     281A      1.091718   282A      1.095689   283A      1.099489  
     284A      1.102393   285A      1.114024   286A      1.117883  
     287A      1.120194   288A      1.125919   289A      1.131847  
     290A      1.135679   291A      1.139757   292A      1.144109  
     293A      1.147577   294A      1.151050   295A      1.166434  
     296A      1.169136   297A      1.173951   298A      1.181342  
     299A      1.182746   300A      1.183364   301A      1.187734  
     302A      1.194460   303A      1.198536   304A      1.204776  
     305A      1.207253   306A      1.211371   307A      1.214333  
     308A      1.223674   309A      1.230676   310A      1.231971  
     311A      1.239843   312A      1.251494   313A      1.258575  
     314A      1.265551   315A      1.268451   316A      1.272553  
     317A      1.277540   318A      1.279489   319A      1.294072  
     320A      1.300550   321A      1.303284   322A      1.308521  
     323A      1.316645   324A      1.319061   325A      1.322140  
     326A      1.330439   327A      1.334981   328A      1.337203  
     329A      1.355155   330A      1.365658   331A      1.368772  
     332A      1.378049   333A      1.382492   334A      1.388927  
     335A      1.392995   336A      1.399817   337A      1.405995  
     338A      1.421790   339A      1.423092   340A      1.436463  
     341A      1.441823   342A      1.453302   343A      1.454655  
     344A      1.467099   345A      1.472746   346A      1.479938  
     347A      1.486907   348A      1.496908   349A      1.507864  
     350A      1.514183   351A      1.527698   352A      1.531721  
     353A      1.537785   354A      1.559004   355A      1.562622  
     356A      1.568719   357A      1.577978   358A      1.585521  
     359A      1.587321   360A      1.601915   361A      1.608590  
     362A      1.612209   363A      1.620455   364A      1.626973  
     365A      1.633078   366A      1.643897   367A      1.650648  
     368A      1.663539   369A      1.669478   370A      1.673042  
     371A      1.674946   372A      1.689594   373A      1.697315  
     374A      1.704474   375A      1.709943   376A      1.722537  
     377A      1.726884   378A      1.734628   379A      1.736681  
     380A      1.739975   381A      1.748013   382A      1.758525  
     383A      1.768123   384A      1.777686   385A      1.786109  
     386A      1.799529   387A      1.802490   388A      1.805345  
     389A      1.812070   390A      1.817051   391A      1.826879  
     392A      1.834151   393A      1.838369   394A      1.850385  
     395A      1.855486   396A      1.862073   397A      1.868336  
     398A      1.880325   399A      1.889219   400A      1.898314  
     401A      1.910310   402A      1.917628   403A      1.928393  
     404A      1.930246   405A      1.939182   406A      1.950042  
     407A      1.956737   408A      1.966405   409A      1.973494  
     410A      1.975548   411A      1.986318   412A      1.989331  
     413A      2.000427   414A      2.006267   415A      2.011863  
     416A      2.020687   417A      2.028749   418A      2.032794  
     419A      2.038075   420A      2.043868   421A      2.051189  
     422A      2.051768   423A      2.063369   424A      2.070573  
     425A      2.075932   426A      2.090310   427A      2.104947  
     428A      2.112409   429A      2.115371   430A      2.121864  
     431A      2.132608   432A      2.132968   433A      2.147384  
     434A      2.153737   435A      2.164034   436A      2.169501  
     437A      2.182882   438A      2.186844   439A      2.193903  
     440A      2.196568   441A      2.203982   442A      2.212977  
     443A      2.223265   444A      2.225324   445A      2.233732  
     446A      2.244068   447A      2.245478   448A      2.258096  
     449A      2.284475   450A      2.291212   451A      2.296473  
     452A      2.301265   453A      2.309160   454A      2.318505  
     455A      2.332155   456A      2.340941   457A      2.345728  
     458A      2.358468   459A      2.362374   460A      2.380072  
     461A      2.403271   462A      2.404946   463A      2.418221  
     464A      2.422385   465A      2.439162   466A      2.448523  
     467A      2.455972   468A      2.465074   469A      2.473383  
     470A      2.485492   471A      2.499138   472A      2.514157  
     473A      2.516263   474A      2.533720   475A      2.546138  
     476A      2.551023   477A      2.561047   478A      2.575070  
     479A      2.585463   480A      2.596453   481A      2.613838  
     482A      2.614905   483A      2.646058   484A      2.648890  
     485A      2.656125   486A      2.692804   487A      2.705805  
     488A      2.718538   489A      2.741911   490A      2.749058  
     491A      2.769413   492A      2.782246   493A      2.788124  
     494A      2.812677   495A      2.836262   496A      2.837882  
     497A      2.850763   498A      2.856921   499A      2.871984  
     500A      2.886870   501A      2.894771   502A      2.923941  
     503A      2.948645   504A      2.973901   505A      3.005238  
     506A      3.017780   507A      3.033787   508A      3.039538  
     509A      3.061594   510A      3.083919   511A      3.096467  
     512A      3.107731   513A      3.112990   514A      3.128516  
     515A      3.157032   516A      3.165183   517A      3.182773  
     518A      3.192050   519A      3.202344   520A      3.215623  
     521A      3.225052   522A      3.236722   523A      3.251884  
     524A      3.266534   525A      3.271884   526A      3.301405  
     527A      3.303410   528A      3.322468   529A      3.334169  
     530A      3.343754   531A      3.345925   532A      3.360358  
     533A      3.364539   534A      3.373223   535A      3.379050  
     536A      3.392897   537A      3.406335   538A      3.412246  
     539A      3.428628   540A      3.442364   541A      3.444206  
     542A      3.456683   543A      3.464848   544A      3.468955  
     545A      3.474422   546A      3.492032   547A      3.497162  
     548A      3.504745   549A      3.508588   550A      3.523231  
     551A      3.529970   552A      3.539072   553A      3.546841  
     554A      3.552238   555A      3.559495   556A      3.572331  
     557A      3.576151   558A      3.594925   559A      3.598617  
     560A      3.607107   561A      3.618359   562A      3.622987  
     563A      3.630758   564A      3.640120   565A      3.646752  
     566A      3.665403   567A      3.670726   568A      3.683089  
     569A      3.693358   570A      3.700616   571A      3.703315  
     572A      3.710348   573A      3.727890   574A      3.743742  
     575A      3.750915   576A      3.753938   577A      3.762207  
     578A      3.767570   579A      3.780777   580A      3.786565  
     581A      3.802095   582A      3.806782   583A      3.809986  
     584A      3.825952   585A      3.841166   586A      3.844796  
     587A      3.857118   588A      3.860128   589A      3.861868  
     590A      3.871628   591A      3.882404   592A      3.894790  
     593A      3.899911   594A      3.913974   595A      3.919086  
     596A      3.922977   597A      3.935541   598A      3.940874  
     599A      3.951733   600A      3.955085   601A      3.966186  
     602A      3.975161   603A      3.976763   604A      3.983557  
     605A      3.992476   606A      4.006084   607A      4.011117  
     608A      4.023287   609A      4.028755   610A      4.036985  
     611A      4.052925   612A      4.056389   613A      4.070057  
     614A      4.073821   615A      4.094204   616A      4.101247  
     617A      4.106119   618A      4.118081   619A      4.134871  
     620A      4.140061   621A      4.153320   622A      4.164934  
     623A      4.174250   624A      4.180543   625A      4.187958  
     626A      4.191637   627A      4.208580   628A      4.211843  
     629A      4.213547   630A      4.227179   631A      4.241075  
     632A      4.246797   633A      4.252747   634A      4.260805  
     635A      4.277792   636A      4.286103   637A      4.297591  
     638A      4.306468   639A      4.309764   640A      4.317661  
     641A      4.329948   642A      4.334386   643A      4.337065  
     644A      4.345869   645A      4.357918   646A      4.371503  
     647A      4.373414   648A      4.380821   649A      4.400109  
     650A      4.406420   651A      4.412407   652A      4.426682  
     653A      4.435470   654A      4.452155   655A      4.456858  
     656A      4.465892   657A      4.469571   658A      4.477728  
     659A      4.499045   660A      4.505534   661A      4.513457  
     662A      4.516355   663A      4.524791   664A      4.543056  
     665A      4.550011   666A      4.553803   667A      4.574818  
     668A      4.590290   669A      4.593185   670A      4.609634  
     671A      4.619955   672A      4.629403   673A      4.639406  
     674A      4.644067   675A      4.666667   676A      4.675164  
     677A      4.683279   678A      4.706753   679A      4.720788  
     680A      4.738755   681A      4.744012   682A      4.766190  
     683A      4.779131   684A      4.786586   685A      4.793330  
     686A      4.810450   687A      4.827180   688A      4.831985  
     689A      4.870342   690A      4.880683   691A      4.886425  
     692A      4.897566   693A      4.914519   694A      4.921832  
     695A      4.949440   696A      4.958647   697A      4.965527  
     698A      4.989706   699A      4.993184   700A      5.001185  
     701A      5.020094   702A      5.034027   703A      5.036863  
     704A      5.055582   705A      5.062116   706A      5.079434  
     707A      5.095228   708A      5.108805   709A      5.116068  
     710A      5.119454   711A      5.125437   712A      5.131074  
     713A      5.149104   714A      5.164549   715A      5.171786  
     716A      5.177473   717A      5.197270   718A      5.199842  
     719A      5.219227   720A      5.233857   721A      5.258513  
     722A      5.273349   723A      5.282157   724A      5.308460  
     725A      5.330795   726A      5.340619   727A      5.345517  
     728A      5.356975   729A      5.373031   730A      5.410696  
     731A      5.426780   732A      5.436206   733A      5.461466  
     734A      5.466145   735A      5.483296   736A      5.512098  
     737A      5.543282   738A      5.550945   739A      5.564820  
     740A      5.573817   741A      5.592250   742A      5.611356  
     743A      5.625344   744A      5.673029   745A      5.698907  
     746A      5.726235   747A      5.753990   748A      5.777528  
     749A      5.796649   750A      5.804503   751A      5.807564  
     752A      5.838735   753A      5.850050   754A      5.866055  
     755A      5.887740   756A      5.912981   757A      5.937543  
     758A      5.991617   759A      6.011300   760A      6.088218  
     761A      6.096843   762A      6.168259   763A      6.176465  
     764A      6.216037   765A      6.253140   766A      6.283595  
     767A      6.314590   768A      6.359642   769A      6.382350  
     770A      6.419699   771A      6.459408   772A      6.486471  
     773A      6.511548   774A      6.584596   775A      6.591696  
     776A      6.648001   777A      6.698823   778A      6.721083  
     779A      6.736451   780A      6.744998   781A      6.763201  
     782A      6.880488   783A      6.882042   784A      6.887414  
     785A      6.931957   786A      6.969513   787A      6.989818  
     788A      7.044871   789A      7.085677   790A      7.101780  
     791A      7.202055   792A      7.248122   793A      7.399433  
     794A      7.413263   795A      7.446398   796A      7.500303  
     797A      7.670710   798A      7.688714   799A      7.743925  
     800A      7.999236   801A      8.375633   802A      8.628065  
     803A      9.138770   804A      9.204551   805A      9.295393  
     806A      9.348103   807A      9.430951   808A      9.542130  
     809A      9.560586   810A      9.618704   811A      9.708234  
     812A      9.736892   813A     10.083903   814A     10.105782  
     815A     15.589719   816A     16.249883   817A     16.590153  
     818A     16.883704   819A     16.941508   820A     17.281720  
     821A     18.568469   822A     18.927600   823A     19.658334  
     824A     19.925865   825A     20.428312   826A     20.521700  
     827A     20.912559   828A     21.412126  

    Final Occupation by Irrep:
              A 
    DOCC [    49 ]

  Energy converged.

  @DF-RHF Final Energy:  -650.16070380427186

   => Energetics <=

    Nuclear Repulsion Energy =            817.6398133996850675
    One-Electron Energy =               -2509.9484484709455501
    Two-Electron Energy =                1042.1479312669887349
    DFT Exchange-Correlation Energy =       0.0000000000000000
    Empirical Dispersion Energy =           0.0000000000000000
    PCM Polarization Energy =               0.0000000000000000
    EFP Energy =                            0.0000000000000000
    Total Energy =                       -650.1607038042718614



Properties will be evaluated at   0.000000,   0.000000,   0.000000 Bohr

Properties computed using the SCF density matrix

  Nuclear Dipole Moment: (a.u.)
     X:    -2.1328      Y:     1.3094      Z:    -4.2680

  Electronic Dipole Moment: (a.u.)
     X:     0.9893      Y:    -0.7116      Z:     5.0767

  Dipole Moment: (a.u.)
     X:    -1.1435      Y:     0.5978      Z:     0.8088     Total:     1.5228

  Dipole Moment: (Debye)
     X:    -2.9065      Y:     1.5196      Z:     2.0556     Total:     3.8707


*** tstop() called on gpu-1-12.local at Sat Nov 11 21:49:50 2017
Module time:
	user time   =    1232.39 seconds =      20.54 minutes
	system time =      59.16 seconds =       0.99 minutes
	total time  =        556 seconds =       9.27 minutes
Total time:
	user time   =    1232.40 seconds =      20.54 minutes
	system time =      59.16 seconds =       0.99 minutes
	total time  =        556 seconds =       9.27 minutes

  //>>>>>>>>>>>>>>>>>>>>>>>>>>>>>>>>>>>//
  //               DFMP2               //
  //<<<<<<<<<<<<<<<<<<<<<<<<<<<<<<<<<<<//

   => Loading Basis Set <=

    Name: (AUG-CC-PVTZ AUX)
    Role: RIFIT
    Keyword: DF_BASIS_MP2
    atoms 1-11  entry C          line   147 file /cbio/jclab/home/chayas/anaconda/envs/py35/share/psi4/basis/aug-cc-pvtz-ri.gbs 
    atoms 12    entry N          line   205 file /cbio/jclab/home/chayas/anaconda/envs/py35/share/psi4/basis/aug-cc-pvtz-ri.gbs 
    atoms 13    entry O          line   263 file /cbio/jclab/home/chayas/anaconda/envs/py35/share/psi4/basis/aug-cc-pvtz-ri.gbs 
    atoms 14    entry F          line   321 file /cbio/jclab/home/chayas/anaconda/envs/py35/share/psi4/basis/aug-cc-pvtz-ri.gbs 
    atoms 15-22 entry H          line    29 file /cbio/jclab/home/chayas/anaconda/envs/py35/share/psi4/basis/aug-cc-pvtz-ri.gbs 

	 --------------------------------------------------------
	                          DF-MP2                         
	      2nd-Order Density-Fitted Moller-Plesset Theory     
	              RMP2 Wavefunction,   8 Threads             
	                                                         
	        Rob Parrish, Justin Turney, Andy Simmonett,      
	           Ed Hohenstein, and C. David Sherrill          
	 --------------------------------------------------------

   => Auxiliary Basis Set <=

  Basis Set: (AUG-CC-PVTZ AUX)
    Blend: AUG-CC-PVTZ-RI
    Number of shells: 504
    Number of basis function: 1852
    Number of Cartesian functions: 2344
    Spherical Harmonics?: true
    Max angular momentum: 4

	 --------------------------------------------------------
	                 NBF =   828, NAUX =  1852
	 --------------------------------------------------------
	   CLASS    FOCC     OCC    AOCC    AVIR     VIR    FVIR
	   PAIRS       0      49      49     779     779       0
	 --------------------------------------------------------


         ------------------------------------------------------------
                                     CPHF                           
                                  Rob Parrish                       
         ------------------------------------------------------------

  ==> Geometry <==

    Molecular point group: c1
    Full point group: C1

    Geometry (in Angstrom), charge = 0, multiplicity = 1:

       Center              X                  Y                   Z               Mass       
    ------------   -----------------  -----------------  -----------------  -----------------
           C         -1.321394216685     0.755794888838    -0.799780766943    12.000000000000
           C         -2.399394216685     1.328794888838    -0.126780766943    12.000000000000
           C          1.700605783315    -1.289205111162    -0.115780766943    12.000000000000
           C          1.038605783315    -0.150205111162    -2.127780766943    12.000000000000
           C         -1.406394216685     0.712794888838     1.988219233057    12.000000000000
           C          2.753605783315    -1.833205111162    -0.833780766943    12.000000000000
           C          2.121605783315    -0.745205111162    -2.755780766943    12.000000000000
           C         -0.285394216685     0.160794888838    -0.079780766943    12.000000000000
           C          0.831605783315    -0.433205111162    -0.782780766943    12.000000000000
           C         -2.442394216685     1.307794888838     1.267219233057    12.000000000000
           C         -0.328394216685     0.139794888838     1.314219233057    12.000000000000
           N          2.986605783315    -1.582205111162    -2.141780766943    14.003074004780
           O         -3.495394216685     1.867794888838     1.924219233057    15.994914619560
           F          0.659605783315    -0.428205111162     2.021219233057    18.998403224000
           H         -1.302394216685     0.779794888838    -1.886780766943     1.007825032070
           H         -3.204394216685     1.789794888838    -0.693780766943     1.007825032070
           H          1.570605783315    -1.534205111162     0.933219233057     1.007825032070
           H          0.381605783315     0.513794888838    -2.680780766943     1.007825032070
           H         -1.434394216685     0.692794888838     3.074219233057     1.007825032070
           H          3.458605783315    -2.508205111162    -0.359780766943     1.007825032070
           H          2.327605783315    -0.556205111162    -3.804780766943     1.007825032070
           H         -3.381394216685     1.773794888838     2.883219233057     1.007825032070

  Nuclear repulsion =  817.639813399685067
  Reference energy  = -650.160703804271861

  ==> Basis Set <==

  Basis Set: AUG-CC-PVTZ
    Blend: AUG-CC-PVTZ
    Number of shells: 268
    Number of basis function: 828
    Number of Cartesian functions: 970
    Spherical Harmonics?: true
    Max angular momentum: 3

  ==> CGRSolver (by Rob Parrish) <==

   Number of roots    =         1
   Preconditioning    =    JACOBI
   Convergence cutoff =     1E-06
   Maximum iterations =       100

  ==> CPHFRHamiltonian (by Rob Parrish) <== 

  ==> DFJK: Density-Fitted J/K Matrices <==

    J tasked:                  Yes
    K tasked:                  Yes
    wK tasked:                  No
    OpenMP threads:              8
    Integrals threads:           8
    Memory (MB):              3576
    Algorithm:                Disk
    Integral Cache:           NONE
    Schwarz Cutoff:          1E-12
    Fitting Condition:       1E-12

   => Auxiliary Basis Set <=

  Basis Set: (AUG-CC-PVTZ AUX)
    Blend: AUG-CC-PVTZ-JKFIT
    Number of shells: 532
    Number of basis function: 1824
    Number of Cartesian functions: 2274
    Spherical Harmonics?: true
    Max angular momentum: 4

  ==> CPHF Iterations <==

  => Iterations <=

             Iter  Converged  Remaining    Residual
  CGR           1          0          1   1.053E-01
  CGR           2          0          1   3.691E-02
  CGR           3          0          1   2.558E-02
  CGR           4          0          1   1.080E-02
  CGR           5          0          1   4.586E-03
  CGR           6          0          1   1.743E-03
  CGR           7          0          1   5.012E-04
  CGR           8          0          1   1.660E-04
  CGR           9          0          1   5.676E-05
  CGR          10          0          1   1.974E-05
  CGR          11          0          1   1.027E-05
  CGR          12          0          1   4.300E-06
  CGR          13          0          1   1.877E-06
  CGR          14          1          0   6.044E-07

    CGRSolver converged.

  ==> DFCorrGrad: Density-Fitted Correlated Gradients <==

    OpenMP threads:              8
    Integrals threads:           8
    Memory (MB):              3576
    Schwarz Cutoff:          0E+00
    Fitting Condition:       1E-12

   => Auxiliary Basis Set <=

  Basis Set: (AUG-CC-PVTZ AUX)
    Blend: AUG-CC-PVTZ-JKFIT
    Number of shells: 532
    Number of basis function: 1824
    Number of Cartesian functions: 2274
    Spherical Harmonics?: true
    Max angular momentum: 4

	-----------------------------------------------------------
	 ==================> DF-MP2 Energies <==================== 
	-----------------------------------------------------------
	 Reference Energy          =    -650.1607038042718614 [Eh]
	 Singles Energy            =      -0.0000000000000013 [Eh]
	 Same-Spin Energy          =      -0.6795547864799990 [Eh]
	 Opposite-Spin Energy      =      -2.0220025999727702 [Eh]
	 Correlation Energy        =      -2.7015573864527704 [Eh]
	 Total Energy              =    -652.8622611907246664 [Eh]
	-----------------------------------------------------------
	 ================> DF-SCS-MP2 Energies <================== 
	-----------------------------------------------------------
	 SCS Same-Spin Scale       =       0.3333333333333333 [-]
	 SCS Opposite-Spin Scale   =       1.2000000000000000 [-]
	 SCS Same-Spin Energy      =      -0.2265182621599997 [Eh]
	 SCS Opposite-Spin Energy  =      -2.4264031199673242 [Eh]
	 SCS Correlation Energy    =      -2.6529213821273250 [Eh]
	 SCS Total Energy          =    -652.8136251863992356 [Eh]
	-----------------------------------------------------------


  -Total Gradient:
     Atom            X                  Y                   Z
    ------   -----------------  -----------------  -----------------
       1        0.012867742226    -0.007501686497    -0.017326999833
       2        0.002159107250    -0.001415146025     0.005480702196
       3       -0.013054847906     0.010271409673     0.007587025102
       4       -0.009599158478     0.006481706800     0.003487726006
       5       -0.008862674920     0.004564592066     0.000908982990
       6       -0.004279549935    -0.000604805089     0.014836871999
       7       -0.008142610007     0.006875397065    -0.001148919704
       8       -0.007849920337     0.004521336466     0.002059270692
       9        0.004360001806    -0.002941046891    -0.004242476451
      10       -0.008470963348     0.004511455455    -0.006115898753
      11        0.028827454109    -0.014098204770     0.005916280984
      12        0.010667044604    -0.006038994979    -0.008437284681
      13        0.002540946150    -0.001270369948     0.000747168386
      14        0.010541834896    -0.011845079084    -0.015252357812
      15        0.001164453412     0.001419853831    -0.009142689927
      16       -0.003063842937     0.001990459557    -0.005424566954
      17       -0.004942656461     0.002735514348     0.017255086653
      18       -0.006276337889     0.003406109746    -0.002542724562
      19       -0.001002983321     0.000356109262     0.004291893234
      20        0.002270520573    -0.001754156401     0.000638250954
      21        0.001276045540     0.000028878099    -0.002900286336
      22       -0.001129605030     0.000306667323     0.009324945820


*** tstop() called on gpu-1-12.local at Sat Nov 11 22:28:09 2017
Module time:
	user time   =    5976.11 seconds =      99.60 minutes
	system time =     131.67 seconds =       2.19 minutes
	total time  =       2855 seconds =      47.58 minutes
Total time:
	user time   =    5976.12 seconds =      99.60 minutes
	system time =     131.67 seconds =       2.19 minutes
	total time  =       2855 seconds =      47.58 minutes

			-----------------------------------------
			 OPTKING 2.0: for geometry optimizations 
			  - R.A. King,  Bethel University        
			-----------------------------------------

	Internal coordinates to be generated automatically.
	Detected frag 1 with atoms:  1 2 3 4 5 6 7 8 9 10 11 12 13 14 15 16 17 18 19 20
	 21 22
	---Fragment 1 Bond Connectivity---
	 1 : 2 8 15
	 2 : 1 10 16
	 3 : 6 9 17
	 4 : 7 9 18
	 5 : 10 11 19
	 6 : 3 12 20
	 7 : 4 12 21
	 8 : 1 9 11
	 9 : 3 4 8
	 10 : 2 5 13
	 11 : 5 8 14
	 12 : 6 7
	 13 : 10 22
	 14 : 11
	 15 : 1
	 16 : 2
	 17 : 3
	 18 : 4
	 19 : 5
	 20 : 6
	 21 : 7
	 22 : 13

	Assuming in current code that numbering for constraints corresponds to unified fragment.
	Fixed dihedral atom list: 
	     1     8     9     3
	---Fragment 1 Geometry and Gradient---
	 C          -2.4970731831        1.4282453525       -1.5113666159
	 C          -4.5341979544        2.5110584267       -0.2395809284
	 C           3.2136791905       -2.4362445892       -0.2187939410
	 C           1.9626804905       -0.2838465239       -4.0209229203
	 C          -2.6576999044        1.3469871288        3.7571898426
	 C           5.2035608084       -3.4642556055       -1.5756173044
	 C           4.0092538924       -1.4082335729       -5.2076709318
	 C          -0.5393169094        0.3038583035       -0.1507638002
	 C           1.5715071810       -0.8186390195       -1.4792412716
	 C          -4.6154561781        2.4713741779        2.3946973008
	 C          -0.6205751332        0.2641740547        2.4835144290
	 N           5.6438669974       -2.9899343461       -4.0473790862
	 O          -6.6053377960        3.5296208123        3.6362473701
	 F           1.2464742861       -0.8091903888        3.8195508050
	 H          -2.4611683866        1.4735987797       -3.5654989223
	 H          -6.0554274913        3.3822221739       -1.3110556458
	 H           2.9680147932       -2.8992274918        1.7635287724
	 H           0.7211304212        0.9709316284       -5.0659414718
	 H          -2.7106122361        1.3091926062        5.8094324229
	 H           6.5358177321       -4.7398207452       -0.6798871174
	 H           4.3985374758       -1.0510753338       -7.1899936452
	 H          -6.3899090169        3.3519865558        5.4484947315
	             0.0128677422       -0.0075016865       -0.0173269998
	             0.0021591073       -0.0014151460        0.0054807022
	            -0.0130548479        0.0102714097        0.0075870251
	            -0.0095991585        0.0064817068        0.0034877260
	            -0.0088626749        0.0045645921        0.0009089830
	            -0.0042795499       -0.0006048051        0.0148368720
	            -0.0081426100        0.0068753971       -0.0011489197
	            -0.0078499203        0.0045213365        0.0020592707
	             0.0043600018       -0.0029410469       -0.0042424765
	            -0.0084709633        0.0045114555       -0.0061158988
	             0.0288274541       -0.0140982048        0.0059162810
	             0.0106670446       -0.0060389950       -0.0084372847
	             0.0025409461       -0.0012703699        0.0007471684
	             0.0105418349       -0.0118450791       -0.0152523578
	             0.0011644534        0.0014198538       -0.0091426899
	            -0.0030638429        0.0019904596       -0.0054245670
	            -0.0049426565        0.0027355143        0.0172550867
	            -0.0062763379        0.0034061097       -0.0025427246
	            -0.0010029833        0.0003561093        0.0042918932
	             0.0022705206       -0.0017541564        0.0006382510
	             0.0012760455        0.0000288781       -0.0029002863
	            -0.0011296050        0.0003066673        0.0093249458

	Previous optimization step data not found.  Starting new optimization.

	---Fragment 1 Intrafragment Coordinates---
	 - Coordinate -           - BOHR/RAD -       - ANG/DEG -
	 R(1,2)           =         2.634350	       1.394038
	 R(1,8)           =         2.635962	       1.394891
	 R(1,15)          =         2.054947	       1.087431
	 R(2,10)          =         2.635830	       1.394821
	 R(2,16)          =         2.054537	       1.087214
	 R(3,6)           =         2.618665	       1.385738
	 R(3,9)           =         2.627186	       1.390247
	 R(3,17)          =         2.050441	       1.085047
	 R(4,7)           =         2.619366	       1.386109
	 R(4,9)           =         2.626626	       1.389951
	 R(4,18)          =         2.051336	       1.085520
	 R(5,10)          =         2.636938	       1.395407
	 R(5,11)          =         2.635263	       1.394521
	 R(5,19)          =         2.053272	       1.086545
	 R(6,12)          =         2.555084	       1.352092
	 R(6,20)          =         2.050441	       1.085047
	 R(7,12)          =         2.553432	       1.351218
	 R(7,21)          =         2.051513	       1.085614
	 R(8,9)           =         2.735038	       1.447320
	 R(8,11)          =         2.635830	       1.394821
	 R(10,13)         =         2.573123	       1.361638
	 R(11,14)         =         2.534359	       1.341125
	 R(13,22)         =         1.833631	       0.970316
	 B(1,2,10)        =         2.094553	     120.009056
	 B(1,2,16)        =         2.088723	     119.675016
	 B(1,8,9)         =         2.091569	     119.838095
	 B(1,8,11)        =         2.093692	     119.959722
	 B(2,1,8)         =         2.094940	     120.031219
	 B(2,1,15)        =         2.079469	     119.144799
	 B(2,10,5)        =         2.094306	     119.994870
	 B(2,10,13)       =         2.094247	     119.991510
	 B(3,6,12)        =         2.164350	     124.008105
	 B(3,6,20)        =         2.107839	     120.770304
	 B(3,9,4)         =         2.090392	     119.770626
	 B(3,9,8)         =         2.096790	     120.137217
	 B(4,7,12)        =         2.165423	     124.069617
	 B(4,7,21)        =         2.107510	     120.751404
	 B(4,9,8)         =         2.096003	     120.092145
	 B(5,10,13)       =         2.094633	     120.013619
	 B(5,11,8)        =         2.095181	     120.045019
	 B(5,11,14)       =         2.081414	     119.256220
	 B(6,3,9)         =         2.057943	     117.911446
	 B(6,3,17)        =         2.098237	     120.220120
	 B(6,12,7)        =         2.031147	     116.376129
	 B(7,4,9)         =         2.057116	     117.864054
	 B(7,4,18)        =         2.099777	     120.308377
	 B(8,1,15)        =         2.108776	     120.823969
	 B(8,11,14)       =         2.106591	     120.698759
	 B(9,3,17)        =         2.127004	     121.868378
	 B(9,4,18)        =         2.126292	     121.827564
	 B(9,8,11)        =         2.097924	     120.202184
	 B(10,2,16)       =         2.099909	     120.315896
	 B(10,5,11)       =         2.093699	     119.960108
	 B(10,5,19)       =         2.100355	     120.341451
	 B(10,13,22)      =         1.924294	     110.253909
	 B(11,5,19)       =         2.089132	     119.698439
	 B(12,6,20)       =         2.010995	     115.221511
	 B(12,7,21)       =         2.010252	     115.178971
	 D(1,2,10,5)      =        -0.000325	      -0.018609
	 D(1,2,10,13)     =         3.141388	     179.988267
	 D(1,8,9,3)       =        -2.880320	    -165.030184
	 D(1,8,9,4)       =         0.260583	      14.930320
	 D(1,8,11,5)      =         0.000325	       0.018608
	 D(1,8,11,14)     =        -3.141528	    -179.996269
	 D(2,1,8,9)       =         3.141277	     179.981897
	 D(2,1,8,11)      =        -0.000348	      -0.019945
	 D(2,10,5,11)     =         0.000301	       0.017261
	 D(2,10,5,19)     =        -3.141029	    -179.967685
	 D(2,10,13,22)    =         3.141285	     179.982383
	 D(3,6,12,7)      =         0.000695	       0.039807
	 D(3,9,4,7)       =         0.000417	       0.023899
	 D(3,9,4,18)      =        -3.140702	    -179.948954
	 D(3,9,8,11)      =         0.261305	      14.971662
	 D(4,7,12,6)      =        -0.000862	      -0.049402
	 D(4,9,3,6)       =        -0.000567	      -0.032478
	 D(4,9,3,17)      =        -3.140645	    -179.945695
	 D(4,9,8,11)      =        -2.880977	    -165.067834
	 D(5,10,2,16)     =         3.140149	     179.917291
	 D(5,10,13,22)    =        -0.000187	      -0.010740
	 D(5,11,8,9)      =        -3.141300	    -179.983240
	 D(6,3,9,8)       =         3.140339	     179.928154
	 D(6,12,7,21)     =         3.140146	     179.917091
	 D(7,4,9,8)       =        -3.140489	    -179.936750
	 D(7,12,6,20)     =         3.140508	     179.937876
	 D(8,1,2,10)      =         0.000348	       0.019955
	 D(8,1,2,16)      =        -3.140133	    -179.916358
	 D(8,9,3,17)      =         0.000261	       0.014936
	 D(8,9,4,18)      =         0.001578	       0.090397
	 D(8,11,5,10)     =        -0.000301	      -0.017270
	 D(8,11,5,19)     =         3.141030	     179.967774
	 D(9,3,6,12)      =        -0.000000	      -0.000000
	 D(9,3,6,20)      =        -3.139722	    -179.892794
	 D(9,4,7,12)      =         0.000325	       0.018638
	 D(9,4,7,21)      =        -3.140652	    -179.946078
	 D(9,8,1,15)      =         0.000403	       0.023110
	 D(9,8,11,14)     =         0.000033	       0.001883
	 D(10,2,1,15)     =         3.141234	     179.979432
	 D(10,5,11,14)    =         3.141547	     179.997392
	 D(11,5,10,13)    =        -3.141411	    -179.989616
	 D(11,8,1,15)     =        -3.141221	    -179.978731
	 D(12,6,3,17)     =         3.140102	     179.914591
	 D(12,7,4,18)     =         3.141452	     179.991922
	 D(13,10,2,16)    =        -0.001324	      -0.075833
	 D(13,10,5,19)    =         0.000444	       0.025437
	 D(14,11,5,19)    =        -0.000307	      -0.017564
	 D(15,1,2,16)     =         0.000753	       0.043120
	 D(17,3,6,20)     =         0.000382	       0.021914
	 D(18,4,7,21)     =         0.000475	       0.027206
	 R(3,14)          =         4.777597	       2.528195

	Current energy   :      -652.8622611907

	Generating empirical Hessian (Schlegel '84) for each fragment.
	Adding user-defined constraint: Fragment 1; Coordinate 61:
		Value =    -2.880320; Fixed value    =    -2.879793
		Force =     0.000263; Force constant =     0.500000
	Removing off-diagonal coupling between coordinate 61 and others.
	Taking RFO optimization step.
	Going to follow RFO solution 1.
	Using RFO vector 1.

	Determining step-restricting scale parameter for RS-RFO.
	Maximum step size allowed    0.10000

	 Iter      |step|        alpha        rfo_root  
	------------------------------------------------
	    0     0.44767       1.00000           1
	    1     0.29282       3.80605           1
	    2     0.19959      10.99911           1
	    3     0.14447      25.77305           1
	    4     0.11469      46.19469           1
	    5     0.10252      60.87880           1
	    6     0.10010      64.51950           1
	    7     0.10000      64.67088           1
	------------------------------------------------
	Norm of target step-size    0.10000
	Projected energy change by RFO approximation:        -0.0066452631

	Back-transformation to cartesian coordinates...
	Could not converge backtransformation.
	Using first guess instead.

	--- Internal Coordinate Step in ANG or DEG, aJ/ANG or AJ/DEG ---
	 ---------------------------------------------------------------------------
	   Coordinate                Previous        Force       Change         New 
	   ----------                --------       ------       ------       ------
	    1 R(1,2)          =      1.394038    -0.068383    -0.004813     1.389225
	    2 R(1,8)          =      1.394891     0.013362     0.001282     1.396173
	    3 R(1,15)         =      1.087431    -0.075720    -0.006030     1.081401
	    4 R(2,10)         =      1.394821    -0.086507    -0.006209     1.388612
	    5 R(2,16)         =      1.087214    -0.048950    -0.003906     1.083308
	    6 R(3,6)          =      1.385738     0.012428     0.000916     1.386654
	    7 R(3,9)          =      1.390247     0.065328     0.005006     1.395253
	    8 R(3,17)         =      1.085047    -0.137227    -0.010815     1.074232
	    9 R(4,7)          =      1.386109    -0.018996    -0.001382     1.384727
	   10 R(4,9)          =      1.389951     0.038230     0.003121     1.393072
	   11 R(4,18)         =      1.085520    -0.059134    -0.004679     1.080841
	   12 R(5,10)         =      1.395407    -0.064863    -0.004667     1.390740
	   13 R(5,11)         =      1.394521    -0.112435    -0.007831     1.386690
	   14 R(5,19)         =      1.086545    -0.035501    -0.002789     1.083756
	   15 R(6,12)         =      1.352092    -0.132961    -0.008853     1.343240
	   16 R(6,20)         =      1.085047    -0.023441    -0.001877     1.083169
	   17 R(7,12)         =      1.351218    -0.131624    -0.008819     1.342399
	   18 R(7,21)         =      1.085614    -0.025125    -0.002005     1.083609
	   19 R(8,9)          =      1.447320     0.171166     0.013592     1.460912
	   20 R(8,11)         =      1.394821    -0.071170    -0.004454     1.390367
	   21 R(10,13)        =      1.361638    -0.027782    -0.001774     1.359864
	   22 R(11,14)        =      1.341125    -0.038693    -0.002423     1.338702
	   23 R(13,22)        =      0.970316    -0.074592    -0.004884     0.965432
	   24 B(1,2,10)       =    120.009056    -0.000080    -0.094480   119.914577
	   25 B(1,2,16)       =    119.675016     0.000253     0.312884   119.987901
	   26 B(1,8,9)        =    119.838095     0.001306     1.311330   121.149424
	   27 B(1,8,11)       =    119.959722    -0.001528    -1.670808   118.288914
	   28 B(2,1,8)        =    120.031219     0.000754     0.884644   120.915863
	   29 B(2,1,15)       =    119.144799    -0.000400    -0.474207   118.670593
	   30 B(2,10,5)       =    119.994870    -0.000127    -0.158818   119.836053
	   31 B(2,10,13)      =    119.991510    -0.000704    -0.752489   119.239022
	   32 B(3,6,12)       =    124.008105     0.000342     0.355331   124.363436
	   33 B(3,6,20)       =    120.770304    -0.000228    -0.248318   120.521986
	   34 B(3,9,4)        =    119.770626    -0.001364    -1.419687   118.350940
	   35 B(3,9,8)        =    120.137217     0.000769     0.871316   121.008533
	   36 B(4,7,12)       =    124.069617     0.000072     0.025612   124.095229
	   37 B(4,7,21)       =    120.751404    -0.000103    -0.096189   120.655215
	   38 B(4,9,8)        =    120.092145     0.000594     0.548370   120.640515
	   39 B(5,10,13)      =    120.013619     0.000832     0.911305   120.924924
	   40 B(5,11,8)       =    120.045019     0.001190     1.281018   121.326037
	   41 B(5,11,14)      =    119.256220    -0.000376    -0.473402   118.782818
	   42 B(6,3,9)        =    117.911446     0.000253     0.348296   118.259741
	   43 B(6,3,17)       =    120.220120    -0.000612    -0.788892   119.431228
	   44 B(6,12,7)       =    116.376129     0.000006    -0.127616   116.248513
	   45 B(7,4,9)        =    117.864054     0.000690     0.818026   118.682080
	   46 B(7,4,18)       =    120.308377    -0.000489    -0.591813   119.716564
	   47 B(8,1,15)       =    120.823969    -0.000354    -0.410626   120.413343
	   48 B(8,11,14)      =    120.698759    -0.000815    -0.807939   119.890821
	   49 B(9,3,17)       =    121.868378     0.000360     0.439782   122.308159
	   50 B(9,4,18)       =    121.827564    -0.000201    -0.226361   121.601203
	   51 B(9,8,11)       =    120.202184     0.000222     0.359338   120.561522
	   52 B(10,2,16)      =    120.315896    -0.000174    -0.218408   120.097488
	   53 B(10,5,11)      =    119.960108    -0.000210    -0.241620   119.718488
	   54 B(10,5,19)      =    120.341451     0.000183     0.216177   120.557628
	   55 B(10,13,22)     =    110.253909    -0.000352    -0.436594   109.817314
	   56 B(11,5,19)      =    119.698439     0.000028     0.025442   119.723880
	   57 B(12,6,20)      =    115.221511    -0.000114    -0.107037   115.114474
	   58 B(12,7,21)      =    115.178971     0.000031     0.070553   115.249524
	   59 D(1,2,10,5)     =     -0.018609    -0.000000     0.001874    -0.016735
	   60 D(1,2,10,13)    =    179.988267    -0.000002    -0.019075   179.969192
	   61 D(1,8,9,3)      =   -165.030184     0.000038     0.202332  -164.827852
	   62 D(1,8,9,4)      =     14.930320     0.000046     0.282624    15.212944
	   63 D(1,8,11,5)     =      0.018608     0.000004     0.044815     0.063423
	   64 D(1,8,11,14)    =   -179.996269     0.000036     0.269483  -179.726786
	   65 D(2,1,8,9)      =    179.981897     0.000005     0.051516   180.033413
	   66 D(2,1,8,11)     =     -0.019945    -0.000009    -0.082409    -0.102354
	   67 D(2,10,5,11)    =      0.017261    -0.000005    -0.039079    -0.021817
	   68 D(2,10,5,19)    =   -179.967685    -0.000010    -0.075059  -180.042744
	   69 D(2,10,13,22)   =    179.982383     0.000001     0.011125   179.993508
	   70 D(3,6,12,7)     =      0.039807    -0.000008    -0.059215    -0.019409
	   71 D(3,9,4,7)      =      0.023899    -0.000000     0.006762     0.030661
	   72 D(3,9,4,18)     =   -179.948954     0.000017     0.122730  -179.826224
	   73 D(3,9,8,11)     =     14.971662     0.000052     0.339325    15.310987
	   74 D(4,7,12,6)     =     -0.049402     0.000002     0.010699    -0.038703
	   75 D(4,9,3,6)      =     -0.032478    -0.000006    -0.050027    -0.082504
	   76 D(4,9,3,17)     =   -179.945695     0.000030     0.205038  -179.740657
	   77 D(4,9,8,11)     =   -165.067834     0.000060     0.419616  -164.648217
	   78 D(5,10,2,16)    =    179.917291    -0.000001    -0.001258   179.916033
	   79 D(5,10,13,22)   =     -0.010740    -0.000001    -0.009983    -0.020723
	   80 D(5,11,8,9)     =   -179.983240    -0.000010    -0.088273  -180.071514
	   81 D(6,3,9,8)      =    179.928154     0.000002     0.029226   179.957379
	   82 D(6,12,7,21)    =    179.917091    -0.000002    -0.020379   179.896712
	   83 D(7,4,9,8)      =   -179.936750    -0.000008    -0.072320  -180.009070
	   84 D(7,12,6,20)    =    179.937876    -0.000011    -0.074185   179.863691
	   85 D(8,1,2,10)     =      0.019955     0.000008     0.060217     0.080172
	   86 D(8,1,2,16)     =   -179.916358     0.000008     0.063688  -179.852670
	   87 D(8,9,3,17)     =      0.014936     0.000038     0.284290     0.299226
	   88 D(8,9,4,18)     =      0.090397     0.000008     0.043648     0.134045
	   89 D(8,11,5,10)    =     -0.017270     0.000003     0.015029    -0.002241
	   90 D(8,11,5,19)    =    179.967774     0.000008     0.050736   180.018510
	   91 D(9,3,6,12)     =      0.000000     0.000011     0.080369     0.080369
	   92 D(9,3,6,20)     =   -179.892794     0.000013     0.096038  -179.796755
	   93 D(9,4,7,12)     =      0.018638     0.000002     0.013942     0.032580
	   94 D(9,4,7,21)     =   -179.946078     0.000007     0.046562  -179.899516
	   95 D(9,8,1,15)     =      0.023110     0.000022     0.175776     0.198886
	   96 D(9,8,11,14)    =      0.001883     0.000022     0.136394     0.138277
	   97 D(10,2,1,15)    =    179.979432    -0.000009    -0.061905   179.917527
	   98 D(10,5,11,14)   =    179.997392    -0.000028    -0.207156   179.790236
	   99 D(11,5,10,13)   =   -179.989616    -0.000003    -0.017886  -180.007502
	  100 D(11,8,1,15)    =   -179.978731     0.000008     0.041851  -179.936880
	  101 D(12,6,3,17)    =    179.914591    -0.000024    -0.165958   179.748634
	  102 D(12,7,4,18)    =    179.991922    -0.000014    -0.099693   179.892228
	  103 D(13,10,2,16)   =     -0.075833    -0.000003    -0.022207    -0.098040
	  104 D(13,10,5,19)   =      0.025437    -0.000008    -0.053867    -0.028429
	  105 D(14,11,5,19)   =     -0.017564    -0.000024    -0.171449    -0.189013
	  106 D(15,1,2,16)    =      0.043120    -0.000009    -0.058435    -0.015315
	  107 D(17,3,6,20)    =      0.021914    -0.000021    -0.150405    -0.128491
	  108 D(18,4,7,21)    =      0.027206    -0.000010    -0.067073    -0.039867
	  109 R(3,14)         =      2.528195     0.190865     0.025023     2.553218
	 ---------------------------------------------------------------------------
	Successfully symmetrized geometry.
	 Forces used to impose fixed constraints are not included.
	  Forces zeroed: 61 

  ==> Convergence Check <==

  Measures of convergence in internal coordinates in au.
  Criteria marked as inactive (o), active & met (*), and active & unmet ( ).
  --------------------------------------------------------------------------------------------- ~
   Step     Total Energy     Delta E     MAX Force     RMS Force      MAX Disp      RMS Disp    ~
  --------------------------------------------------------------------------------------------- ~
    Convergence Criteria    1.00e-06 *    3.00e-04 *             o    1.20e-03 *             o  ~
  --------------------------------------------------------------------------------------------- ~
      1    -652.86226119   -6.53e+02      2.32e-02      6.76e-03 o    4.73e-02      9.59e-03 o  ~
  ---------------------------------------------------------------------------------------------

	Writing optimization data to binary file.
	Structure for next step:
	Cartesian Geometry (in Angstrom)
	    C    -1.3445395893   0.7626555648  -0.7810480240
	    C    -2.4171255326   1.3338195481  -0.1077885570
	    C     1.7136893800  -1.3004731987  -0.1270273959
	    C     1.0621543953  -0.1628712238  -2.1307106791
	    C    -1.4153712250   0.7212705780   1.9910902088
	    C     2.7672763973  -1.8399828045  -0.8493099258
	    C     2.1461411341  -0.7549536280  -2.7567130534
	    C    -0.2956219292   0.1629981643  -0.0814184031
	    C     0.8351150878  -0.4385105704  -0.7841868959
	    C    -2.4534976826   1.3137993705   1.2802023465
	    C    -0.3504980099   0.1537194274   1.3078340979
	    N     3.0044181160  -1.5879613096  -2.1472090831
	    O    -3.5096718091   1.8774711342   1.9251840925
	    F     0.6407055376  -0.4078137661   2.0109123459
	    H    -1.3374374935   0.7883773882  -1.8621195583
	    H    -3.2241553186   1.7930324103  -0.6658056361
	    H     1.5962463028  -1.5598461999   0.9087844443
	    H     0.4164289722   0.4993009526  -2.6899813777
	    H    -1.4314703604   0.6996658213   3.0745116586
	    H     3.4693143850  -2.5158863837  -0.3764960780
	    H     2.3535424241  -0.5616238942  -3.8025699657
	    H    -3.3963159488   1.7873001737   2.8796885659
			--------------------------
			 OPTKING Finished Execution 
			--------------------------

    Structure for next step:
    Molecular point group: c1
    Full point group: C1

    Geometry (in Angstrom), charge = 0, multiplicity = 1:

    C           -1.341964909358     0.760534030319    -0.780556215811
    C           -2.414550852734     1.331698013625    -0.107296748817
    C            1.716264059902    -1.302594733185    -0.126535587675
    C            1.064729075193    -0.164992758349    -2.130218870855
    C           -1.412796545107     0.719149043533     1.991582017016
    C            2.769851077197    -1.842104339056    -0.848818117550
    C            2.148715814005    -0.757075162529    -2.756221245134
    C           -0.293047249318     0.160876629747    -0.080926594823
    C            0.837689767725    -0.440632104898    -0.783695087711
    C           -2.450923002686     1.311677835998     1.280694154772
    C           -0.347923330004     0.151597892858     1.308325906142
    N            3.006992795872    -1.590082844078    -2.146717274879
    O           -3.507097129164     1.875349599698     1.925675900741
    F            0.643280217525    -0.409935300565     2.011404154116
    H           -1.334862813627     0.786255853663    -1.861627750115
    H           -3.221580638712     1.790910875816    -0.665313827833
    H            1.598820982672    -1.561967734414     0.909276252495
    H            0.419003652120     0.497179418097    -2.689489569478
    H           -1.428895680536     0.697544286772     3.075003466836
    H            3.471889064902    -2.518007918196    -0.376004269734
    H            2.356117104033    -0.563745428741    -3.802078157448
    H           -3.393741268859     1.785178639169     2.880180374101

gradient() will perform analytic gradient computation.

*** tstart() called on gpu-1-12.local
*** at Sat Nov 11 22:28:11 2017

    SCF Algorithm Type (re)set to DF.

*** tstart() called on gpu-1-12.local
*** at Sat Nov 11 22:28:11 2017

   => Loading Basis Set <=

    Name: AUG-CC-PVTZ
    Role: ORBITAL
    Keyword: BASIS
    atoms 1-11  entry C          line   221 file /cbio/jclab/home/chayas/anaconda/envs/py35/share/psi4/basis/aug-cc-pvtz.gbs 
    atoms 12    entry N          line   267 file /cbio/jclab/home/chayas/anaconda/envs/py35/share/psi4/basis/aug-cc-pvtz.gbs 
    atoms 13    entry O          line   313 file /cbio/jclab/home/chayas/anaconda/envs/py35/share/psi4/basis/aug-cc-pvtz.gbs 
    atoms 14    entry F          line   359 file /cbio/jclab/home/chayas/anaconda/envs/py35/share/psi4/basis/aug-cc-pvtz.gbs 
    atoms 15-22 entry H          line    34 file /cbio/jclab/home/chayas/anaconda/envs/py35/share/psi4/basis/aug-cc-pvtz.gbs 


         ---------------------------------------------------------
                                   SCF
            by Justin Turney, Rob Parrish, and Andy Simmonett
                              RHF Reference
                        8 Threads,   4768 MiB Core
         ---------------------------------------------------------

  ==> Geometry <==

    Molecular point group: c1
    Full point group: C1

    Geometry (in Angstrom), charge = 0, multiplicity = 1:

       Center              X                  Y                   Z               Mass       
    ------------   -----------------  -----------------  -----------------  -----------------
           C         -1.341964909358     0.760534030319    -0.780556215811    12.000000000000
           C         -2.414550852734     1.331698013625    -0.107296748817    12.000000000000
           C          1.716264059902    -1.302594733185    -0.126535587675    12.000000000000
           C          1.064729075193    -0.164992758349    -2.130218870855    12.000000000000
           C         -1.412796545107     0.719149043533     1.991582017016    12.000000000000
           C          2.769851077197    -1.842104339056    -0.848818117550    12.000000000000
           C          2.148715814005    -0.757075162529    -2.756221245134    12.000000000000
           C         -0.293047249318     0.160876629747    -0.080926594823    12.000000000000
           C          0.837689767725    -0.440632104898    -0.783695087711    12.000000000000
           C         -2.450923002686     1.311677835998     1.280694154772    12.000000000000
           C         -0.347923330004     0.151597892858     1.308325906142    12.000000000000
           N          3.006992795872    -1.590082844078    -2.146717274879    14.003074004780
           O         -3.507097129164     1.875349599698     1.925675900741    15.994914619560
           F          0.643280217525    -0.409935300565     2.011404154116    18.998403224000
           H         -1.334862813627     0.786255853663    -1.861627750115     1.007825032070
           H         -3.221580638712     1.790910875816    -0.665313827833     1.007825032070
           H          1.598820982672    -1.561967734414     0.909276252495     1.007825032070
           H          0.419003652120     0.497179418097    -2.689489569478     1.007825032070
           H         -1.428895680536     0.697544286772     3.075003466836     1.007825032070
           H          3.471889064902    -2.518007918196    -0.376004269734     1.007825032070
           H          2.356117104033    -0.563745428741    -3.802078157448     1.007825032070
           H         -3.393741268859     1.785178639169     2.880180374101     1.007825032070

  Running in c1 symmetry.

  Rotational constants: A =      0.06418  B =      0.01344  C =      0.01117 [cm^-1]
  Rotational constants: A =   1924.03946  B =    402.82502  C =    334.87617 [MHz]
  Nuclear repulsion =  816.986172192462618

  Charge       = 0
  Multiplicity = 1
  Electrons    = 98
  Nalpha       = 49
  Nbeta        = 49

  ==> Algorithm <==

  SCF Algorithm Type is DF.
  DIIS enabled.
  MOM disabled.
  Fractional occupation disabled.
  Guess Type is READ.
  Energy threshold   = 1.00e-10
  Density threshold  = 1.00e-10
  Integral threshold = 0.00e+00

  ==> Primary Basis <==

  Basis Set: AUG-CC-PVTZ
    Blend: AUG-CC-PVTZ
    Number of shells: 268
    Number of basis function: 828
    Number of Cartesian functions: 970
    Spherical Harmonics?: true
    Max angular momentum: 3

   => Loading Basis Set <=

    Name: (AUG-CC-PVTZ AUX)
    Role: JKFIT
    Keyword: DF_BASIS_SCF
    atoms 1-11  entry C          line   161 file /cbio/jclab/home/chayas/anaconda/envs/py35/share/psi4/basis/aug-cc-pvtz-jkfit.gbs 
    atoms 12    entry N          line   223 file /cbio/jclab/home/chayas/anaconda/envs/py35/share/psi4/basis/aug-cc-pvtz-jkfit.gbs 
    atoms 13    entry O          line   285 file /cbio/jclab/home/chayas/anaconda/envs/py35/share/psi4/basis/aug-cc-pvtz-jkfit.gbs 
    atoms 14    entry F          line   347 file /cbio/jclab/home/chayas/anaconda/envs/py35/share/psi4/basis/aug-cc-pvtz-jkfit.gbs 
    atoms 15-22 entry H          line    69 file /cbio/jclab/home/chayas/anaconda/envs/py35/share/psi4/basis/aug-cc-pvtz-jkfit.gbs 

  Reading orbitals from file 180, no projection.

  ==> Pre-Iterations <==

   -------------------------------------------------------
    Irrep   Nso     Nmo     Nalpha   Nbeta   Ndocc  Nsocc
   -------------------------------------------------------
     A        828     828       0       0       0       0
   -------------------------------------------------------
    Total     828     828      49      49      49       0
   -------------------------------------------------------

  ==> Integral Setup <==

  ==> DFJK: Density-Fitted J/K Matrices <==

    J tasked:                  Yes
    K tasked:                  Yes
    wK tasked:                  No
    OpenMP threads:              8
    Integrals threads:           8
    Memory (MB):              3576
    Algorithm:                Disk
    Integral Cache:           NONE
    Schwarz Cutoff:          1E-12
    Fitting Condition:       1E-12

   => Auxiliary Basis Set <=

  Basis Set: (AUG-CC-PVTZ AUX)
    Blend: AUG-CC-PVTZ-JKFIT
    Number of shells: 532
    Number of basis function: 1824
    Number of Cartesian functions: 2274
    Spherical Harmonics?: true
    Max angular momentum: 4

  Minimum eigenvalue in the overlap matrix is 5.8352032184E-07.
  Using Symmetric Orthogonalization.

  SCF Guess: Orbitals guess was supplied from a previous computation.

  ==> Iterations <==

                           Total Energy        Delta E     RMS |[F,P]|

   @DF-RHF iter   0:  -650.28687640770306   -6.50287e+02   5.74257e-04 
   @DF-RHF iter   1:  -650.16815581587673    1.18721e-01   1.49140e-04 
   @DF-RHF iter   2:  -650.16884850428983   -6.92688e-04   9.80857e-05 DIIS
   @DF-RHF iter   3:  -650.16947271413596   -6.24210e-04   1.48278e-05 DIIS
   @DF-RHF iter   4:  -650.16948300851936   -1.02944e-05   4.21188e-06 DIIS
   @DF-RHF iter   5:  -650.16948460883691   -1.60032e-06   1.09675e-06 DIIS
   @DF-RHF iter   6:  -650.16948483411841   -2.25281e-07   4.69479e-07 DIIS
   @DF-RHF iter   7:  -650.16948491322421   -7.91058e-08   3.10653e-07 DIIS
   @DF-RHF iter   8:  -650.16948493752784   -2.43036e-08   1.08265e-07 DIIS
   @DF-RHF iter   9:  -650.16948494112830   -3.60046e-09   4.75103e-08 DIIS
   @DF-RHF iter  10:  -650.16948494154462   -4.16321e-10   1.49416e-08 DIIS
   @DF-RHF iter  11:  -650.16948494160738   -6.27551e-11   5.14853e-09 DIIS
   @DF-RHF iter  12:  -650.16948494159374    1.36424e-11   2.26637e-09 DIIS
   @DF-RHF iter  13:  -650.16948494160124   -7.50333e-12   1.21274e-09 DIIS
   @DF-RHF iter  14:  -650.16948494160044    7.95808e-13   5.02432e-10 DIIS
   @DF-RHF iter  15:  -650.16948494160260   -2.16005e-12   2.49430e-10 DIIS
   @DF-RHF iter  16:  -650.16948494160101    1.59162e-12   8.25242e-11 DIIS

  ==> Post-Iterations <==

    Orbital Energies (a.u.)
    -----------------------

    Doubly Occupied:                                                      

       1A    -26.333048     2A    -20.612723     3A    -15.558296  
       4A    -11.351972     5A    -11.330372     6A    -11.270270  
       7A    -11.267818     8A    -11.267663     9A    -11.266566  
      10A    -11.256619    11A    -11.255423    12A    -11.246429  
      13A    -11.236112    14A    -11.227570    15A     -1.657644  
      16A     -1.429469    17A     -1.250690    18A     -1.185821  
      19A     -1.110463    20A     -1.046608    21A     -1.031173  
      22A     -1.022952    23A     -0.897829    24A     -0.881323  
      25A     -0.853759    26A     -0.828745    27A     -0.775951  
      28A     -0.757065    29A     -0.725461    30A     -0.720537  
      31A     -0.707310    32A     -0.677211    33A     -0.653600  
      34A     -0.640350    35A     -0.630619    36A     -0.614046  
      37A     -0.612486    38A     -0.591410    39A     -0.579619  
      40A     -0.547795    41A     -0.542111    42A     -0.538640  
      43A     -0.508763    44A     -0.501919    45A     -0.414344  
      46A     -0.405501    47A     -0.363394    48A     -0.345161  
      49A     -0.312348  

    Virtual:                                                              

      50A      0.020838    51A      0.028059    52A      0.034913  
      53A      0.039887    54A      0.044402    55A      0.049754  
      56A      0.057199    57A      0.060420    58A      0.072538  
      59A      0.076735    60A      0.081026    61A      0.083600  
      62A      0.089992    63A      0.092386    64A      0.097827  
      65A      0.101474    66A      0.104132    67A      0.109581  
      68A      0.110815    69A      0.112010    70A      0.116444  
      71A      0.119299    72A      0.127030    73A      0.130621  
      74A      0.133564    75A      0.136961    76A      0.138560  
      77A      0.141127    78A      0.143730    79A      0.144478  
      80A      0.151107    81A      0.152284    82A      0.156745  
      83A      0.164650    84A      0.166199    85A      0.171711  
      86A      0.176742    87A      0.181021    88A      0.185815  
      89A      0.188371    90A      0.195016    91A      0.201819  
      92A      0.207351    93A      0.211900    94A      0.220502  
      95A      0.224018    96A      0.227484    97A      0.229006  
      98A      0.233551    99A      0.238814   100A      0.243818  
     101A      0.247714   102A      0.248278   103A      0.254727  
     104A      0.257750   105A      0.262775   106A      0.264387  
     107A      0.268518   108A      0.271242   109A      0.276797  
     110A      0.279753   111A      0.283877   112A      0.288560  
     113A      0.293525   114A      0.298595   115A      0.303429  
     116A      0.304963   117A      0.306400   118A      0.314194  
     119A      0.317910   120A      0.321025   121A      0.326182  
     122A      0.327259   123A      0.333758   124A      0.341082  
     125A      0.345107   126A      0.345247   127A      0.350040  
     128A      0.356203   129A      0.363566   130A      0.372337  
     131A      0.372970   132A      0.383674   133A      0.387382  
     134A      0.391029   135A      0.395669   136A      0.400744  
     137A      0.405229   138A      0.408531   139A      0.413128  
     140A      0.423384   141A      0.424177   142A      0.427026  
     143A      0.430178   144A      0.432810   145A      0.434263  
     146A      0.438706   147A      0.447209   148A      0.448500  
     149A      0.448947   150A      0.455875   151A      0.457551  
     152A      0.465636   153A      0.467068   154A      0.471160  
     155A      0.472263   156A      0.477796   157A      0.480672  
     158A      0.487383   159A      0.490308   160A      0.491951  
     161A      0.499642   162A      0.501707   163A      0.503462  
     164A      0.506682   165A      0.509993   166A      0.510484  
     167A      0.513322   168A      0.515689   169A      0.523176  
     170A      0.525119   171A      0.529197   172A      0.536427  
     173A      0.537221   174A      0.543476   175A      0.547947  
     176A      0.552165   177A      0.557360   178A      0.559696  
     179A      0.569723   180A      0.570394   181A      0.574049  
     182A      0.576726   183A      0.589576   184A      0.593188  
     185A      0.594117   186A      0.599476   187A      0.604376  
     188A      0.618307   189A      0.623399   190A      0.624536  
     191A      0.636179   192A      0.637585   193A      0.646265  
     194A      0.652987   195A      0.661551   196A      0.662292  
     197A      0.676761   198A      0.684274   199A      0.687966  
     200A      0.692806   201A      0.693874   202A      0.699619  
     203A      0.704342   204A      0.707650   205A      0.715768  
     206A      0.722528   207A      0.725342   208A      0.730298  
     209A      0.741137   210A      0.746625   211A      0.748831  
     212A      0.750413   213A      0.758574   214A      0.769497  
     215A      0.769936   216A      0.779054   217A      0.784093  
     218A      0.788555   219A      0.792426   220A      0.805193  
     221A      0.809059   222A      0.811647   223A      0.815570  
     224A      0.822354   225A      0.826972   226A      0.831421  
     227A      0.843283   228A      0.844333   229A      0.857106  
     230A      0.861047   231A      0.862627   232A      0.863649  
     233A      0.868049   234A      0.876258   235A      0.884355  
     236A      0.889758   237A      0.894656   238A      0.896475  
     239A      0.898229   240A      0.902612   241A      0.908988  
     242A      0.914186   243A      0.920158   244A      0.921841  
     245A      0.930917   246A      0.935494   247A      0.939680  
     248A      0.944453   249A      0.950289   250A      0.952146  
     251A      0.959310   252A      0.961831   253A      0.968825  
     254A      0.969970   255A      0.971742   256A      0.977052  
     257A      0.978545   258A      0.980192   259A      0.988221  
     260A      0.992401   261A      0.994564   262A      1.005076  
     263A      1.007894   264A      1.012338   265A      1.015345  
     266A      1.025380   267A      1.028152   268A      1.032975  
     269A      1.034955   270A      1.039487   271A      1.043737  
     272A      1.045561   273A      1.051568   274A      1.054143  
     275A      1.060434   276A      1.065361   277A      1.069596  
     278A      1.076197   279A      1.077774   280A      1.089131  
     281A      1.092029   282A      1.094436   283A      1.098634  
     284A      1.103068   285A      1.114158   286A      1.117160  
[...]
	 B(6,3,9)         =         2.091556	     119.837336
	 B(6,3,17)        =         2.075242	     118.902605
	 B(6,12,7)        =         2.025281	     116.040070
	 B(7,4,9)         =         2.099245	     120.277875
	 B(7,4,18)        =         2.068083	     118.492400
	 B(8,1,15)        =         2.073449	     118.799878
	 B(8,11,14)       =         2.103091	     120.498260
	 B(9,3,17)        =         2.116008	     121.238345
	 B(9,4,18)        =         2.115526	     121.210721
	 B(9,8,11)        =         2.170762	     124.375498
	 B(10,2,16)       =         2.083329	     119.365976
	 B(10,5,11)       =         2.085809	     119.508034
	 B(10,5,19)       =         2.128265	     121.940598
	 B(10,13,22)      =         1.908019	     109.321435
	 B(11,5,19)       =         2.069077	     118.549367
	 B(12,6,20)       =         2.028565	     116.228214
	 B(12,7,21)       =         2.030754	     116.353612
	 D(1,2,10,5)      =         0.002982	       0.170830
	 D(1,2,10,13)     =        -3.138759	    -179.837619
	 D(1,8,9,3)       =        -2.874022	    -164.669306
	 D(1,8,9,4)       =         0.306925	      17.585534
	 D(1,8,11,5)      =         0.015091	       0.864674
	 D(1,8,11,14)     =        -3.096259	    -177.402567
	 D(2,1,8,9)       =        -3.099217	    -177.572041
	 D(2,1,8,11)      =        -0.016944	      -0.970842
	 D(2,10,5,11)     =        -0.004801	      -0.275057
	 D(2,10,5,19)     =         3.127675	     179.202587
	 D(2,10,13,22)    =         3.139894	     179.902701
	 D(3,6,12,7)      =         0.001988	       0.113915
	 D(3,9,4,7)       =         0.025565	       1.464782
	 D(3,9,4,18)      =        -3.087932	    -176.925493
	 D(3,9,8,11)      =         0.332881	      19.072693
	 D(4,7,12,6)      =        -0.004174	      -0.239146
	 D(4,9,3,6)       =        -0.027456	      -1.573102
	 D(4,9,3,17)      =        -3.139138	    -179.859352
	 D(4,9,8,11)      =        -2.769357	    -158.672468
	 D(5,10,2,16)     =         3.137117	     179.743564
	 D(5,10,13,22)    =        -0.001852	      -0.106098
	 D(5,11,8,9)      =         3.094971	     177.328771
	 D(6,3,9,8)       =        -3.131447	    -179.418704
	 D(6,12,7,21)     =         3.129591	     179.312332
	 D(7,4,9,8)       =         3.130797	     179.381483
	 D(7,12,6,20)     =        -3.137551	    -179.768408
	 D(8,1,2,10)      =         0.008540	       0.489299
	 D(8,1,2,16)      =        -3.125474	    -179.076452
	 D(8,9,3,17)      =         0.040056	       2.295046
	 D(8,9,4,18)      =         0.017300	       0.991208
	 D(8,11,5,10)     =        -0.004804	      -0.275231
	 D(8,11,5,19)     =        -3.137589	    -179.770601
	 D(9,3,6,12)      =         0.014631	       0.838317
	 D(9,3,6,20)      =        -3.129079	    -179.282999
	 D(9,4,7,12)      =        -0.010325	      -0.591607
	 D(9,4,7,21)      =         3.139350	     179.871478
	 D(9,8,1,15)      =         0.082111	       4.704642
	 D(9,8,11,14)     =        -0.016379	      -0.938470
	 D(10,2,1,15)     =         3.110727	     178.231528
	 D(10,5,11,14)    =         3.107850	     178.066693
	 D(11,5,10,13)    =         3.136948	     179.733859
	 D(11,8,1,15)     =        -3.118801	    -178.694160
	 D(12,6,3,17)     =         3.127012	     179.164562
	 D(12,7,4,18)     =         3.103927	     177.841927
	 D(13,10,2,16)    =        -0.004623	      -0.264886
	 D(13,10,5,19)    =        -0.013762	      -0.788498
	 D(14,11,5,19)    =        -0.024935	      -1.428676
	 D(15,1,2,16)     =        -0.023287	      -1.334223
	 D(17,3,6,20)     =        -0.016698	      -0.956753
	 D(18,4,7,21)     =        -0.029583	      -1.694988
	 R(3,14)          =         5.265062	       2.786151

	Current energy   :      -652.8737970078

	Energy change for the previous step:
		Projected    :         0.0000225208
		Actual       :        -0.0000043158

	Performing BFGS update.
	Previous computed or guess Hessian on step 1.
	Steps to be used in Hessian update: 14 13
	Adding user-defined constraint: Fragment 1; Coordinate 61:
		Value =    -2.874022; Fixed value    =    -2.879790
		Force =    -0.004903; Force constant =     0.850000
	Removing off-diagonal coupling between coordinate 61 and others.
	Taking RFO optimization step.
	Going to follow RFO solution 1.
	Rejecting RFO root 1 because normalization gives large value.
	Using RFO vector 2.
	Norm of target step-size    0.00156
	Projected energy change by RFO approximation:        -0.0000000251

	Back-transformation to cartesian coordinates...
	Successfully converged to displaced geometry.

	--- Internal Coordinate Step in ANG or DEG, aJ/ANG or AJ/DEG ---
	 ---------------------------------------------------------------------------
	   Coordinate                Previous        Force       Change         New 
	   ----------                --------       ------       ------       ------
	    1 R(1,2)          =      1.380049    -0.000016    -0.000005     1.380044
	    2 R(1,8)          =      1.400326     0.000099     0.000016     1.400342
	    3 R(1,15)         =      1.077731     0.000052     0.000013     1.077744
	    4 R(2,10)         =      1.387312     0.000142     0.000030     1.387342
	    5 R(2,16)         =      1.077976     0.000056     0.000015     1.077991
	    6 R(3,6)          =      1.386151     0.000060     0.000014     1.386165
	    7 R(3,9)          =      1.395690    -0.000112    -0.000028     1.395661
	    8 R(3,17)         =      1.074671     0.000082     0.000021     1.074692
	    9 R(4,7)          =      1.383950    -0.000105    -0.000023     1.383927
	   10 R(4,9)          =      1.395959     0.000093     0.000022     1.395981
	   11 R(4,18)         =      1.077786     0.000051     0.000015     1.077802
	   12 R(5,10)         =      1.384340     0.000022     0.000002     1.384342
	   13 R(5,11)         =      1.380277     0.000167     0.000030     1.380306
	   14 R(5,19)         =      1.079375     0.000006     0.000002     1.079377
	   15 R(6,12)         =      1.333725     0.000068     0.000007     1.333733
	   16 R(6,20)         =      1.081113    -0.000006     0.000000     1.081114
	   17 R(7,12)         =      1.334911     0.000265     0.000052     1.334963
	   18 R(7,21)         =      1.081113     0.000027     0.000007     1.081120
	   19 R(8,9)          =      1.465914    -0.000278    -0.000085     1.465829
	   20 R(8,11)         =      1.391836    -0.000047    -0.000022     1.391814
	   21 R(10,13)        =      1.358300     0.000014     0.000001     1.358300
	   22 R(11,14)        =      1.348052     0.000313     0.000080     1.348132
	   23 R(13,22)        =      0.962093     0.000076     0.000013     0.962106
	   24 B(1,2,10)       =    119.668805     0.000001     0.004169   119.672974
	   25 B(1,2,16)       =    120.963812     0.000000     0.002318   120.966130
	   26 B(1,8,9)        =    120.839448    -0.000001     0.000875   120.840322
	   27 B(1,8,11)       =    114.689744     0.000000    -0.000025   114.689720
	   28 B(2,1,8)        =    123.247711    -0.000000    -0.003644   123.244067
	   29 B(2,1,15)       =    117.914895    -0.000000    -0.002046   117.912849
	   30 B(2,10,5)       =    119.181255    -0.000000    -0.001031   119.180224
	   31 B(2,10,13)      =    117.789513     0.000000    -0.000139   117.789373
	   32 B(3,6,12)       =    124.246011    -0.000000     0.000032   124.246043
	   33 B(3,6,20)       =    119.525672    -0.000000    -0.003136   119.522537
	   34 B(3,9,4)        =    115.720245     0.000000     0.000954   115.721199
	   35 B(3,9,8)        =    123.652268     0.000001    -0.001157   123.651111
	   36 B(4,7,12)       =    123.859506     0.000000     0.001591   123.861097
	   37 B(4,7,21)       =    119.785377    -0.000000    -0.000660   119.784717
	   38 B(4,9,8)        =    120.592197    -0.000001     0.000124   120.592321
	   39 B(5,10,13)      =    123.029231     0.000000     0.001167   123.030398
	   40 B(5,11,8)       =    123.697323     0.000000     0.004649   123.701972
	   41 B(5,11,14)      =    115.783557    -0.000001    -0.003370   115.780188
	   42 B(6,3,9)        =    119.837336     0.000000     0.001088   119.838424
	   43 B(6,3,17)       =    118.902605     0.000000     0.000272   118.902877
	   44 B(6,12,7)       =    116.040070    -0.000001    -0.002240   116.037830
	   45 B(7,4,9)        =    120.277875    -0.000000    -0.001118   120.276757
	   46 B(7,4,18)       =    118.492400    -0.000001    -0.005221   118.487179
	   47 B(8,1,15)       =    118.799878     0.000001     0.005656   118.805533
	   48 B(8,11,14)      =    120.498260     0.000000    -0.001689   120.496570
	   49 B(9,3,17)       =    121.238345    -0.000000    -0.001429   121.236916
	   50 B(9,4,18)       =    121.210721     0.000001     0.006615   121.217337
	   51 B(9,8,11)       =    124.375498     0.000001    -0.001129   124.374369
	   52 B(10,2,16)      =    119.365976    -0.000001    -0.006414   119.359561
	   53 B(10,5,11)      =    119.508034    -0.000000    -0.003952   119.504082
	   54 B(10,5,19)      =    121.940598     0.000001     0.009642   121.950240
	   55 B(10,13,22)     =    109.321435     0.000000     0.000751   109.322186
	   56 B(11,5,19)      =    118.549367    -0.000001    -0.005668   118.543699
	   57 B(12,6,20)      =    116.228214     0.000001     0.003106   116.231319
	   58 B(12,7,21)      =    116.353612     0.000000    -0.000984   116.352628
	   59 D(1,2,10,5)     =      0.170830    -0.000000    -0.008553     0.162277
	   60 D(1,2,10,13)    =   -179.837619    -0.000000    -0.024113  -179.861732
	   61 D(1,8,9,3)      =   -164.669306    -0.000002    -0.003662  -164.672967
	   62 D(1,8,9,4)      =     17.585534    -0.000001    -0.001136    17.584398
	   63 D(1,8,11,5)     =      0.864674     0.000000    -0.019718     0.844957
	   64 D(1,8,11,14)    =   -177.402567     0.000000    -0.002703  -177.405270
	   65 D(2,1,8,9)      =   -177.572041     0.000000     0.011715  -177.560325
	   66 D(2,1,8,11)     =     -0.970842    -0.000000     0.006708    -0.964134
	   67 D(2,10,5,11)    =     -0.275057    -0.000000    -0.003721    -0.278778
	   68 D(2,10,5,19)    =    179.202587    -0.000000    -0.000859   179.201727
	   69 D(2,10,13,22)   =    179.902701     0.000000     0.016841   179.919542
	   70 D(3,6,12,7)     =      0.113915     0.000000    -0.005301     0.108613
	   71 D(3,9,4,7)      =      1.464782     0.000000    -0.009526     1.455256
	   72 D(3,9,4,18)     =   -176.925493     0.000000    -0.021164  -176.946657
	   73 D(3,9,8,11)     =     19.072693    -0.000001     0.001804    19.074496
	   74 D(4,7,12,6)     =     -0.239146     0.000000     0.009360    -0.229786
	   75 D(4,9,3,6)      =     -1.573102    -0.000000     0.013191    -1.559911
	   76 D(4,9,3,17)     =   -179.859352    -0.000000     0.015908  -179.843444
	   77 D(4,9,8,11)     =   -158.672468    -0.000001     0.004330  -158.668138
	   78 D(5,10,2,16)    =    179.743564     0.000000     0.002587   179.746151
	   79 D(5,10,13,22)   =     -0.106098    -0.000000     0.000637    -0.105461
	   80 D(5,11,8,9)     =    177.328771    -0.000000    -0.024848   177.303923
	   81 D(6,3,9,8)      =   -179.418704     0.000000     0.015619  -179.403086
	   82 D(6,12,7,21)    =    179.312332    -0.000000     0.001461   179.313792
	   83 D(7,4,9,8)      =    179.381483    -0.000000    -0.011904   179.369578
	   84 D(7,12,6,20)    =   -179.768408    -0.000000    -0.006358  -179.774767
	   85 D(8,1,2,10)     =      0.489299     0.000000     0.006985     0.496283
	   86 D(8,1,2,16)     =   -179.076452     0.000000    -0.004301  -179.080753
	   87 D(8,9,3,17)     =      2.295046     0.000000     0.018336     2.313382
	   88 D(8,9,4,18)     =      0.991208    -0.000000    -0.023542     0.967666
	   89 D(8,11,5,10)    =     -0.275231     0.000000     0.018829    -0.256403
	   90 D(8,11,5,19)    =   -179.770601     0.000000     0.015985  -179.754617
	   91 D(9,3,6,12)     =      0.838317    -0.000000    -0.006199     0.832118
	   92 D(9,3,6,20)     =   -179.282999     0.000000    -0.005102  -179.288101
	   93 D(9,4,7,12)     =     -0.591607    -0.000000    -0.001853    -0.593460
	   94 D(9,4,7,21)     =    179.871478     0.000000     0.006304   179.877782
	   95 D(9,8,1,15)     =      4.704642     0.000000     0.012795     4.717436
	   96 D(9,8,11,14)    =     -0.938470    -0.000000    -0.007834    -0.946304
	   97 D(10,2,1,15)    =    178.231528     0.000000     0.006080   178.237608
	   98 D(10,5,11,14)   =    178.066693    -0.000000     0.002567   178.069260
	   99 D(11,5,10,13)   =    179.733859     0.000000     0.012698   179.746557
	  100 D(11,8,1,15)    =   -178.694160    -0.000000     0.007787  -178.686373
	  101 D(12,6,3,17)    =    179.164562    -0.000000    -0.008882   179.155680
	  102 D(12,7,4,18)    =    177.841927    -0.000000     0.009658   177.851585
	  103 D(13,10,2,16)   =     -0.264886    -0.000000    -0.012973    -0.277858
	  104 D(13,10,5,19)   =     -0.788498     0.000000     0.015560    -0.772938
	  105 D(14,11,5,19)   =     -1.428676    -0.000000    -0.000277    -1.428954
	  106 D(15,1,2,16)    =     -1.334223    -0.000000    -0.005205    -1.339428
	  107 D(17,3,6,20)    =     -0.956753     0.000000    -0.007786    -0.964539
	  108 D(18,4,7,21)    =     -1.694988     0.000000     0.017815    -1.677173
	  109 R(3,14)         =      2.786151    -0.000107    -0.000210     2.785940
	 ---------------------------------------------------------------------------
	Successfully symmetrized geometry.
	 Forces used to impose fixed constraints are not included.
	  Forces zeroed: 61 

  ==> Convergence Check <==

  Measures of convergence in internal coordinates in au.
  Criteria marked as inactive (o), active & met (*), and active & unmet ( ).
  ---------------------------------------------------------------------------------------------
   Step     Total Energy     Delta E     MAX Force     RMS Force      MAX Disp      RMS Disp   
  ---------------------------------------------------------------------------------------------
    Convergence Criteria    1.00e-06 *    3.00e-04 *             o    1.20e-03 *             o
  ---------------------------------------------------------------------------------------------
     15    -652.87379701   -4.32e-06      8.05e-05 *    1.53e-05 o    4.34e-04 *    1.50e-04 o  ~
  ---------------------------------------------------------------------------------------------


  **** Optimization is complete! (in 15 steps) ****

  ==> Optimization Summary <==

  Measures of convergence in internal coordinates in au.
  --------------------------------------------------------------------------------------------------------------- ~
   Step         Total Energy             Delta E       MAX Force       RMS Force        MAX Disp        RMS Disp  ~
  --------------------------------------------------------------------------------------------------------------- ~
      1    -652.862261190725   -652.862261190725      0.02316681      0.00676485      0.04728600      0.00959493  ~
      2    -652.867661413462     -0.005400222737      0.01886695      0.00378153      0.07038638      0.00959054  ~
      3    -652.870559347091     -0.002897933629      0.01393003      0.00203547      0.08457365      0.00958219  ~
      4    -652.872130945042     -0.001571597951      0.00961660      0.00116711      0.08831294      0.00958271  ~
      5    -652.873049009732     -0.000918064691      0.00609123      0.00068366      0.08735618      0.00958513  ~
      6    -652.873567359408     -0.000518349675      0.00314004      0.00037628      0.07772806      0.00959095  ~
      7    -652.873793327159     -0.000225967751      0.00088708      0.00017558      0.02774461      0.00402130  ~
      8    -652.873816026169     -0.000022699010      0.00043818      0.00008788      0.00329772      0.00067999  ~
      9    -652.873812269077      0.000003757092      0.00032729      0.00005312      0.00121034      0.00032770  ~
     10    -652.873810538299      0.000001730778      0.00032779      0.00005008      0.00139278      0.00036979  ~
     11    -652.873808419428      0.000002118871      0.00032055      0.00004964      0.00203181      0.00056540  ~
     12    -652.873807362293      0.000001057135      0.00035232      0.00005514      0.00535355      0.00155102  ~
     13    -652.873802362517      0.000004999776      0.00035720      0.00008219      0.01121452      0.00270522  ~
     14    -652.873792692011      0.000009670506      0.00020119      0.00006276      0.00703449      0.00171275  ~
     15    -652.873797007835     -0.000004315825      0.00009689      0.00001786      0.00043368      0.00014987  ~
  --------------------------------------------------------------------------------------------------------------- ~

	Writing optimization data to binary file.
	Final energy is   -652.8737970078355
	Final (previous) structure:
	Cartesian Geometry (in Angstrom)
	    C    -1.3457891871   0.6896468996  -0.7376964110
	    C    -2.4121339470   1.2993831853  -0.1086761569
	    C     1.7607446409  -1.3786953755  -0.1844629740
	    C     1.0892482529  -0.1649143434  -2.0985001112
	    C    -1.4338235061   0.7629502678   2.0053158959
	    C     2.8116616708  -1.8776457019  -0.9381442601
	    C     2.1686162496  -0.7127733783  -2.7694198246
	    C    -0.2901778190   0.0837457912  -0.0452498864
	    C     0.8432100952  -0.5027845732  -0.7665804181
	    C    -2.4616946386   1.3372106052   1.2772338383
	    C    -0.3846301952   0.1601174036   1.3412753790
	    N     3.0337511994  -1.5653220371  -2.2156234835
	    O    -3.5301219958   1.9438642270   1.8563816030
	    F     0.5944038994  -0.3387437851   2.1222198379
	    H    -1.3502956848   0.6508768261  -1.8147204793
	    H    -3.2129992548   1.7419724433  -0.6785548843
	    H     1.6551477883  -1.6992905706   0.8358238672
	    H     0.4651877046   0.5425976482  -2.6196511676
	    H    -1.4208112505   0.7779480500   3.0845081045
	    H     3.5127668108  -2.5649040984  -0.4854490002
	    H     2.3505136139  -0.4471499423  -3.8014873046
	    H    -3.4415725313   1.8989786999   2.8133392052
	Saving final (previous) structure.
			--------------------------
			 OPTKING Finished Execution 
			--------------------------

    Final optimized geometry and variables:
    Molecular point group: c1
    Full point group: C1

    Geometry (in Angstrom), charge = 0, multiplicity = 1:

    C           -1.345789187067     0.689646899609    -0.737696411041
    C           -2.412133946999     1.299383185259    -0.108676156947
    C            1.760744640889    -1.378695375482    -0.184462974048
    C            1.089248252923    -0.164914343362    -2.098500111212
    C           -1.433823506146     0.762950267818     2.005315895850
    C            2.811661670781    -1.877645701922    -0.938144260109
    C            2.168616249590    -0.712773378345    -2.769419824585
    C           -0.290177819019     0.083745791191    -0.045249886391
    C            0.843210095182    -0.502784573176    -0.766580418110
    C           -2.461694638614     1.337210605236     1.277233838253
    C           -0.384630195242     0.160117403582     1.341275379036
    N            3.033751199396    -1.565322037062    -2.215623483478
    O           -3.530121995812     1.943864226972     1.856381602984
    F            0.594403899391    -0.338743785080     2.122219837916
    H           -1.350295684800     0.650876826066    -1.814720479274
    H           -3.212999254767     1.741972443265    -0.678554884304
    H            1.655147788271    -1.699290570622     0.835823867248
    H            0.465187704577     0.542597648238    -2.619651167550
    H           -1.420811250485     0.777948050040     3.084508104456
    H            3.512766810814    -2.564904098350    -0.485449000166
    H            2.350513613857    -0.447149942271    -3.801487304637
    H           -3.441572531261     1.898978699935     2.813339205230

	Cleaning optimization helper files.

*** Psi4 exiting successfully. Buy a developer a beer!
