
    -----------------------------------------------------------------------
          Psi4: An Open-Source Ab Initio Electronic Structure Package
                               Psi4 1.1 release

                         Git: Rev {HEAD} add49b9 


    R. M. Parrish, L. A. Burns, D. G. A. Smith, A. C. Simmonett,
    A. E. DePrince III, E. G. Hohenstein, U. Bozkaya, A. Yu. Sokolov,
    R. Di Remigio, R. M. Richard, J. F. Gonthier, A. M. James,
    H. R. McAlexander, A. Kumar, M. Saitow, X. Wang, B. P. Pritchard,
    P. Verma, H. F. Schaefer III, K. Patkowski, R. A. King, E. F. Valeev,
    F. A. Evangelista, J. M. Turney, T. D. Crawford, and C. D. Sherrill,
    J. Chem. Theory Comput. in press (2017).
    (doi: 10.1021/acs.jctc.7b00174)

    -----------------------------------------------------------------------


    Psi4 started on: Sunday, 12 November 2017 02:37PM

    Process ID:  16448
    PSIDATADIR: /cbio/jclab/home/chayas/anaconda/envs/py35/share/psi4
    Memory:     500.0 MiB
    Threads:    8
    
  ==> Input File <==

--------------------------------------------------------------------------

memory 5 Gb

molecule phepyrOH_neutral {
  symmetry C1
  0 1 
  C      1.885   -1.036   -0.112
  C      2.878   -1.652   2.002
  C      0.807   -0.463   0.561
  C      1.800   -1.079   2.676
  C      3.862   -2.773   -1.356
  C      5.298   -2.250   0.501
  C      4.965   -3.329   -1.983
  C      6.337   -2.829   -0.209
  C      2.921   -1.631   0.608
  C      4.040   -2.225   -0.090
  C      0.764   -0.484   1.955
  N      6.202   -3.372   -1.440
  O      -0.288   0.076   2.612
  H      1.904   -1.012   -1.199
  H      3.678   -2.112   2.578
  H      0.003   -0.001   -0.006
  H      1.772   -1.098   3.762
  H      2.895   -2.772   -1.850
  H      5.475   -1.833   1.487
  H      4.879   -3.768   -2.972
  H      7.337   -2.875   0.208
  H      -0.652   0.814   2.097
  units Angstrom
}

dih_string = "3 11 13 22 330"
set optking fixed_dihedral = $dih_string

optimize('MP2/aug-cc-PVTZ')
--------------------------------------------------------------------------

  Memory set to   4.657 GiB by Python driver.
gradient() will perform analytic gradient computation.

*** tstart() called on gpu-2-8.local
*** at Sun Nov 12 14:37:01 2017

    SCF Algorithm Type (re)set to DF.

*** tstart() called on gpu-2-8.local
*** at Sun Nov 12 14:37:01 2017

   => Loading Basis Set <=

    Name: AUG-CC-PVTZ
    Role: ORBITAL
    Keyword: BASIS
    atoms 1-11  entry C          line   221 file /cbio/jclab/home/chayas/anaconda/envs/py35/share/psi4/basis/aug-cc-pvtz.gbs 
    atoms 12    entry N          line   267 file /cbio/jclab/home/chayas/anaconda/envs/py35/share/psi4/basis/aug-cc-pvtz.gbs 
    atoms 13    entry O          line   313 file /cbio/jclab/home/chayas/anaconda/envs/py35/share/psi4/basis/aug-cc-pvtz.gbs 
    atoms 14-22 entry H          line    34 file /cbio/jclab/home/chayas/anaconda/envs/py35/share/psi4/basis/aug-cc-pvtz.gbs 


         ---------------------------------------------------------
                                   SCF
            by Justin Turney, Rob Parrish, and Andy Simmonett
                              RHF Reference
                        8 Threads,   4768 MiB Core
         ---------------------------------------------------------

  ==> Geometry <==

    Molecular point group: c1
    Full point group: C1

    Geometry (in Angstrom), charge = 0, multiplicity = 1:

       Center              X                  Y                   Z               Mass       
    ------------   -----------------  -----------------  -----------------  -----------------
           C         -1.250757620284     0.704744750691    -0.581913821829    12.000000000000
           C         -0.257757620284     0.088744750691     1.532086178171    12.000000000000
           C         -2.328757620284     1.277744750691     0.091086178171    12.000000000000
           C         -1.335757620284     0.661744750691     2.206086178171    12.000000000000
           C          0.726242379716    -1.032255249309    -1.825913821829    12.000000000000
           C          2.162242379716    -0.509255249309     0.031086178171    12.000000000000
           C          1.829242379716    -1.588255249309    -2.452913821829    12.000000000000
           C          3.201242379716    -1.088255249309    -0.678913821829    12.000000000000
           C         -0.214757620284     0.109744750691     0.138086178171    12.000000000000
           C          0.904242379716    -0.484255249309    -0.559913821829    12.000000000000
           C         -2.371757620284     1.256744750691     1.485086178171    12.000000000000
           N          3.066242379716    -1.631255249309    -1.909913821829    14.003074004780
           O         -3.423757620284     1.816744750691     2.142086178171    15.994914619560
           H         -1.231757620284     0.728744750691    -1.668913821829     1.007825032070
           H          0.542242379716    -0.371255249309     2.108086178171     1.007825032070
           H         -3.132757620284     1.739744750691    -0.475913821829     1.007825032070
           H         -1.363757620284     0.642744750691     3.292086178171     1.007825032070
           H         -0.240757620284    -1.031255249309    -2.319913821829     1.007825032070
           H          2.339242379716    -0.092255249309     1.017086178171     1.007825032070
           H          1.743242379716    -2.027255249309    -3.441913821829     1.007825032070
           H          4.201242379716    -1.134255249309    -0.261913821829     1.007825032070
           H         -3.787757620284     2.554744750691     1.627086178171     1.007825032070

  Running in c1 symmetry.

  Rotational constants: A =      0.09693  B =      0.01354  C =      0.01209 [cm^-1]
  Rotational constants: A =   2905.96725  B =    406.02815  C =    362.38761 [MHz]
  Nuclear repulsion =  698.558423691637586

  Charge       = 0
  Multiplicity = 1
  Electrons    = 90
  Nalpha       = 45
  Nbeta        = 45

  ==> Algorithm <==

  SCF Algorithm Type is DF.
  DIIS enabled.
  MOM disabled.
  Fractional occupation disabled.
  Guess Type is SAD.
  Energy threshold   = 1.00e-10
  Density threshold  = 1.00e-10
  Integral threshold = 0.00e+00

  ==> Primary Basis <==

  Basis Set: AUG-CC-PVTZ
    Blend: AUG-CC-PVTZ
    Number of shells: 263
    Number of basis function: 805
    Number of Cartesian functions: 940
    Spherical Harmonics?: true
    Max angular momentum: 3

   => Loading Basis Set <=

    Name: (AUG-CC-PVTZ AUX)
    Role: JKFIT
    Keyword: DF_BASIS_SCF
    atoms 1-11  entry C          line   161 file /cbio/jclab/home/chayas/anaconda/envs/py35/share/psi4/basis/aug-cc-pvtz-jkfit.gbs 
    atoms 12    entry N          line   223 file /cbio/jclab/home/chayas/anaconda/envs/py35/share/psi4/basis/aug-cc-pvtz-jkfit.gbs 
    atoms 13    entry O          line   285 file /cbio/jclab/home/chayas/anaconda/envs/py35/share/psi4/basis/aug-cc-pvtz-jkfit.gbs 
    atoms 14-22 entry H          line    69 file /cbio/jclab/home/chayas/anaconda/envs/py35/share/psi4/basis/aug-cc-pvtz-jkfit.gbs 

  ==> Pre-Iterations <==

   -------------------------------------------------------
    Irrep   Nso     Nmo     Nalpha   Nbeta   Ndocc  Nsocc
   -------------------------------------------------------
     A        805     805       0       0       0       0
   -------------------------------------------------------
    Total     805     805      45      45      45       0
   -------------------------------------------------------

  ==> Integral Setup <==

  ==> DFJK: Density-Fitted J/K Matrices <==

    J tasked:                  Yes
    K tasked:                  Yes
    wK tasked:                  No
    OpenMP threads:              8
    Integrals threads:           8
    Memory (MB):              3576
    Algorithm:                Disk
    Integral Cache:           NONE
    Schwarz Cutoff:          1E-12
    Fitting Condition:       1E-12

   => Auxiliary Basis Set <=

  Basis Set: (AUG-CC-PVTZ AUX)
    Blend: AUG-CC-PVTZ-JKFIT
    Number of shells: 516
    Number of basis function: 1766
    Number of Cartesian functions: 2198
    Spherical Harmonics?: true
    Max angular momentum: 4

  Minimum eigenvalue in the overlap matrix is 6.1685338409E-07.
  Using Symmetric Orthogonalization.

  SCF Guess: Superposition of Atomic Densities via on-the-fly atomic UHF.

  ==> Iterations <==

                           Total Energy        Delta E     RMS |[F,P]|

   @DF-RHF iter   0:  -556.75806999824283   -5.56758e+02   2.21559e-02 
   @DF-RHF iter   1:  -550.90673089061204    5.85134e+00   2.30054e-03 
   @DF-RHF iter   2:  -551.22307964432628   -3.16349e-01   8.70583e-04 DIIS
   @DF-RHF iter   3:  -551.26937131177817   -4.62917e-02   3.20842e-04 DIIS
   @DF-RHF iter   4:  -551.28263217317317   -1.32609e-02   1.22766e-04 DIIS
   @DF-RHF iter   5:  -551.28407746174003   -1.44529e-03   4.72191e-05 DIIS
   @DF-RHF iter   6:  -551.28436818394141   -2.90722e-04   1.26113e-05 DIIS
   @DF-RHF iter   7:  -551.28440908648031   -4.09025e-05   6.76078e-06 DIIS
   @DF-RHF iter   8:  -551.28441312038876   -4.03391e-06   1.58987e-06 DIIS
   @DF-RHF iter   9:  -551.28441373476778   -6.14379e-07   1.00710e-06 DIIS
   @DF-RHF iter  10:  -551.28441391363219   -1.78864e-07   4.91083e-07 DIIS
   @DF-RHF iter  11:  -551.28441397402901   -6.03968e-08   1.28029e-07 DIIS
   @DF-RHF iter  12:  -551.28441398257326   -8.54425e-09   5.10517e-08 DIIS
   @DF-RHF iter  13:  -551.28441398339680   -8.23547e-10   2.34741e-08 DIIS
   @DF-RHF iter  14:  -551.28441398348593   -8.91305e-11   9.98685e-09 DIIS
   @DF-RHF iter  15:  -551.28441398351845   -3.25144e-11   4.46170e-09 DIIS
   @DF-RHF iter  16:  -551.28441398350833    1.01181e-11   2.53161e-09 DIIS
   @DF-RHF iter  17:  -551.28441398352504   -1.67120e-11   1.10022e-09 DIIS
   @DF-RHF iter  18:  -551.28441398353652   -1.14824e-11   5.74810e-10 DIIS
   @DF-RHF iter  19:  -551.28441398352822    8.29914e-12   2.15822e-10 DIIS
   @DF-RHF iter  20:  -551.28441398353789   -9.66338e-12   9.12427e-11 DIIS

  ==> Post-Iterations <==

    Orbital Energies (a.u.)
    -----------------------

    Doubly Occupied:                                                      

       1A    -20.598300     2A    -15.561453     3A    -11.314104  
       4A    -11.273934     5A    -11.273887     6A    -11.263172  
       7A    -11.254461     8A    -11.253480     9A    -11.245582  
      10A    -11.245262    11A    -11.243030    12A    -11.236060  
      13A    -11.235857    14A     -1.414225    15A     -1.248336  
      16A     -1.174139    17A     -1.103936    18A     -1.039482  
      19A     -1.028401    20A     -1.009293    21A     -0.881232  
      22A     -0.873290    23A     -0.837953    24A     -0.810560  
      25A     -0.748673    26A     -0.724585    27A     -0.683967  
      28A     -0.665139    29A     -0.650403    30A     -0.632264  
      31A     -0.622530    32A     -0.610459    33A     -0.598658  
      34A     -0.591671    35A     -0.567172    36A     -0.542229  
      37A     -0.529675    38A     -0.522307    39A     -0.497819  
      40A     -0.496200    41A     -0.417330    42A     -0.396872  
      43A     -0.355356    44A     -0.348923    45A     -0.307718  

    Virtual:                                                              

      46A      0.021873    47A      0.029285    48A      0.032014  
      49A      0.039222    50A      0.042926    51A      0.044409  
      52A      0.054941    53A      0.056440    54A      0.062314  
      55A      0.076530    56A      0.078708    57A      0.083080  
      58A      0.087390    59A      0.094116    60A      0.095600  
      61A      0.102615    62A      0.104886    63A      0.108355  
      64A      0.111501    65A      0.112476    66A      0.114696  
      67A      0.120233    68A      0.121114    69A      0.125890  
      70A      0.129280    71A      0.132826    72A      0.134467  
      73A      0.136684    74A      0.142646    75A      0.147866  
      76A      0.148644    77A      0.151912    78A      0.153836  
      79A      0.157350    80A      0.163069    81A      0.168422  
      82A      0.173506    83A      0.175471    84A      0.183295  
      85A      0.184269    86A      0.186721    87A      0.201585  
      88A      0.204211    89A      0.213375    90A      0.216478  
      91A      0.220736    92A      0.225277    93A      0.226881  
      94A      0.236025    95A      0.241101    96A      0.242202  
      97A      0.246108    98A      0.250217    99A      0.252809  
     100A      0.256688   101A      0.259679   102A      0.265443  
     103A      0.265614   104A      0.270633   105A      0.274266  
     106A      0.275625   107A      0.285420   108A      0.288691  
     109A      0.291963   110A      0.296490   111A      0.299442  
     112A      0.301956   113A      0.305508   114A      0.312770  
     115A      0.317299   116A      0.321176   117A      0.322954  
     118A      0.327698   119A      0.329978   120A      0.333941  
     121A      0.339590   122A      0.342743   123A      0.349517  
     124A      0.356650   125A      0.361183   126A      0.365882  
     127A      0.369317   128A      0.374438   129A      0.386115  
     130A      0.387108   131A      0.395735   132A      0.397796  
     133A      0.401472   134A      0.411276   135A      0.418998  
     136A      0.421670   137A      0.424723   138A      0.427548  
     139A      0.430291   140A      0.434743   141A      0.437544  
     142A      0.439795   143A      0.445545   144A      0.448320  
     145A      0.450464   146A      0.451560   147A      0.457410  
     148A      0.460995   149A      0.466449   150A      0.467657  
     151A      0.474645   152A      0.475389   153A      0.484068  
     154A      0.486612   155A      0.488588   156A      0.492868  
     157A      0.498803   158A      0.502229   159A      0.504456  
     160A      0.506272   161A      0.508579   162A      0.512138  
     163A      0.514186   164A      0.518940   165A      0.520366  
     166A      0.526308   167A      0.527640   168A      0.532574  
     169A      0.535691   170A      0.538805   171A      0.543676  
     172A      0.548178   173A      0.552631   174A      0.553719  
     175A      0.558709   176A      0.563038   177A      0.569210  
     178A      0.579142   179A      0.582297   180A      0.585985  
     181A      0.592528   182A      0.599142   183A      0.604183  
     184A      0.613710   185A      0.614065   186A      0.624469  
     187A      0.628577   188A      0.633924   189A      0.637375  
     190A      0.641141   191A      0.651627   192A      0.657633  
     193A      0.666352   194A      0.677136   195A      0.685102  
     196A      0.688982   197A      0.692337   198A      0.700721  
     199A      0.702794   200A      0.708151   201A      0.710480  
     202A      0.718616   203A      0.723535   204A      0.729454  
     205A      0.734174   206A      0.738420   207A      0.744290  
     208A      0.750890   209A      0.756347   210A      0.759773  
     211A      0.765344   212A      0.770072   213A      0.775718  
     214A      0.780260   215A      0.793387   216A      0.801332  
     217A      0.805314   218A      0.809344   219A      0.819952  
     220A      0.823531   221A      0.829955   222A      0.836295  
     223A      0.839363   224A      0.844084   225A      0.851479  
     226A      0.855332   227A      0.860720   228A      0.865783  
     229A      0.873508   230A      0.879785   231A      0.880229  
     232A      0.883490   233A      0.885301   234A      0.894437  
     235A      0.897462   236A      0.900823   237A      0.907620  
     238A      0.909079   239A      0.916769   240A      0.919375  
     241A      0.926796   242A      0.932919   243A      0.939918  
     244A      0.940720   245A      0.947287   246A      0.954331  
     247A      0.960250   248A      0.964022   249A      0.967214  
     250A      0.972777   251A      0.973640   252A      0.982254  
     253A      0.984430   254A      0.986985   255A      0.989961  
     256A      0.998893   257A      0.999356   258A      1.008109  
     259A      1.009890   260A      1.013221   261A      1.017138  
     262A      1.022577   263A      1.024799   264A      1.027991  
     265A      1.033495   266A      1.036178   267A      1.040382  
     268A      1.044104   269A      1.048352   270A      1.052321  
     271A      1.056669   272A      1.066211   273A      1.070706  
     274A      1.080343   275A      1.084735   276A      1.087524  
     277A      1.092319   278A      1.095183   279A      1.097598  
     280A      1.101608   281A      1.104461   282A      1.107309  
     283A      1.113951   284A      1.116289   285A      1.119673  
     286A      1.122604   287A      1.135627   288A      1.139202  
     289A      1.144865   290A      1.153215   291A      1.159359  
     292A      1.161169   293A      1.165202   294A      1.169556  
     295A      1.174155   296A      1.180215   297A      1.182831  
     298A      1.187782   299A      1.192455   300A      1.197051  
     301A      1.200219   302A      1.210312   303A      1.214345  
     304A      1.216492   305A      1.220719   306A      1.224722  
     307A      1.226009   308A      1.236255   309A      1.240191  
     310A      1.249484   311A      1.261665   312A      1.269853  
     313A      1.272339   314A      1.277585   315A      1.284014  
     316A      1.287914   317A      1.296736   318A      1.300727  
     319A      1.308047   320A      1.308926   321A      1.318546  
     322A      1.328475   323A      1.330750   324A      1.335306  
     325A      1.343383   326A      1.347017   327A      1.357497  
     328A      1.363755   329A      1.371791   330A      1.379693  
     331A      1.384268   332A      1.397997   333A      1.407065  
     334A      1.409098   335A      1.417915   336A      1.432976  
     337A      1.444910   338A      1.451419   339A      1.457863  
     340A      1.458812   341A      1.461312   342A      1.476172  
     343A      1.490638   344A      1.496812   345A      1.501818  
     346A      1.512825   347A      1.518217   348A      1.520295  
     349A      1.530361   350A      1.536347   351A      1.539118  
     352A      1.543291   353A      1.554787   354A      1.579270  
     355A      1.586533   356A      1.591107   357A      1.605043  
     358A      1.607609   359A      1.609856   360A      1.619793  
     361A      1.631958   362A      1.636150   363A      1.647632  
     364A      1.654299   365A      1.664531   366A      1.672213  
     367A      1.677148   368A      1.686866   369A      1.694589  
     370A      1.704355   371A      1.713424   372A      1.714691  
     373A      1.717833   374A      1.720817   375A      1.732217  
     376A      1.735246   377A      1.742007   378A      1.744375  
     379A      1.756658   380A      1.772877   381A      1.782693  
     382A      1.786006   383A      1.787527   384A      1.802659  
     385A      1.812951   386A      1.818875   387A      1.826410  
     388A      1.828313   389A      1.837377   390A      1.842604  
     391A      1.849678   392A      1.861234   393A      1.865514  
     394A      1.872758   395A      1.881163   396A      1.897962  
     397A      1.906108   398A      1.910067   399A      1.911123  
     400A      1.931127   401A      1.938461   402A      1.943974  
     403A      1.948665   404A      1.963744   405A      1.965728  
     406A      1.971903   407A      1.979033   408A      1.985430  
     409A      1.996971   410A      2.005801   411A      2.008673  
     412A      2.014677   413A      2.021431   414A      2.034693  
     415A      2.044836   416A      2.047001   417A      2.056400  
     418A      2.065086   419A      2.067912   420A      2.072316  
     421A      2.079953   422A      2.090664   423A      2.102517  
     424A      2.104501   425A      2.107966   426A      2.114818  
     427A      2.120870   428A      2.132917   429A      2.138505  
     430A      2.143519   431A      2.149237   432A      2.156492  
     433A      2.166977   434A      2.184125   435A      2.189867  
     436A      2.194574   437A      2.199881   438A      2.208723  
     439A      2.227402   440A      2.230887   441A      2.238900  
     442A      2.249847   443A      2.251103   444A      2.264425  
     445A      2.270985   446A      2.296297   447A      2.304171  
     448A      2.311754   449A      2.312708   450A      2.329190  
     451A      2.343611   452A      2.352627   453A      2.363777  
     454A      2.369175   455A      2.373587   456A      2.378734  
     457A      2.398898   458A      2.402834   459A      2.407718  
     460A      2.409339   461A      2.416721   462A      2.441752  
     463A      2.447396   464A      2.455148   465A      2.466299  
     466A      2.481170   467A      2.496281   468A      2.514474  
     469A      2.519108   470A      2.536953   471A      2.551675  
     472A      2.563054   473A      2.566821   474A      2.573129  
     475A      2.582999   476A      2.585630   477A      2.597734  
     478A      2.621298   479A      2.627284   480A      2.641126  
     481A      2.648590   482A      2.671108   483A      2.691350  
     484A      2.706780   485A      2.728592   486A      2.743040  
     487A      2.751811   488A      2.770379   489A      2.791287  
     490A      2.806990   491A      2.815919   492A      2.824867  
     493A      2.837225   494A      2.857161   495A      2.863612  
     496A      2.876476   497A      2.888481   498A      2.904152  
     499A      2.929179   500A      2.975035   501A      2.991914  
     502A      3.005190   503A      3.028375   504A      3.051627  
     505A      3.060032   506A      3.066594   507A      3.097970  
     508A      3.101110   509A      3.135508   510A      3.165851  
     511A      3.192749   512A      3.208212   513A      3.222282  
     514A      3.224784   515A      3.240613   516A      3.245917  
     517A      3.269387   518A      3.303604   519A      3.311793  
     520A      3.319750   521A      3.326818   522A      3.338063  
     523A      3.345725   524A      3.363685   525A      3.367560  
     526A      3.369455   527A      3.386494   528A      3.401824  
     529A      3.411969   530A      3.422737   531A      3.426203  
     532A      3.432307   533A      3.442135   534A      3.454185  
     535A      3.458186   536A      3.480488   537A      3.485009  
     538A      3.492379   539A      3.500762   540A      3.513999  
     541A      3.520320   542A      3.530423   543A      3.539311  
     544A      3.540663   545A      3.553032   546A      3.558882  
     547A      3.566328   548A      3.578407   549A      3.580171  
     550A      3.589673   551A      3.591754   552A      3.602377  
     553A      3.615303   554A      3.631865   555A      3.639349  
     556A      3.645856   557A      3.653396   558A      3.657315  
     559A      3.677563   560A      3.688507   561A      3.693985  
     562A      3.704081   563A      3.720822   564A      3.731611  
     565A      3.743320   566A      3.753590   567A      3.769523  
     568A      3.779756   569A      3.781182   570A      3.784265  
     571A      3.790033   572A      3.813581   573A      3.816253  
     574A      3.832893   575A      3.835470   576A      3.845655  
     577A      3.851958   578A      3.855997   579A      3.869590  
     580A      3.877913   581A      3.886761   582A      3.891377  
     583A      3.901632   584A      3.910705   585A      3.922248  
     586A      3.935096   587A      3.941452   588A      3.942944  
     589A      3.950802   590A      3.961301   591A      3.967177  
     592A      3.974082   593A      3.983933   594A      3.996912  
     595A      4.002347   596A      4.016094   597A      4.021237  
     598A      4.027119   599A      4.034508   600A      4.038327  
     601A      4.040412   602A      4.042029   603A      4.081875  
     604A      4.094673   605A      4.098478   606A      4.112745  
     607A      4.115764   608A      4.130500   609A      4.134873  
     610A      4.143117   611A      4.152358   612A      4.160689  
     613A      4.163672   614A      4.174459   615A      4.186111  
     616A      4.204570   617A      4.209732   618A      4.213299  
     619A      4.232032   620A      4.234226   621A      4.251987  
     622A      4.256996   623A      4.261962   624A      4.271325  
     625A      4.283982   626A      4.291368   627A      4.307549  
     628A      4.311700   629A      4.316253   630A      4.334496  
     631A      4.338553   632A      4.340790   633A      4.355190  
     634A      4.361362   635A      4.369272   636A      4.383663  
     637A      4.394047   638A      4.398447   639A      4.403881  
     640A      4.407251   641A      4.427902   642A      4.440519  
     643A      4.441764   644A      4.450269   645A      4.457217  
     646A      4.466728   647A      4.475987   648A      4.479380  
     649A      4.499671   650A      4.505194   651A      4.506593  
     652A      4.515189   653A      4.522291   654A      4.537173  
     655A      4.558258   656A      4.568521   657A      4.581754  
     658A      4.589189   659A      4.604578   660A      4.621565  
     661A      4.641230   662A      4.646235   663A      4.669622  
     664A      4.688075   665A      4.698031   666A      4.700305  
     667A      4.715994   668A      4.725625   669A      4.740890  
     670A      4.758940   671A      4.768108   672A      4.796452  
     673A      4.806859   674A      4.815039   675A      4.841419  
     676A      4.845798   677A      4.867656   678A      4.874620  
     679A      4.878592   680A      4.895168   681A      4.914699  
     682A      4.933544   683A      4.941391   684A      4.945358  
     685A      4.962073   686A      4.965467   687A      4.973257  
     688A      4.991393   689A      5.002269   690A      5.026889  
     691A      5.029621   692A      5.039972   693A      5.048845  
     694A      5.056815   695A      5.078183   696A      5.092713  
     697A      5.102571   698A      5.117165   699A      5.121109  
     700A      5.133255   701A      5.143678   702A      5.148901  
     703A      5.159519   704A      5.165567   705A      5.169166  
     706A      5.180194   707A      5.210293   708A      5.222601  
     709A      5.228753   710A      5.237116   711A      5.274274  
     712A      5.280402   713A      5.296219   714A      5.309856  
     715A      5.315672   716A      5.333034   717A      5.357072  
     718A      5.360027   719A      5.381399   720A      5.407107  
     721A      5.417369   722A      5.430084   723A      5.440886  
     724A      5.459134   725A      5.467312   726A      5.486922  
     727A      5.490758   728A      5.525484   729A      5.552554  
     730A      5.558747   731A      5.563314   732A      5.574705  
     733A      5.619715   734A      5.635135   735A      5.641650  
     736A      5.700586   737A      5.710633   738A      5.723408  
     739A      5.757302   740A      5.760438   741A      5.801186  
     742A      5.815565   743A      5.826500   744A      5.850742  
     745A      5.874102   746A      5.879308   747A      5.916168  
     748A      5.931188   749A      5.985949   750A      6.052443  
     751A      6.086779   752A      6.117700   753A      6.156682  
     754A      6.188178   755A      6.217340   756A      6.261579  
     757A      6.281051   758A      6.293304   759A      6.360195  
     760A      6.404517   761A      6.431574   762A      6.468012  
     763A      6.483390   764A      6.502288   765A      6.525678  
     766A      6.598623   767A      6.624228   768A      6.702857  
     769A      6.711448   770A      6.721490   771A      6.742401  
     772A      6.885686   773A      6.887955   774A      6.906548  
     775A      6.919989   776A      6.944773   777A      6.957909  
     778A      6.977122   779A      7.087760   780A      7.104862  
     781A      7.123257   782A      7.241468   783A      7.291931  
     784A      7.399754   785A      7.436215   786A      7.506813  
     787A      7.664865   788A      7.688854   789A      7.776569  
     790A      7.937824   791A      8.342458   792A      8.591005  
     793A     15.628132   794A     16.380652   795A     16.658077  
     796A     16.760627   797A     16.820052   798A     18.433146  
     799A     18.820568   800A     19.173168   801A     19.573410  
     802A     20.057800   803A     20.084543   804A     20.601607  
     805A     21.784411  

    Final Occupation by Irrep:
              A 
    DOCC [    45 ]

  Energy converged.

  @DF-RHF Final Energy:  -551.28441398353789

   => Energetics <=

    Nuclear Repulsion Energy =            698.5584236916375858
    One-Electron Energy =               -2133.8269163895779457
    Two-Electron Energy =                 883.9840787144025853
    DFT Exchange-Correlation Energy =       0.0000000000000000
    Empirical Dispersion Energy =           0.0000000000000000
    PCM Polarization Energy =               0.0000000000000000
    EFP Energy =                            0.0000000000000000
    Total Energy =                       -551.2844139835378883



Properties will be evaluated at   0.000000,   0.000000,   0.000000 Bohr

Properties computed using the SCF density matrix

  Nuclear Dipole Moment: (a.u.)
     X:    -0.8980      Y:     0.9600      Z:    -0.1006

  Electronic Dipole Moment: (a.u.)
     X:    -0.0072      Y:    -0.1399      Z:     0.2433

  Dipole Moment: (a.u.)
     X:    -0.9052      Y:     0.8201      Z:     0.1427     Total:     1.2297

  Dipole Moment: (Debye)
     X:    -2.3007      Y:     2.0845      Z:     0.3627     Total:     3.1257


*** tstop() called on gpu-2-8.local at Sun Nov 12 14:44:43 2017
Module time:
	user time   =    1136.88 seconds =      18.95 minutes
	system time =      50.98 seconds =       0.85 minutes
	total time  =        462 seconds =       7.70 minutes
Total time:
	user time   =    1136.89 seconds =      18.95 minutes
	system time =      50.98 seconds =       0.85 minutes
	total time  =        462 seconds =       7.70 minutes

  //>>>>>>>>>>>>>>>>>>>>>>>>>>>>>>>>>>>//
  //               DFMP2               //
  //<<<<<<<<<<<<<<<<<<<<<<<<<<<<<<<<<<<//

   => Loading Basis Set <=

    Name: (AUG-CC-PVTZ AUX)
    Role: RIFIT
    Keyword: DF_BASIS_MP2
    atoms 1-11  entry C          line   147 file /cbio/jclab/home/chayas/anaconda/envs/py35/share/psi4/basis/aug-cc-pvtz-ri.gbs 
    atoms 12    entry N          line   205 file /cbio/jclab/home/chayas/anaconda/envs/py35/share/psi4/basis/aug-cc-pvtz-ri.gbs 
    atoms 13    entry O          line   263 file /cbio/jclab/home/chayas/anaconda/envs/py35/share/psi4/basis/aug-cc-pvtz-ri.gbs 
    atoms 14-22 entry H          line    29 file /cbio/jclab/home/chayas/anaconda/envs/py35/share/psi4/basis/aug-cc-pvtz-ri.gbs 

	 --------------------------------------------------------
	                          DF-MP2                         
	      2nd-Order Density-Fitted Moller-Plesset Theory     
	              RMP2 Wavefunction,   8 Threads             
	                                                         
	        Rob Parrish, Justin Turney, Andy Simmonett,      
	           Ed Hohenstein, and C. David Sherrill          
	 --------------------------------------------------------

   => Auxiliary Basis Set <=

  Basis Set: (AUG-CC-PVTZ AUX)
    Blend: AUG-CC-PVTZ-RI
    Number of shells: 490
    Number of basis function: 1792
    Number of Cartesian functions: 2263
    Spherical Harmonics?: true
    Max angular momentum: 4

	 --------------------------------------------------------
	                 NBF =   805, NAUX =  1792
	 --------------------------------------------------------
	   CLASS    FOCC     OCC    AOCC    AVIR     VIR    FVIR
	   PAIRS       0      45      45     760     760       0
	 --------------------------------------------------------


         ------------------------------------------------------------
                                     CPHF                           
                                  Rob Parrish                       
         ------------------------------------------------------------

  ==> Geometry <==

    Molecular point group: c1
    Full point group: C1

    Geometry (in Angstrom), charge = 0, multiplicity = 1:

       Center              X                  Y                   Z               Mass       
    ------------   -----------------  -----------------  -----------------  -----------------
           C         -1.250757620284     0.704744750691    -0.581913821829    12.000000000000
           C         -0.257757620284     0.088744750691     1.532086178171    12.000000000000
           C         -2.328757620284     1.277744750691     0.091086178171    12.000000000000
           C         -1.335757620284     0.661744750691     2.206086178171    12.000000000000
           C          0.726242379716    -1.032255249309    -1.825913821829    12.000000000000
           C          2.162242379716    -0.509255249309     0.031086178171    12.000000000000
           C          1.829242379716    -1.588255249309    -2.452913821829    12.000000000000
           C          3.201242379716    -1.088255249309    -0.678913821829    12.000000000000
           C         -0.214757620284     0.109744750691     0.138086178171    12.000000000000
           C          0.904242379716    -0.484255249309    -0.559913821829    12.000000000000
           C         -2.371757620284     1.256744750691     1.485086178171    12.000000000000
           N          3.066242379716    -1.631255249309    -1.909913821829    14.003074004780
           O         -3.423757620284     1.816744750691     2.142086178171    15.994914619560
           H         -1.231757620284     0.728744750691    -1.668913821829     1.007825032070
           H          0.542242379716    -0.371255249309     2.108086178171     1.007825032070
           H         -3.132757620284     1.739744750691    -0.475913821829     1.007825032070
           H         -1.363757620284     0.642744750691     3.292086178171     1.007825032070
           H         -0.240757620284    -1.031255249309    -2.319913821829     1.007825032070
           H          2.339242379716    -0.092255249309     1.017086178171     1.007825032070
           H          1.743242379716    -2.027255249309    -3.441913821829     1.007825032070
           H          4.201242379716    -1.134255249309    -0.261913821829     1.007825032070
           H         -3.787757620284     2.554744750691     1.627086178171     1.007825032070

  Nuclear repulsion =  698.558423691637586
  Reference energy  = -551.284413983537888

  ==> Basis Set <==

  Basis Set: AUG-CC-PVTZ
    Blend: AUG-CC-PVTZ
    Number of shells: 263
    Number of basis function: 805
    Number of Cartesian functions: 940
    Spherical Harmonics?: true
    Max angular momentum: 3

  ==> CGRSolver (by Rob Parrish) <==

   Number of roots    =         1
   Preconditioning    =    JACOBI
   Convergence cutoff =     1E-06
   Maximum iterations =       100

  ==> CPHFRHamiltonian (by Rob Parrish) <== 

  ==> DFJK: Density-Fitted J/K Matrices <==

    J tasked:                  Yes
    K tasked:                  Yes
    wK tasked:                  No
    OpenMP threads:              8
    Integrals threads:           8
    Memory (MB):              3576
    Algorithm:                Disk
    Integral Cache:           NONE
    Schwarz Cutoff:          1E-12
    Fitting Condition:       1E-12

   => Auxiliary Basis Set <=

  Basis Set: (AUG-CC-PVTZ AUX)
    Blend: AUG-CC-PVTZ-JKFIT
    Number of shells: 516
    Number of basis function: 1766
    Number of Cartesian functions: 2198
    Spherical Harmonics?: true
    Max angular momentum: 4

  ==> CPHF Iterations <==

  => Iterations <=

             Iter  Converged  Remaining    Residual
  CGR           1          0          1   9.006E-02
  CGR           2          0          1   3.708E-02
  CGR           3          0          1   2.589E-02
  CGR           4          0          1   1.042E-02
  CGR           5          0          1   4.127E-03
  CGR           6          0          1   1.737E-03
  CGR           7          0          1   4.972E-04
  CGR           8          0          1   1.651E-04
  CGR           9          0          1   8.303E-05
  CGR          10          0          1   3.824E-05
  CGR          11          0          1   1.391E-05
  CGR          12          0          1   5.046E-06
  CGR          13          0          1   1.478E-06
  CGR          14          1          0   4.808E-07

    CGRSolver converged.

  ==> DFCorrGrad: Density-Fitted Correlated Gradients <==

    OpenMP threads:              8
    Integrals threads:           8
    Memory (MB):              3576
    Schwarz Cutoff:          0E+00
    Fitting Condition:       1E-12

   => Auxiliary Basis Set <=

  Basis Set: (AUG-CC-PVTZ AUX)
    Blend: AUG-CC-PVTZ-JKFIT
    Number of shells: 516
    Number of basis function: 1766
    Number of Cartesian functions: 2198
    Spherical Harmonics?: true
    Max angular momentum: 4

	-----------------------------------------------------------
	 ==================> DF-MP2 Energies <==================== 
	-----------------------------------------------------------
	 Reference Energy          =    -551.2844139835378883 [Eh]
	 Singles Energy            =      -0.0000000000000005 [Eh]
	 Same-Spin Energy          =      -0.6051225392810198 [Eh]
	 Opposite-Spin Energy      =      -1.8308297556509978 [Eh]
	 Correlation Energy        =      -2.4359522949320183 [Eh]
	 Total Energy              =    -553.7203662784698963 [Eh]
	-----------------------------------------------------------
	 ================> DF-SCS-MP2 Energies <================== 
	-----------------------------------------------------------
	 SCS Same-Spin Scale       =       0.3333333333333333 [-]
	 SCS Opposite-Spin Scale   =       1.2000000000000000 [-]
	 SCS Same-Spin Energy      =      -0.2017075130936732 [Eh]
	 SCS Opposite-Spin Energy  =      -2.1969957067811974 [Eh]
	 SCS Correlation Energy    =      -2.3987032198748710 [Eh]
	 SCS Total Energy          =    -553.6831172034127349 [Eh]
	-----------------------------------------------------------


  -Total Gradient:
     Atom            X                  Y                   Z
    ------   -----------------  -----------------  -----------------
       1        0.009106169780    -0.003185393649    -0.006385065724
       2        0.010932459773    -0.006499125198    -0.003499001048
       3       -0.007520469663     0.004082952102     0.003581810950
       4       -0.000527957220     0.001685645505    -0.001335545294
       5       -0.009971907145     0.001533714904     0.002132279439
       6       -0.004995917795     0.006230709455     0.007083956778
       7       -0.012695341786     0.002140170783    -0.000224105306
       8       -0.003022692137     0.006937363031     0.011009428028
       9        0.002776167144    -0.001450109533    -0.001682813923
      10        0.004416956442    -0.002010222770    -0.001759115827
      11       -0.003696728707    -0.002944103951     0.010522904905
      12        0.012453103864    -0.006959677475    -0.008090333760
      13        0.003190197601    -0.006893673238    -0.007655185824
      14       -0.001488254349    -0.001010096993    -0.006361090928
      15        0.005557269948    -0.001352017645     0.004083337521
      16       -0.002396041860     0.001609013181    -0.003555094072
      17        0.002331613924    -0.001515401605     0.005261826825
      18       -0.004505583018     0.001219513646    -0.003944714968
      19        0.001095120083     0.000301898129     0.005493268896
      20        0.000490175452    -0.001029253438    -0.002865826421
      21        0.002297962454    -0.000742452068     0.000432540832
      22       -0.003826302801     0.009850546836    -0.002243461085


*** tstop() called on gpu-2-8.local at Sun Nov 12 15:15:44 2017
Module time:
	user time   =    5267.96 seconds =      87.80 minutes
	system time =     109.28 seconds =       1.82 minutes
	total time  =       2323 seconds =      38.72 minutes
Total time:
	user time   =    5267.97 seconds =      87.80 minutes
	system time =     109.28 seconds =       1.82 minutes
	total time  =       2323 seconds =      38.72 minutes

			-----------------------------------------
			 OPTKING 2.0: for geometry optimizations 
			  - R.A. King,  Bethel University        
			-----------------------------------------

	Internal coordinates to be generated automatically.
	Detected frag 1 with atoms:  1 2 3 4 5 6 7 8 9 10 11 12 13 14 15 16 17 18 19 20
	 21 22
	---Fragment 1 Bond Connectivity---
	 1 : 3 9 14
	 2 : 4 9 15
	 3 : 1 11 16
	 4 : 2 11 17
	 5 : 7 10 18
	 6 : 8 10 19
	 7 : 5 12 20
	 8 : 6 12 21
	 9 : 1 2 10
	 10 : 5 6 9
	 11 : 3 4 13
	 12 : 7 8
	 13 : 11 22
	 14 : 1
	 15 : 2
	 16 : 3
	 17 : 4
	 18 : 5
	 19 : 6
	 20 : 7
	 21 : 8
	 22 : 13

	Assuming in current code that numbering for constraints corresponds to unified fragment.
	Fixed dihedral atom list: 
	     3    11    13    22
	---Fragment 1 Geometry and Gradient---
	 C          -2.3635893610        1.3317745724       -1.0996577562
	 C          -0.4870913110        0.1677032745        2.8952232887
	 C          -4.4007141322        2.4145876465        0.1721279312
	 C          -2.5242160823        1.2505163487        4.1688987023
	 C           1.3723992038       -1.9506797204       -3.4504770655
	 C           4.0860459306       -0.9623529529        0.0587443633
	 C           3.4567671283       -3.0013674503       -4.6353353508
	 C           6.0494713827       -2.0565043839       -1.2829611911
	 C          -0.4058330873        0.2073875233        0.2609450595
	 C           1.7087704554       -0.9151097996       -1.0580837813
	 C          -4.4819723559        2.3749033977        2.8064061605
	 N           5.7943583547       -3.0826256740       -3.6092140607
	 O          -6.4699642477        3.4331500322        4.0479562298
	 H          -2.3276845644        1.3771279996       -3.1537900626
	 H           1.0246895953       -0.7015707466        3.9837055413
	 H          -5.9200539430        3.2876411199       -0.8993467861
	 H          -2.5771284140        1.2146115522        6.2211412826
	 H          -0.4549659667       -1.9487899943       -4.3840017752
	 H           4.4205274561       -0.1743371555        1.9220143303
	 H           3.2942506809       -3.8309572226       -6.5042744963
	 H           7.9391975155       -2.1434317860       -0.4949453937
	 H          -7.1578245601        4.8277679182        3.0747472713
	             0.0091061698       -0.0031853936       -0.0063850657
	             0.0109324598       -0.0064991252       -0.0034990010
	            -0.0075204697        0.0040829521        0.0035818110
	            -0.0005279572        0.0016856455       -0.0013355453
	            -0.0099719071        0.0015337149        0.0021322794
	            -0.0049959178        0.0062307095        0.0070839568
	            -0.0126953418        0.0021401708       -0.0002241053
	            -0.0030226921        0.0069373630        0.0110094280
	             0.0027761671       -0.0014501095       -0.0016828139
	             0.0044169564       -0.0020102228       -0.0017591158
	            -0.0036967287       -0.0029441040        0.0105229049
	             0.0124531039       -0.0069596775       -0.0080903338
	             0.0031901976       -0.0068936732       -0.0076551858
	            -0.0014882543       -0.0010100970       -0.0063610909
	             0.0055572699       -0.0013520176        0.0040833375
	            -0.0023960419        0.0016090132       -0.0035550941
	             0.0023316139       -0.0015154016        0.0052618268
	            -0.0045055830        0.0012195136       -0.0039447150
	             0.0010951201        0.0003018981        0.0054932689
	             0.0004901755       -0.0010292534       -0.0028658264
	             0.0022979625       -0.0007424521        0.0004325408
	            -0.0038263028        0.0098505468       -0.0022434611

	Previous optimization step data not found.  Starting new optimization.

	---Fragment 1 Intrafragment Coordinates---
	 - Coordinate -           - BOHR/RAD -       - ANG/DEG -
	 R(1,3)           =         2.634350	       1.394038
	 R(1,9)           =         2.635962	       1.394891
	 R(1,14)          =         2.054947	       1.087431
	 R(2,4)           =         2.635263	       1.394521
	 R(2,9)           =         2.635830	       1.394821
	 R(2,15)          =         2.055702	       1.087831
	 R(3,11)          =         2.635830	       1.394821
	 R(3,16)          =         2.053941	       1.086899
	 R(4,11)          =         2.636938	       1.395407
	 R(4,17)          =         2.053239	       1.086527
	 R(5,7)           =         2.617713	       1.385234
	 R(5,10)          =         2.628516	       1.390951
	 R(5,18)          =         2.052008	       1.085876
	 R(6,8)           =         2.617705	       1.385230
	 R(6,10)          =         2.626971	       1.390133
	 R(6,19)          =         2.050517	       1.085087
	 R(7,12)          =         2.554185	       1.351616
	 R(7,20)          =         2.051235	       1.085467
	 R(8,12)          =         2.555281	       1.352196
	 R(8,21)          =         2.049290	       1.084438
	 R(9,10)          =         2.733384	       1.446444
	 R(11,13)         =         2.571662	       1.360865
	 R(13,22)         =         1.834461	       0.970755
	 B(1,3,11)        =         2.094553	     120.009056
	 B(1,3,16)        =         2.088505	     119.662516
	 B(1,9,2)         =         2.093692	     119.959722
	 B(1,9,10)        =         2.095161	     120.043881
	 B(2,4,11)        =         2.093699	     119.960108
	 B(2,4,17)        =         2.089577	     119.723926
	 B(2,9,10)        =         2.094332	     119.996376
	 B(3,1,9)         =         2.094940	     120.031219
	 B(3,1,14)        =         2.079469	     119.144799
	 B(3,11,4)        =         2.094306	     119.994870
	 B(3,11,13)       =         2.094549	     120.008801
	 B(4,2,9)         =         2.095181	     120.045019
	 B(4,2,15)        =         2.078675	     119.099297
	 B(4,11,13)       =         2.094331	     119.996326
	 B(5,7,12)        =         2.164774	     124.032419
	 B(5,7,20)        =         2.107900	     120.773750
	 B(5,10,6)        =         2.089402	     119.713913
	 B(5,10,9)        =         2.096711	     120.132663
	 B(6,8,12)        =         2.164670	     124.026428
	 B(6,8,21)        =         2.108649	     120.816676
	 B(6,10,9)        =         2.097073	     120.153413
	 B(7,5,10)        =         2.058056	     117.917911
	 B(7,5,18)        =         2.098486	     120.234396
	 B(7,12,8)        =         2.031222	     116.380442
	 B(8,6,10)        =         2.058246	     117.928826
	 B(8,6,19)        =         2.099051	     120.266760
	 B(9,1,14)        =         2.108776	     120.823969
	 B(9,2,15)        =         2.109330	     120.855683
	 B(10,5,18)       =         2.126643	     121.847689
	 B(10,6,19)       =         2.125888	     121.804412
	 B(11,3,16)       =         2.100127	     120.328425
	 B(11,4,17)       =         2.099910	     120.315955
	 B(11,13,22)      =         1.924717	     110.278178
	 B(12,7,20)       =         2.010511	     115.193804
	 B(12,8,21)       =         2.009864	     115.156734
	 D(1,3,11,4)      =        -0.000325	      -0.018609
	 D(1,3,11,13)     =         3.140978	     179.964785
	 D(1,9,2,4)       =         0.000325	       0.018608
	 D(1,9,2,15)      =        -3.141497	    -179.994534
	 D(1,9,10,5)      =        -0.524224	     -30.035797
	 D(1,9,10,6)      =         2.616694	     149.925506
	 D(2,4,11,3)      =         0.000301	       0.017261
	 D(2,4,11,13)     =        -3.141002	    -179.966135
	 D(2,9,1,3)       =        -0.000348	      -0.019945
	 D(2,9,1,14)      =        -3.141221	    -179.978731
	 D(2,9,10,5)      =         2.618285	     150.016707
	 D(2,9,10,6)      =        -0.523983	     -30.021991
	 D(3,1,9,10)      =        -3.141025	    -179.967461
	 D(3,11,4,17)     =         3.141223	     179.978848
	 D(3,11,13,22)    =        -0.523670	     -30.004106
	 D(4,2,9,10)      =         3.141002	     179.966149
	 D(4,11,3,16)     =         3.141593	     180.000000
	 D(4,11,13,22)    =         2.617632	     149.979288
	 D(5,7,12,8)      =        -0.001332	      -0.076323
	 D(5,10,6,8)      =         0.000381	       0.021838
	 D(5,10,6,19)     =        -3.140989	    -179.965395
	 D(6,8,12,7)      =         0.001671	       0.095732
	 D(6,10,5,7)      =        -0.000077	      -0.004437
	 D(6,10,5,18)     =        -3.141299	    -179.983151
	 D(7,5,10,9)      =         3.140843	     179.957036
	 D(7,12,8,21)     =         3.140716	     179.949799
	 D(8,6,10,9)      =        -3.140539	    -179.939628
	 D(8,12,7,20)     =         3.139212	     179.863574
	 D(9,1,3,11)      =         0.000348	       0.019955
	 D(9,1,3,16)      =        -3.141571	    -179.998735
	 D(9,2,4,11)      =        -0.000301	      -0.017270
	 D(9,2,4,17)      =        -3.141228	    -179.979086
	 D(9,10,5,18)     =        -0.000378	      -0.021678
	 D(9,10,6,19)     =         0.001277	       0.073140
	 D(10,5,7,12)     =         0.000580	       0.033223
	 D(10,5,7,20)     =        -3.139908	    -179.903478
	 D(10,6,8,12)     =        -0.001235	      -0.070741
	 D(10,6,8,21)     =        -3.140143	    -179.916933
	 D(10,9,1,14)     =         0.001287	       0.073752
	 D(10,9,2,15)     =        -0.000820	      -0.046992
	 D(11,3,1,14)     =         3.141234	     179.979432
	 D(11,4,2,15)     =         3.141517	     179.995641
	 D(12,7,5,18)     =        -3.141378	    -179.987706
	 D(12,8,6,19)     =         3.140139	     179.916697
	 D(13,11,3,16)    =        -0.000286	      -0.016400
	 D(13,11,4,17)    =        -0.000079	      -0.004548
	 D(14,1,3,16)     =        -0.000685	      -0.039257
	 D(15,2,4,17)     =         0.000590	       0.033826
	 D(18,5,7,20)     =         0.001319	       0.075593
	 D(19,6,8,21)     =         0.001231	       0.070505

	Current energy   :      -553.7203662785

	Generating empirical Hessian (Schlegel '84) for each fragment.
	Adding user-defined constraint: Fragment 1; Coordinate 73:
		Value =    -0.523670; Fixed value    =    -0.523599
		Force =     0.000036; Force constant =     0.500000
	Removing off-diagonal coupling between coordinate 73 and others.
	Taking RFO optimization step.
	Going to follow RFO solution 1.
	Using RFO vector 1.

	Determining step-restricting scale parameter for RS-RFO.
	Maximum step size allowed    0.10000

	 Iter      |step|        alpha        rfo_root  
	------------------------------------------------
	    0     0.28073       1.00000           1
	    1     0.19483       3.63758           1
	    2     0.14797       9.61376           1
	    3     0.11943      21.11930           1
	    4     0.10460      33.38241           1
	    5     0.10035      38.26825           1
	    6     0.10000      38.69623           1
	------------------------------------------------
	Norm of target step-size    0.10000
	Projected energy change by RFO approximation:        -0.0045130221

	Back-transformation to cartesian coordinates...
	Could not converge backtransformation.
	Using first guess instead.

	--- Internal Coordinate Step in ANG or DEG, aJ/ANG or AJ/DEG ---
	 ---------------------------------------------------------------------------
	   Coordinate                Previous        Force       Change         New 
	   ----------                --------       ------       ------       ------
	    1 R(1,3)          =      1.394038    -0.058018    -0.005682     1.388356
	    2 R(1,9)          =      1.394891    -0.009856    -0.000745     1.394146
	    3 R(1,14)         =      1.087431    -0.051989    -0.006221     1.081210
	    4 R(2,4)          =      1.394521    -0.059351    -0.005919     1.388602
	    5 R(2,9)          =      1.394821    -0.000668     0.000205     1.395026
	    6 R(2,15)         =      1.087831    -0.056193    -0.006704     1.081126
	    7 R(3,11)         =      1.394821    -0.039014    -0.003962     1.390859
	    8 R(3,16)         =      1.086899    -0.035517    -0.004253     1.082646
	    9 R(4,11)         =      1.395407    -0.087457    -0.008821     1.386586
	   10 R(4,17)         =      1.086527    -0.043053    -0.005112     1.081415
	   11 R(5,7)          =      1.385234     0.001707     0.000149     1.385383
	   12 R(5,10)         =      1.390951     0.003717     0.000986     1.391936
	   13 R(5,18)         =      1.085876    -0.047850    -0.005670     1.080206
	   14 R(6,8)          =      1.385230     0.001542     0.000141     1.385371
	   15 R(6,10)         =      1.390133     0.009596     0.001481     1.391614
	   16 R(6,19)         =      1.085087    -0.043553    -0.005153     1.079935
	   17 R(7,12)         =      1.351616    -0.123004    -0.011127     1.340489
	   18 R(7,20)         =      1.085467    -0.024621    -0.002919     1.082548
	   19 R(8,12)         =      1.352196    -0.126316    -0.011425     1.340771
	   20 R(8,21)         =      1.084438    -0.019089    -0.002254     1.082184
	   21 R(9,10)         =      1.446444     0.154655     0.017400     1.463844
	   22 R(11,13)        =      1.360865     0.025296     0.002598     1.363463
	   23 R(13,22)        =      0.970755    -0.083324    -0.007453     0.963302
	   24 B(1,3,11)       =    120.009056     0.000115     0.183019   120.192075
	   25 B(1,3,16)       =    119.662516     0.000063     0.172323   119.834839
	   26 B(1,9,2)        =    119.959722    -0.000798    -1.357729   118.601992
	   27 B(1,9,10)       =    120.043881     0.000377     0.639003   120.682884
	   28 B(2,4,11)       =    119.960108     0.000026    -0.009633   119.950476
	   29 B(2,4,17)       =    119.723926     0.000210     0.493451   120.217377
	   30 B(2,9,10)       =    119.996376     0.000421     0.718744   120.715120
	   31 B(3,1,9)        =    120.031219     0.000304     0.585026   120.616245
	   32 B(3,1,14)       =    119.144799    -0.000086    -0.149201   118.995598
	   33 B(3,11,4)       =    119.994870    -0.000126    -0.283403   119.711467
	   34 B(3,11,13)      =    120.008801     0.000820     1.454265   121.463066
	   35 B(4,2,9)        =    120.045019     0.000478     0.882510   120.927529
	   36 B(4,2,15)       =    119.099297    -0.000200    -0.357841   118.741456
	   37 B(4,11,13)      =    119.996326    -0.000694    -1.172277   118.824049
	   38 B(5,7,12)       =    124.032419     0.000044     0.002129   124.034547
	   39 B(5,7,20)       =    120.773750    -0.000074    -0.115450   120.658299
	   40 B(5,10,6)       =    119.713913    -0.001210    -1.990481   117.723432
	   41 B(5,10,9)       =    120.132663     0.000607     1.000174   121.132837
	   42 B(6,8,12)       =    124.026428     0.000042     0.002988   124.029416
	   43 B(6,8,21)       =    120.816676    -0.000078    -0.126672   120.690004
	   44 B(6,10,9)       =    120.153413     0.000603     0.990307   121.143720
	   45 B(7,5,10)       =    117.917911     0.000533     1.042629   118.960540
	   46 B(7,5,18)       =    120.234396    -0.000209    -0.400142   119.834255
	   47 B(7,12,8)       =    116.380442     0.000061    -0.095292   116.285150
	   48 B(8,6,10)       =    117.928826     0.000530     1.038042   118.966868
	   49 B(8,6,19)       =    120.266760    -0.000216    -0.413691   119.853070
	   50 B(9,1,14)       =    120.823969    -0.000218    -0.435966   120.388003
	   51 B(9,2,15)       =    120.855683    -0.000278    -0.525017   120.330665
	   52 B(10,5,18)      =    121.847689    -0.000324    -0.642922   121.204768
	   53 B(10,6,19)      =    121.804412    -0.000314    -0.624793   121.179619
	   54 B(11,3,16)      =    120.328425    -0.000178    -0.355368   119.973057
	   55 B(11,4,17)      =    120.315955    -0.000235    -0.483838   119.832116
	   56 B(11,13,22)     =    110.278178    -0.000361    -0.784826   109.493352
	   57 B(12,7,20)      =    115.193804     0.000030     0.113313   115.307117
	   58 B(12,8,21)      =    115.156734     0.000036     0.123847   115.280581
	   59 D(1,3,11,4)     =     -0.018609    -0.000009    -0.162530    -0.181139
	   60 D(1,3,11,13)    =    179.964785     0.000017     0.292264   180.257049
	   61 D(1,9,2,4)      =      0.018608    -0.000004    -0.063867    -0.045259
	   62 D(1,9,2,15)     =   -179.994534    -0.000016    -0.268552  -180.263086
	   63 D(1,9,10,5)     =    -30.035797    -0.000027    -0.457843   -30.493639
	   64 D(1,9,10,6)     =    149.925506    -0.000027    -0.458056   149.467450
	   65 D(2,4,11,3)     =      0.017261     0.000006     0.112205     0.129467
	   66 D(2,4,11,13)    =   -179.966135    -0.000020    -0.331019  -180.297154
	   67 D(2,9,1,3)      =     -0.019945     0.000001     0.013404    -0.006541
	   68 D(2,9,1,14)     =   -179.978731    -0.000011    -0.171854  -180.150585
	   69 D(2,9,10,5)     =    150.016707    -0.000029    -0.488638   149.528068
	   70 D(2,9,10,6)     =    -30.021991    -0.000029    -0.488852   -30.510843
	   71 D(3,1,9,10)     =   -179.967461    -0.000001    -0.017824  -179.985285
	   72 D(3,11,4,17)    =    179.978848     0.000012     0.214902   180.193750
	   73 D(3,11,13,22)   =    -30.004106     0.000013     0.089282   -29.914823
	   74 D(4,2,9,10)     =    179.966149    -0.000002    -0.032671   179.933478
	   75 D(4,11,3,16)    =    180.000000    -0.000006    -0.118833   179.881167
	   76 D(4,11,13,22)   =    149.979288     0.000039     0.540289   150.519578
	   77 D(5,7,12,8)     =     -0.076323     0.000001     0.018298    -0.058025
	   78 D(5,10,6,8)     =      0.021838     0.000000    -0.000351     0.021486
	   79 D(5,10,6,19)    =   -179.965395    -0.000016    -0.255766  -180.221161
	   80 D(6,8,12,7)     =      0.095732    -0.000001    -0.010754     0.084979
	   81 D(6,10,5,7)     =     -0.004437     0.000000     0.007359     0.002922
	   82 D(6,10,5,18)    =   -179.983151    -0.000016    -0.255004  -180.238156
	   83 D(7,5,10,9)     =    179.957036     0.000000     0.008265   179.965301
	   84 D(7,12,8,21)    =    179.949799     0.000008     0.130489   180.080287
	   85 D(8,6,10,9)     =   -179.939628    -0.000000    -0.001260  -179.940888
	   86 D(8,12,7,20)    =    179.863574     0.000009     0.147056   180.010630
	   87 D(9,1,3,11)     =      0.019955     0.000006     0.099910     0.119865
	   88 D(9,1,3,16)     =   -179.998735     0.000003     0.056380  -179.942355
	   89 D(9,2,4,11)     =     -0.017270     0.000000     0.000949    -0.016321
	   90 D(9,2,4,17)     =   -179.979086    -0.000006    -0.101769  -180.080855
	   91 D(9,10,5,18)    =     -0.021678    -0.000016    -0.254099    -0.275777
	   92 D(9,10,6,19)    =      0.073140    -0.000016    -0.256675    -0.183535
	   93 D(10,5,7,12)    =      0.033223    -0.000001    -0.017083     0.016139
	   94 D(10,5,7,20)    =   -179.903478    -0.000009    -0.152533  -180.056011
	   95 D(10,6,8,12)    =     -0.070741     0.000000     0.001740    -0.069000
	   96 D(10,6,8,21)    =   -179.916933    -0.000009    -0.147134  -180.064067
	   97 D(10,9,1,14)    =      0.073752    -0.000013    -0.203081    -0.129329
	   98 D(10,9,2,15)    =     -0.046992    -0.000015    -0.237357    -0.284349
	   99 D(11,3,1,14)    =    179.979432     0.000017     0.282494   180.261926
	  100 D(11,4,2,15)    =    179.995641     0.000013     0.202468   180.198109
	  101 D(12,7,5,18)    =   -179.987706     0.000015     0.241547  -179.746159
	  102 D(12,8,6,19)    =    179.916697     0.000016     0.253661   180.170358
	  103 D(13,11,3,16)   =     -0.016400     0.000019     0.335755     0.319356
	  104 D(13,11,4,17)   =     -0.004548    -0.000013    -0.228323    -0.232871
	  105 D(14,1,3,16)    =     -0.039257     0.000015     0.238963     0.199707
	  106 D(15,2,4,17)    =      0.033826     0.000006     0.099750     0.133576
	  107 D(18,5,7,20)    =      0.075593     0.000007     0.106097     0.181690
	  108 D(19,6,8,21)    =      0.070505     0.000006     0.104786     0.175291
	 ---------------------------------------------------------------------------
	Successfully symmetrized geometry.
	 Forces used to impose fixed constraints are not included.
	  Forces zeroed: 73 

  ==> Convergence Check <==

  Measures of convergence in internal coordinates in au.
  Criteria marked as inactive (o), active & met (*), and active & unmet ( ).
  --------------------------------------------------------------------------------------------- ~
   Step     Total Energy     Delta E     MAX Force     RMS Force      MAX Disp      RMS Disp    ~
  --------------------------------------------------------------------------------------------- ~
    Convergence Criteria    1.00e-06 *    3.00e-04 *             o    1.20e-03 *             o  ~
  --------------------------------------------------------------------------------------------- ~
      1    -553.72036628   -5.54e+02      1.88e-02      4.75e-03 o    3.47e-02      9.61e-03 o  ~
  ---------------------------------------------------------------------------------------------

	Writing optimization data to binary file.
	Structure for next step:
	Cartesian Geometry (in Angstrom)
	    C    -1.2633610830   0.7182553742  -0.5697118726
	    C    -0.2876238104   0.1008308630   1.5323280373
	    C    -2.3373197125   1.2897662385   0.0992569309
	    C    -1.3598051375   0.6724709007   2.2045411032
	    C     0.7547539091  -1.0466184144  -1.8299636868
	    C     2.1768197077  -0.5184492979   0.0071747718
	    C     1.8579410822  -1.6043687214  -2.4554062289
	    C     3.2173521098  -1.0990443809  -0.6995455430
	    C    -0.2245146241   0.1162325242   0.1388153596
	    C     0.9086888949  -0.4865095235  -0.5650254875
	    C    -2.3865838201   1.2695347836   1.4890955849
	    N     3.0852590397  -1.6433074448  -1.9177397139
	    O    -3.4311702850   1.8183394659   2.1722382362
	    H    -1.2427163334   0.7487008278  -1.6502963223
	    H     0.5005916517  -0.3622816469   2.1094566438
	    H    -3.1376742326   1.7531175573  -0.4636464027
	    H    -1.3976628539   0.6528599134   3.2851148813
	    H    -0.2053672910  -1.0558778283  -2.3248640832
	    H     2.3600233048  -0.0969846584   0.9844477782
	    H     1.7692354083  -2.0482102707  -3.4387913086
	    H     4.2148035616  -1.1381251549  -0.2815917697
	    H    -3.7963371325   2.5520534087   1.6660090117
			--------------------------
			 OPTKING Finished Execution 
			--------------------------

    Structure for next step:
    Molecular point group: c1
    Full point group: C1

    Geometry (in Angstrom), charge = 0, multiplicity = 1:

    C           -1.263686005427     0.718073276455    -0.569677773500
    C           -0.287948732779     0.100648765282     1.532362136406
    C           -2.337644634879     1.289584140713     0.099291029989
    C           -1.360130059920     0.672288802903     2.204575202260
    C            0.754428986732    -1.046800512171    -1.829929587697
    C            2.176494785311    -0.518631395666     0.007208870912
    C            1.857616159755    -1.604550819121    -2.455372129815
    C            3.217027187349    -1.099226478714    -0.699511443929
    C           -0.224839546529     0.116050426461     0.138849458678
    C            0.908363972485    -0.486691621294    -0.564991388419
    C           -2.386908742473     1.269352685834     1.489129683950
    N            3.084934117284    -1.643489542532    -1.917705614802
    O           -3.431495207423     1.818157368109     2.172272335312
    H           -1.243041255771     0.748518730041    -1.650262223244
    H            0.500266729277    -0.362463744654     2.109490742921
    H           -3.137999155030     1.752935459556    -0.463612303599
    H           -1.397987776289     0.652677815613     3.285148980373
    H           -0.205692213381    -1.056059926045    -2.324829984152
    H            2.359698382373    -0.097166756171     0.984481877266
    H            1.768910485882    -2.048392368472    -3.438757209501
    H            4.214478639206    -1.138307252660    -0.281557670612
    H           -3.796662054905     2.551871310923     1.666043110766

gradient() will perform analytic gradient computation.

*** tstart() called on gpu-2-8.local
*** at Sun Nov 12 15:15:46 2017

    SCF Algorithm Type (re)set to DF.

*** tstart() called on gpu-2-8.local
*** at Sun Nov 12 15:15:46 2017

   => Loading Basis Set <=

    Name: AUG-CC-PVTZ
    Role: ORBITAL
    Keyword: BASIS
    atoms 1-11  entry C          line   221 file /cbio/jclab/home/chayas/anaconda/envs/py35/share/psi4/basis/aug-cc-pvtz.gbs 
    atoms 12    entry N          line   267 file /cbio/jclab/home/chayas/anaconda/envs/py35/share/psi4/basis/aug-cc-pvtz.gbs 
    atoms 13    entry O          line   313 file /cbio/jclab/home/chayas/anaconda/envs/py35/share/psi4/basis/aug-cc-pvtz.gbs 
    atoms 14-22 entry H          line    34 file /cbio/jclab/home/chayas/anaconda/envs/py35/share/psi4/basis/aug-cc-pvtz.gbs 


         ---------------------------------------------------------
                                   SCF
            by Justin Turney, Rob Parrish, and Andy Simmonett
                              RHF Reference
                        8 Threads,   4768 MiB Core
         ---------------------------------------------------------

  ==> Geometry <==

    Molecular point group: c1
    Full point group: C1

    Geometry (in Angstrom), charge = 0, multiplicity = 1:

       Center              X                  Y                   Z               Mass       
    ------------   -----------------  -----------------  -----------------  -----------------
           C         -1.263686005427     0.718073276455    -0.569677773500    12.000000000000
           C         -0.287948732779     0.100648765282     1.532362136406    12.000000000000
           C         -2.337644634879     1.289584140713     0.099291029989    12.000000000000
           C         -1.360130059920     0.672288802903     2.204575202260    12.000000000000
           C          0.754428986732    -1.046800512171    -1.829929587697    12.000000000000
           C          2.176494785311    -0.518631395666     0.007208870912    12.000000000000
           C          1.857616159755    -1.604550819121    -2.455372129815    12.000000000000
           C          3.217027187349    -1.099226478714    -0.699511443929    12.000000000000
           C         -0.224839546529     0.116050426461     0.138849458678    12.000000000000
           C          0.908363972485    -0.486691621294    -0.564991388419    12.000000000000
           C         -2.386908742473     1.269352685834     1.489129683950    12.000000000000
           N          3.084934117284    -1.643489542532    -1.917705614802    14.003074004780
           O         -3.431495207423     1.818157368109     2.172272335312    15.994914619560
           H         -1.243041255771     0.748518730041    -1.650262223244     1.007825032070
           H          0.500266729277    -0.362463744654     2.109490742921     1.007825032070
           H         -3.137999155030     1.752935459556    -0.463612303599     1.007825032070
           H         -1.397987776289     0.652677815613     3.285148980373     1.007825032070
           H         -0.205692213381    -1.056059926045    -2.324829984152     1.007825032070
           H          2.359698382373    -0.097166756171     0.984481877266     1.007825032070
           H          1.768910485882    -2.048392368472    -3.438757209501     1.007825032070
           H          4.214478639206    -1.138307252660    -0.281557670612     1.007825032070
           H         -3.796662054905     2.551871310923     1.666043110766     1.007825032070

  Running in c1 symmetry.

  Rotational constants: A =      0.09840  B =      0.01334  C =      0.01195 [cm^-1]
  Rotational constants: A =   2949.85522  B =    399.96704  C =    358.29930 [MHz]
  Nuclear repulsion =  697.659638297995457

  Charge       = 0
  Multiplicity = 1
  Electrons    = 90
  Nalpha       = 45
  Nbeta        = 45

  ==> Algorithm <==

  SCF Algorithm Type is DF.
  DIIS enabled.
  MOM disabled.
  Fractional occupation disabled.
  Guess Type is READ.
  Energy threshold   = 1.00e-10
  Density threshold  = 1.00e-10
  Integral threshold = 0.00e+00

  ==> Primary Basis <==

  Basis Set: AUG-CC-PVTZ
    Blend: AUG-CC-PVTZ
    Number of shells: 263
    Number of basis function: 805
    Number of Cartesian functions: 940
    Spherical Harmonics?: true
    Max angular momentum: 3

   => Loading Basis Set <=

    Name: (AUG-CC-PVTZ AUX)
    Role: JKFIT
    Keyword: DF_BASIS_SCF
    atoms 1-11  entry C          line   161 file /cbio/jclab/home/chayas/anaconda/envs/py35/share/psi4/basis/aug-cc-pvtz-jkfit.gbs 
    atoms 12    entry N          line   223 file /cbio/jclab/home/chayas/anaconda/envs/py35/share/psi4/basis/aug-cc-pvtz-jkfit.gbs 
    atoms 13    entry O          line   285 file /cbio/jclab/home/chayas/anaconda/envs/py35/share/psi4/basis/aug-cc-pvtz-jkfit.gbs 
    atoms 14-22 entry H          line    69 file /cbio/jclab/home/chayas/anaconda/envs/py35/share/psi4/basis/aug-cc-pvtz-jkfit.gbs 

  Reading orbitals from file 180, no projection.

  ==> Pre-Iterations <==

   -------------------------------------------------------
    Irrep   Nso     Nmo     Nalpha   Nbeta   Ndocc  Nsocc
   -------------------------------------------------------
     A        805     805       0       0       0       0
   -------------------------------------------------------
    Total     805     805      45      45      45       0
   -------------------------------------------------------

  ==> Integral Setup <==

  ==> DFJK: Density-Fitted J/K Matrices <==

    J tasked:                  Yes
    K tasked:                  Yes
    wK tasked:                  No
    OpenMP threads:              8
    Integrals threads:           8
    Memory (MB):              3576
    Algorithm:                Disk
    Integral Cache:           NONE
    Schwarz Cutoff:          1E-12
    Fitting Condition:       1E-12

   => Auxiliary Basis Set <=

  Basis Set: (AUG-CC-PVTZ AUX)
    Blend: AUG-CC-PVTZ-JKFIT
    Number of shells: 516
    Number of basis function: 1766
    Number of Cartesian functions: 2198
    Spherical Harmonics?: true
    Max angular momentum: 4

  Minimum eigenvalue in the overlap matrix is 6.0314871489E-07.
  Using Symmetric Orthogonalization.

  SCF Guess: Orbitals guess was supplied from a previous computation.

  ==> Iterations <==

                           Total Energy        Delta E     RMS |[F,P]|

   @DF-RHF iter   0:  -551.43322115058368   -5.51433e+02   5.11635e-04 
   @DF-RHF iter   1:  -551.28861968971489    1.44601e-01   1.77484e-04 
   @DF-RHF iter   2:  -551.28953382430939   -9.14135e-04   9.79748e-05 DIIS
   @DF-RHF iter   3:  -551.29039876609875   -8.64942e-04   1.46950e-05 DIIS
   @DF-RHF iter   4:  -551.29041292212412   -1.41560e-05   4.93901e-06 DIIS
   @DF-RHF iter   5:  -551.29041530299116   -2.38087e-06   1.59713e-06 DIIS
   @DF-RHF iter   6:  -551.29041562351358   -3.20522e-07   5.77807e-07 DIIS
   @DF-RHF iter   7:  -551.29041573730353   -1.13790e-07   3.64496e-07 DIIS
   @DF-RHF iter   8:  -551.29041577151725   -3.42137e-08   1.58856e-07 DIIS
   @DF-RHF iter   9:  -551.29041577748444   -5.96719e-09   6.08683e-08 DIIS
   @DF-RHF iter  10:  -551.29041577814769   -6.63249e-10   1.88763e-08 DIIS
   @DF-RHF iter  11:  -551.29041577822784   -8.01492e-11   7.15405e-09 DIIS
   @DF-RHF iter  12:  -551.29041577825330   -2.54659e-11   3.33402e-09 DIIS
   @DF-RHF iter  13:  -551.29041577825012    3.18323e-12   1.27850e-09 DIIS
   @DF-RHF iter  14:  -551.29041577824739    2.72848e-12   7.53706e-10 DIIS
   @DF-RHF iter  15:  -551.29041577824273    4.66116e-12   2.89921e-10 DIIS
   @DF-RHF iter  16:  -551.29041577823943    3.29692e-12   9.92485e-11 DIIS

  ==> Post-Iterations <==

    Orbital Energies (a.u.)
    -----------------------

    Doubly Occupied:                                                      

       1A    -20.598378     2A    -15.560313     3A    -11.312211  
       4A    -11.272137     5A    -11.272084     6A    -11.265733  
       7A    -11.253448     8A    -11.251890     9A    -11.247817  
      10A    -11.244311    11A    -11.239735    12A    -11.235803  
      13A    -11.235640    14A     -1.415517    15A     -1.254597  
      16A     -1.174853    17A     -1.104962    18A     -1.039434  
      19A     -1.029629    20A     -1.012234    21A     -0.881238  
      22A     -0.873025    23A     -0.841302    24A     -0.812377  
      25A     -0.749731    26A     -0.725359    27A     -0.684641  
      28A     -0.664132    29A     -0.653222    30A     -0.634844  
      31A     -0.624050    32A     -0.608339    33A     -0.600613  
      34A     -0.592016    35A     -0.568790    36A     -0.543947  
      37A     -0.531745    38A     -0.523543    39A     -0.498800  
      40A     -0.496833    41A     -0.417678    42A     -0.398416  
      43A     -0.355922    44A     -0.348227    45A     -0.310537  

    Virtual:                                                              

      46A      0.021981    47A      0.029490    48A      0.032041  
      49A      0.039283    50A      0.042852    51A      0.044643  
      52A      0.055056    53A      0.056501    54A      0.062233  
      55A      0.077321    56A      0.078909    57A      0.083328  
      58A      0.087818    59A      0.094134    60A      0.095947  
      61A      0.102500    62A      0.105042    63A      0.108451  
      64A      0.111386    65A      0.112509    66A      0.114769  
      67A      0.120102    68A      0.121232    69A      0.125985  
      70A      0.129432    71A      0.132768    72A      0.134267  
      73A      0.136580    74A      0.142665    75A      0.147790  
      76A      0.148433    77A      0.151610    78A      0.153525  
      79A      0.157557    80A      0.162705    81A      0.168205  
      82A      0.173479    83A      0.175414    84A      0.182642  
      85A      0.184098    86A      0.186710    87A      0.201567  
      88A      0.204436    89A      0.213239    90A      0.216463  
      91A      0.220595    92A      0.225661    93A      0.226425  
      94A      0.236233    95A      0.241336    96A      0.242031  
      97A      0.245827    98A      0.250257    99A      0.252956  
     100A      0.256973   101A      0.259172   102A      0.265299  
     103A      0.265796   104A      0.270931   105A      0.274578  
     106A      0.275742   107A      0.284984   108A      0.288832  
     109A      0.293135   110A      0.296924   111A      0.300600  
     112A      0.302895   113A      0.305072   114A      0.313122  
     115A      0.317843   116A      0.321402   117A      0.322339  
     118A      0.326699   119A      0.329677   120A      0.333349  
     121A      0.339788   122A      0.342543   123A      0.349173  
     124A      0.356714   125A      0.360890   126A      0.365345  
     127A      0.369588   128A      0.375574   129A      0.386304  
     130A      0.386608   131A      0.395621   132A      0.398323  
     133A      0.400642   134A      0.410581   135A      0.419041  
     136A      0.420624   137A      0.423803   138A      0.427514  
     139A      0.430644   140A      0.435868   141A      0.437344  
     142A      0.439642   143A      0.445433   144A      0.448241  
     145A      0.450090   146A      0.451833   147A      0.458416  
     148A      0.461870   149A      0.466464   150A      0.468069  
     151A      0.473696   152A      0.475577   153A      0.484020  
     154A      0.486797   155A      0.489515   156A      0.493770  
     157A      0.499241   158A      0.502711   159A      0.504566  
     160A      0.506706   161A      0.509175   162A      0.511894  
     163A      0.515039   164A      0.518872   165A      0.519869  
     166A      0.527112   167A      0.527987   168A      0.532142  
     169A      0.535519   170A      0.537805   171A      0.542820  
     172A      0.548362   173A      0.551890   174A      0.552937  
     175A      0.556568   176A      0.561535   177A      0.569185  
     178A      0.578368   179A      0.581225   180A      0.585947  
     181A      0.591427   182A      0.595776   183A      0.603488  
     184A      0.612437   185A      0.614518   186A      0.625119  
     187A      0.628861   188A      0.633027   189A      0.636037  
     190A      0.639705   191A      0.650577   192A      0.659735  
     193A      0.668018   194A      0.678279   195A      0.686206  
     196A      0.689731   197A      0.692286   198A      0.700601  
     199A      0.704449   200A      0.708897   201A      0.710603  
     202A      0.719061   203A      0.722288   204A      0.727883  
     205A      0.734378   206A      0.738963   207A      0.743035  
     208A      0.749882   209A      0.755369   210A      0.759599  
     211A      0.764098   212A      0.769132   213A      0.775866  
     214A      0.779840   215A      0.793432   216A      0.801392  
     217A      0.805865   218A      0.808713   219A      0.819133  
     220A      0.823562   221A      0.829321   222A      0.835220  
     223A      0.840138   224A      0.845175   225A      0.852702  
     226A      0.855526   227A      0.861841   228A      0.866916  
     229A      0.874013   230A      0.879239   231A      0.881051  
     232A      0.884049   233A      0.886100   234A      0.893626  
     235A      0.896706   236A      0.901018   237A      0.907359  
     238A      0.908825   239A      0.917341   240A      0.920156  
     241A      0.927057   242A      0.932749   243A      0.938426  
     244A      0.941690   245A      0.945944   246A      0.953718  
     247A      0.960571   248A      0.962521   249A      0.967872  
     250A      0.971496   251A      0.972790   252A      0.981497  
     253A      0.982207   254A      0.984584   255A      0.989793  
     256A      0.997749   257A      1.000080   258A      1.005856  
     259A      1.011475   260A      1.013468   261A      1.016691  
     262A      1.022018   263A      1.024474   264A      1.027648  
     265A      1.033440   266A      1.035446   267A      1.039774  
     268A      1.043265   269A      1.048363   270A      1.051025  
     271A      1.054320   272A      1.065791   273A      1.069801  
     274A      1.078584   275A      1.083101   276A      1.086690  
     277A      1.090837   278A      1.094770   279A      1.096644  
     280A      1.101011   281A      1.103061   282A      1.106392  
     283A      1.113793   284A      1.114676   285A      1.118431  
     286A      1.119666   287A      1.135070   288A      1.138281  
     289A      1.143317   290A      1.152266   291A      1.159417  
     292A      1.161441   293A      1.164136   294A      1.170371  
     295A      1.176029   296A      1.179398   297A      1.182519  
     298A      1.187048   299A      1.191931   300A      1.196528  
     301A      1.199644   302A      1.209265   303A      1.215212  
     304A      1.216487   305A      1.219899   306A      1.223206  
     307A      1.226670   308A      1.235604   309A      1.240984  
     310A      1.250651   311A      1.262136   312A      1.269821  
     313A      1.271865   314A      1.277235   315A      1.283624  
     316A      1.289136   317A      1.296253   318A      1.299871  
     319A      1.306311   320A      1.308854   321A      1.318882  
     322A      1.327526   323A      1.331868   324A      1.334817  
     325A      1.341894   326A      1.345849   327A      1.357899  
     328A      1.364500   329A      1.370861   330A      1.381137  
     331A      1.383773   332A      1.397793   333A      1.403640  
     334A      1.411301   335A      1.416503   336A      1.430147  
     337A      1.441629   338A      1.449562   339A      1.453589  
     340A      1.456835   341A      1.463849   342A      1.473577  
     343A      1.489314   344A      1.496575   345A      1.499585  
[...]
	 R(11,13)         =         2.581630	       1.366140
	 R(13,22)         =         1.817180	       0.961610
	 B(1,3,11)        =         2.094089	     119.982445
	 B(1,3,16)        =         2.096702	     120.132164
	 B(1,9,2)         =         2.062305	     118.161365
	 B(1,9,10)        =         2.110091	     120.899303
	 B(2,4,11)        =         2.092795	     119.908310
	 B(2,4,17)        =         2.114974	     121.179076
	 B(2,9,10)        =         2.110788	     120.939247
	 B(3,1,9)         =         2.112317	     121.026825
	 B(3,1,14)        =         2.081849	     119.281142
	 B(3,11,4)        =         2.089727	     119.732519
	 B(3,11,13)       =         2.140277	     122.628856
	 B(4,2,9)         =         2.114883	     121.173846
	 B(4,2,15)        =         2.081364	     119.253376
	 B(4,11,13)       =         2.051446	     117.539187
	 B(5,7,12)        =         2.159347	     123.721475
	 B(5,7,20)        =         2.095091	     120.039861
	 B(5,10,6)        =         2.035279	     116.612871
	 B(5,10,9)        =         2.124556	     121.728117
	 B(6,8,12)        =         2.159405	     123.724806
	 B(6,8,21)        =         2.095063	     120.038243
	 B(6,10,9)        =         2.123350	     121.659010
	 B(7,5,10)        =         2.088858	     119.682755
	 B(7,5,18)        =         2.090898	     119.799654
	 B(7,12,8)        =         2.034716	     116.580662
	 B(8,6,10)        =         2.088764	     119.677340
	 B(8,6,19)        =         2.091213	     119.817696
	 B(9,1,14)        =         2.088861	     119.682946
	 B(9,2,15)        =         2.086665	     119.557089
	 B(10,5,18)       =         2.103090	     120.498159
	 B(10,6,19)       =         2.102885	     120.486408
	 B(11,3,16)       =         2.092364	     119.883635
	 B(11,4,17)       =         2.075394	     118.911332
	 B(11,13,22)      =         1.903795	     109.079396
	 B(12,7,20)       =         2.028721	     116.237146
	 B(12,8,21)       =         2.028693	     116.235560
	 D(1,3,11,4)      =        -0.025871	      -1.482311
	 D(1,3,11,13)     =        -3.102594	    -177.765527
	 D(1,9,2,4)       =        -0.007706	      -0.441539
	 D(1,9,2,15)      =         3.108549	     178.106745
	 D(1,9,10,5)      =        -0.620951	     -35.577865
	 D(1,9,10,6)      =         2.520893	     144.436554
	 D(2,4,11,3)      =         0.016618	       0.952135
	 D(2,4,11,13)     =         3.096601	     177.422183
	 D(2,9,1,3)       =        -0.001680	      -0.096256
	 D(2,9,1,14)      =         3.120635	     178.799236
	 D(2,9,10,5)      =         2.518759	     144.314276
	 D(2,9,10,6)      =        -0.622582	     -35.671305
	 D(3,1,9,10)      =         3.138081	     179.798810
	 D(3,11,4,17)     =        -3.117873	    -178.640981
	 D(3,11,13,22)    =        -0.520238	     -29.807435
	 D(4,2,9,10)      =         3.135719	     179.663439
	 D(4,11,3,16)     =         3.124126	     178.999225
	 D(4,11,13,22)    =         2.684881	     153.832349
	 D(5,7,12,8)      =        -0.000507	      -0.029021
	 D(5,10,6,8)      =        -0.000292	      -0.016728
	 D(5,10,6,19)     =         3.113904	     178.413582
	 D(6,8,12,7)      =        -0.001057	      -0.060558
	 D(6,10,5,7)      =        -0.001143	      -0.065504
	 D(6,10,5,18)     =         3.112409	     178.327875
	 D(7,5,10,9)      =         3.140689	     179.948223
	 D(7,12,8,21)     =        -3.135145	    -179.630555
	 D(8,6,10,9)      =         3.141061	     179.969554
	 D(8,12,7,20)     =        -3.134257	    -179.579713
	 D(9,1,3,11)      =         0.018476	       1.058575
	 D(9,1,3,16)      =        -3.131543	    -179.424169
	 D(9,2,4,11)      =         0.000248	       0.014201
	 D(9,2,4,17)      =         3.134575	     179.597893
	 D(9,10,5,18)     =        -0.028944	      -1.658397
	 D(9,10,6,19)     =        -0.027928	      -1.600136
	 D(10,5,7,12)     =         0.001628	       0.093301
	 D(10,5,7,20)     =         3.135096	     179.627750
	 D(10,6,8,12)     =         0.001470	       0.084245
	 D(10,6,8,21)     =         3.135287	     179.638698
	 D(10,9,1,14)     =        -0.022789	      -1.305698
	 D(10,9,2,15)     =        -0.031211	      -1.788277
	 D(11,3,1,14)     =        -3.103916	    -177.841287
	 D(11,4,2,15)     =        -3.116083	    -178.538415
	 D(12,7,5,18)     =        -3.112121	    -178.311418
	 D(12,8,6,19)     =        -3.112911	    -178.356674
	 D(13,11,3,16)    =         0.047403	       2.716010
	 D(13,11,4,17)    =        -0.037890	      -2.170933
	 D(14,1,3,16)     =         0.029251	       1.675968
	 D(15,2,4,17)     =         0.018244	       1.045277
	 D(18,5,7,20)     =         0.021346	       1.223031
	 D(19,6,8,21)     =         0.020905	       1.197779

	Current energy   :      -553.7243512882

	Energy change for the previous step:
		Projected    :        -0.0000035653
		Actual       :         0.0000008791

	Performing BFGS update.
	Previous computed or guess Hessian on step 1.
	Steps to be used in Hessian update: 6 5
	Adding user-defined constraint: Fragment 1; Coordinate 73:
		Value =    -0.520238; Fixed value    =    -0.523600
		Force =    -0.002185; Force constant =     0.650000
	Removing off-diagonal coupling between coordinate 73 and others.
	Taking RFO optimization step.
	Going to follow RFO solution 1.
	Rejecting RFO root 1 because normalization gives large value.
	Using RFO vector 2.
	Norm of target step-size    0.00233
	Projected energy change by RFO approximation:        -0.0000003022

	Back-transformation to cartesian coordinates...
	Successfully converged to displaced geometry.

	--- Internal Coordinate Step in ANG or DEG, aJ/ANG or AJ/DEG ---
	 ---------------------------------------------------------------------------
	   Coordinate                Previous        Force       Change         New 
	   ----------                --------       ------       ------       ------
	    1 R(1,3)          =      1.385415    -0.000051    -0.000004     1.385411
	    2 R(1,9)          =      1.393389    -0.000123    -0.000022     1.393368
	    3 R(1,14)         =      1.079834     0.000047     0.000013     1.079847
	    4 R(2,4)          =      1.383899     0.000062     0.000003     1.383902
	    5 R(2,9)          =      1.394724    -0.000166    -0.000023     1.394701
	    6 R(2,15)         =      1.079839     0.000014     0.000001     1.079840
	    7 R(3,11)         =      1.388509     0.000002    -0.000001     1.388508
	    8 R(3,16)         =      1.080785     0.000003     0.000003     1.080788
	    9 R(4,11)         =      1.387318    -0.000140    -0.000015     1.387304
	   10 R(4,17)         =      1.078841    -0.000028    -0.000008     1.078832
	   11 R(5,7)          =      1.385488     0.000048     0.000008     1.385496
	   12 R(5,10)         =      1.392093    -0.000169    -0.000024     1.392069
	   13 R(5,18)         =      1.079561     0.000057     0.000013     1.079575
	   14 R(6,8)          =      1.385544     0.000037     0.000008     1.385552
	   15 R(6,10)         =      1.392102    -0.000175    -0.000024     1.392079
	   16 R(6,19)         =      1.079556     0.000013     0.000002     1.079559
	   17 R(7,12)         =      1.335132    -0.000173    -0.000017     1.335115
	   18 R(7,20)         =      1.081146    -0.000043    -0.000011     1.081135
	   19 R(8,12)         =      1.335103    -0.000171    -0.000019     1.335085
	   20 R(8,21)         =      1.081163    -0.000047    -0.000011     1.081152
	   21 R(9,10)         =      1.461431     0.000245    -0.000025     1.461406
	   22 R(11,13)        =      1.366140     0.000300     0.000025     1.366165
	   23 R(13,22)        =      0.961610     0.000019     0.000012     0.961622
	   24 B(1,3,11)       =    119.982445     0.000000     0.000457   119.982902
	   25 B(1,3,16)       =    120.132164     0.000001     0.002192   120.134356
	   26 B(1,9,2)        =    118.161365     0.000001     0.001821   118.163187
	   27 B(1,9,10)       =    120.899303    -0.000001    -0.003911   120.895392
	   28 B(2,4,11)       =    119.908310    -0.000001    -0.001335   119.906976
	   29 B(2,4,17)       =    121.179076    -0.000000     0.000495   121.179571
	   30 B(2,9,10)       =    120.939247     0.000000     0.002049   120.941296
	   31 B(3,1,9)        =    121.026825    -0.000001    -0.001736   121.025089
	   32 B(3,1,14)       =    119.281142     0.000001     0.001070   119.282211
	   33 B(3,11,4)       =    119.732519     0.000000     0.000432   119.732951
	   34 B(3,11,13)      =    122.628856    -0.000000     0.000647   122.629503
	   35 B(4,2,9)        =    121.173846    -0.000000     0.000078   121.173924
	   36 B(4,2,15)       =    119.253376    -0.000000    -0.001431   119.251945
	   37 B(4,11,13)      =    117.539187    -0.000000    -0.001906   117.537282
	   38 B(5,7,12)       =    123.721475     0.000000     0.002073   123.723548
	   39 B(5,7,20)       =    120.039861     0.000001    -0.000250   120.039610
	   40 B(5,10,6)       =    116.612871     0.000001     0.001851   116.614723
	   41 B(5,10,9)       =    121.728117    -0.000002    -0.004908   121.723209
	   42 B(6,8,12)       =    123.724806     0.000000     0.001766   123.726572
	   43 B(6,8,21)       =    120.038243     0.000001     0.000255   120.038498
	   44 B(6,10,9)       =    121.659010     0.000000     0.003057   121.662068
	   45 B(7,5,10)       =    119.682755    -0.000001    -0.001955   119.680800
	   46 B(7,5,18)       =    119.799654     0.000002     0.004317   119.803971
	   47 B(7,12,8)       =    116.580662     0.000000    -0.002236   116.578426
	   48 B(8,6,10)       =    119.677340    -0.000001    -0.001619   119.675721
	   49 B(8,6,19)       =    119.817696     0.000001     0.002994   119.820690
	   50 B(9,1,14)       =    119.682946     0.000000     0.000662   119.683609
	   51 B(9,2,15)       =    119.557089     0.000000     0.001823   119.558912
	   52 B(10,5,18)      =    120.498159    -0.000001    -0.001432   120.496727
	   53 B(10,6,19)      =    120.486408    -0.000000    -0.000670   120.485738
	   54 B(11,3,16)      =    119.883635    -0.000001    -0.002629   119.881006
	   55 B(11,4,17)      =    118.911332     0.000001     0.000890   118.912223
	   56 B(11,13,22)     =    109.079396    -0.000001    -0.001980   109.077416
	   57 B(12,7,20)      =    116.237146    -0.000001    -0.002095   116.235051
	   58 B(12,8,21)      =    116.235560    -0.000001    -0.002350   116.233209
	   59 D(1,3,11,4)     =     -1.482311    -0.000000    -0.010022    -1.492333
	   60 D(1,3,11,13)    =   -177.765527     0.000000     0.005449  -177.760077
	   61 D(1,9,2,4)      =     -0.441539    -0.000000    -0.028188    -0.469727
	   62 D(1,9,2,15)     =    178.106745    -0.000000    -0.006315   178.100431
	   63 D(1,9,10,5)     =    -35.577865     0.000000     0.006380   -35.571485
	   64 D(1,9,10,6)     =    144.436554     0.000000    -0.000426   144.436129
	   65 D(2,4,11,3)     =      0.952135     0.000000    -0.000936     0.951199
	   66 D(2,4,11,13)    =    177.422183    -0.000000    -0.015541   177.406643
	   67 D(2,9,1,3)      =     -0.096256     0.000000     0.017047    -0.079209
	   68 D(2,9,1,14)     =    178.799236     0.000000     0.016834   178.816069
	   69 D(2,9,10,5)     =    144.314276    -0.000000    -0.017051   144.297225
	   70 D(2,9,10,6)     =    -35.671305    -0.000000    -0.023857   -35.695161
	   71 D(3,1,9,10)     =    179.798810    -0.000000    -0.005748   179.793062
	   72 D(3,11,4,17)    =   -178.640981     0.000000    -0.009140  -178.650121
	   73 D(3,11,13,22)   =    -29.807435    -0.000003    -0.012682   -29.820118
	   74 D(4,2,9,10)     =    179.663439    -0.000000    -0.005375   179.658063
	   75 D(4,11,3,16)    =    178.999225    -0.000000    -0.012969   178.986256
	   76 D(4,11,13,22)   =    153.832349    -0.000002     0.002388   153.834737
	   77 D(5,7,12,8)     =     -0.029021    -0.000000    -0.028391    -0.057412
	   78 D(5,10,6,8)     =     -0.016728    -0.000000    -0.026163    -0.042891
	   79 D(5,10,6,19)    =    178.413582     0.000000     0.003958   178.417541
	   80 D(6,8,12,7)     =     -0.060558    -0.000000    -0.021967    -0.082524
	   81 D(6,10,5,7)     =     -0.065504    -0.000000    -0.020056    -0.085561
	   82 D(6,10,5,18)    =    178.327875     0.000000     0.018919   178.346794
	   83 D(7,5,10,9)     =    179.948223    -0.000000    -0.026536   179.921687
	   84 D(7,12,8,21)    =   -179.630555     0.000000     0.026278  -179.604277
	   85 D(8,6,10,9)     =    179.969554    -0.000000    -0.019689   179.949865
	   86 D(8,12,7,20)    =   -179.579713     0.000000     0.010246  -179.569466
	   87 D(9,1,3,11)     =      1.058575     0.000000     0.001739     1.060314
	   88 D(9,1,3,16)     =   -179.424169     0.000000     0.004670  -179.419500
	   89 D(9,2,4,11)     =      0.014201    -0.000000     0.020430     0.034631
	   90 D(9,2,4,17)     =    179.597893     0.000000     0.028825   179.626719
	   91 D(9,10,5,18)    =     -1.658397     0.000000     0.012440    -1.645958
	   92 D(9,10,6,19)    =     -1.600136     0.000000     0.010433    -1.589703
	   93 D(10,5,7,12)    =      0.093301     0.000000     0.049986     0.143287
	   94 D(10,5,7,20)    =    179.627750     0.000000     0.009944   179.637694
	   95 D(10,6,8,12)    =      0.084245     0.000000     0.049818     0.134063
	   96 D(10,6,8,21)    =    179.638698    -0.000000    -0.000182   179.638516
	   97 D(10,9,1,14)    =     -1.305698     0.000000    -0.005961    -1.311660
	   98 D(10,9,2,15)    =     -1.788277     0.000000     0.016498    -1.771779
	   99 D(11,3,1,14)    =   -177.841287     0.000000     0.001955  -177.839332
	  100 D(11,4,2,15)    =   -178.538415    -0.000000    -0.001424  -178.539838
	  101 D(12,7,5,18)    =   -178.311418     0.000000     0.011376  -178.300042
	  102 D(12,8,6,19)    =   -178.356674     0.000000     0.019956  -178.336718
	  103 D(13,11,3,16)   =      2.716010     0.000001     0.002502     2.718512
	  104 D(13,11,4,17)   =     -2.170933    -0.000001    -0.023745    -2.194677
	  105 D(14,1,3,16)    =      1.675968     0.000000     0.004886     1.680854
	  106 D(15,2,4,17)    =      1.045277    -0.000000     0.006972     1.052249
	  107 D(18,5,7,20)    =      1.223031    -0.000000    -0.028666     1.194365
	  108 D(19,6,8,21)    =      1.197779    -0.000000    -0.030044     1.167736
	 ---------------------------------------------------------------------------
	Successfully symmetrized geometry.
	 Forces used to impose fixed constraints are not included.
	  Forces zeroed: 73 

  ==> Convergence Check <==

  Measures of convergence in internal coordinates in au.
  Criteria marked as inactive (o), active & met (*), and active & unmet ( ).
  ---------------------------------------------------------------------------------------------
   Step     Total Energy     Delta E     MAX Force     RMS Force      MAX Disp      RMS Disp   
  ---------------------------------------------------------------------------------------------
    Convergence Criteria    1.00e-06 *    3.00e-04 *             o    1.20e-03 *             o
  ---------------------------------------------------------------------------------------------
      7    -553.72435129    8.79e-07 *    9.75e-05 *    1.51e-05 o    8.72e-04 *    2.24e-04 o  ~
  ---------------------------------------------------------------------------------------------


  **** Optimization is complete! (in 7 steps) ****

  ==> Optimization Summary <==

  Measures of convergence in internal coordinates in au.
  --------------------------------------------------------------------------------------------------------------- ~
   Step         Total Energy             Delta E       MAX Force       RMS Force        MAX Disp        RMS Disp  ~
  --------------------------------------------------------------------------------------------------------------- ~
      1    -553.720366278470   -553.720366278470      0.01877171      0.00474715      0.03474045      0.00961370  ~
      2    -553.723475032235     -0.003108753765      0.00532359      0.00153286      0.03532311      0.00959376  ~
      3    -553.724182473894     -0.000707441658      0.00094497      0.00034475      0.03507401      0.00961515  ~
      4    -553.724322500433     -0.000140026539      0.00041342      0.00015876      0.02848811      0.00565708  ~
      5    -553.724348463703     -0.000025963270      0.00031080      0.00009504      0.01091121      0.00233644  ~
      6    -553.724352167393     -0.000003703690      0.00026785      0.00004158      0.00224060      0.00058653  ~
      7    -553.724351288245      0.000000879147      0.00014707      0.00002072      0.00087242      0.00022429  ~
  --------------------------------------------------------------------------------------------------------------- ~

	Writing optimization data to binary file.
	Final energy is   -553.7243512882454
	Final (previous) structure:
	Cartesian Geometry (in Angstrom)
	    C    -1.2396940492   0.7697149549  -0.5639161819
	    C    -0.3194749014   0.0636039066   1.5279213305
	    C    -2.3139005818   1.3408020258   0.0988917182
	    C    -1.3835112854   0.6410393933   2.1984214039
	    C     0.7517274266  -1.0968873043  -1.8054390765
	    C     2.1879551999  -0.4773193393  -0.0262553123
	    C     1.8522292831  -1.6564493107  -2.4342177955
	    C     3.2291512970  -1.0638722421  -0.7273968424
	    C    -0.2254364640   0.1210639787   0.1375584020
	    C     0.9042474337  -0.4841897200  -0.5647684781
	    C    -2.3801390556   1.2908881067   1.4849213684
	    N     3.0834560749  -1.6504425513  -1.9178628248
	    O    -3.4349687094   1.7964737293   2.1906514967
	    H    -1.1818317826   0.8456739357  -1.6395201029
	    H     0.4380069638  -0.4600856301   2.0918566474
	    H    -3.0973330422   1.8323647730  -0.4602998862
	    H    -1.4596449928   0.5910949140   3.2734128555
	    H    -0.2213021410  -1.1617815764  -2.2685317903
	    H     2.3820780657   0.0033362167   0.9207023310
	    H     1.7392512827  -2.1390204427  -3.3950699116
	    H     4.2295063045  -1.0567339290  -0.3173324184
	    H    -3.8146994346   2.5335096801   1.7035412200
	Saving final (previous) structure.
			--------------------------
			 OPTKING Finished Execution 
			--------------------------

    Final optimized geometry and variables:
    Molecular point group: c1
    Full point group: C1

    Geometry (in Angstrom), charge = 0, multiplicity = 1:

    C           -1.239694049214     0.769714954910    -0.563916181875
    C           -0.319474901430     0.063603906640     1.527921330523
    C           -2.313900581801     1.340802025808     0.098891718229
    C           -1.383511285375     0.641039393344     2.198421403884
    C            0.751727426648    -1.096887304328    -1.805439076524
    C            2.187955199877    -0.477319339252    -0.026255312318
    C            1.852229283087    -1.656449310692    -2.434217795528
    C            3.229151297012    -1.063872242135    -0.727396842391
    C           -0.225436464011     0.121063978714     0.137558401987
    C            0.904247433656    -0.484189720025    -0.564768478078
    C           -2.380139055630     1.290888106718     1.484921368372
    N            3.083456074906    -1.650442551310    -1.917862824792
    O           -3.434968709377     1.796473729285     2.190651496704
    H           -1.181831782556     0.845673935739    -1.639520102946
    H            0.438006963795    -0.460085630106     2.091856647391
    H           -3.097333042228     1.832364772976    -0.460299886239
    H           -1.459644992834     0.591094913993     3.273412855483
    H           -0.221302141030    -1.161781576366    -2.268531790283
    H            2.382078065656     0.003336216704     0.920702330966
    H            1.739251282710    -2.139020442690    -3.395069911557
    H            4.229506304532    -1.056733928990    -0.317332418413
    H           -3.814699434628     2.533509680146     1.703541220013

	Cleaning optimization helper files.

*** Psi4 exiting successfully. Buy a developer a beer!
