
    -----------------------------------------------------------------------
          Psi4: An Open-Source Ab Initio Electronic Structure Package
                               Psi4 1.1 release

                         Git: Rev {HEAD} add49b9 


    R. M. Parrish, L. A. Burns, D. G. A. Smith, A. C. Simmonett,
    A. E. DePrince III, E. G. Hohenstein, U. Bozkaya, A. Yu. Sokolov,
    R. Di Remigio, R. M. Richard, J. F. Gonthier, A. M. James,
    H. R. McAlexander, A. Kumar, M. Saitow, X. Wang, B. P. Pritchard,
    P. Verma, H. F. Schaefer III, K. Patkowski, R. A. King, E. F. Valeev,
    F. A. Evangelista, J. M. Turney, T. D. Crawford, and C. D. Sherrill,
    J. Chem. Theory Comput. in press (2017).
    (doi: 10.1021/acs.jctc.7b00174)

    -----------------------------------------------------------------------


    Psi4 started on: Saturday, 11 November 2017 06:16PM

    Process ID:  26491
    PSIDATADIR: /cbio/jclab/home/chayas/anaconda/envs/py35/share/psi4
    Memory:     500.0 MiB
    Threads:    8
    
  ==> Input File <==

--------------------------------------------------------------------------

memory 5 Gb

molecule phepyrFOH_cation {
  symmetry C1
  1 1 
  C      1.885   -1.036   -0.112
  C      0.807   -0.463   0.561
  C      4.830   -1.443   -0.930
  C      4.321   -3.578   0.063
  C      1.800   -1.079   2.676
  C      5.894   -2.040   -1.592
  C      5.398   -4.120   -0.624
  C      2.921   -1.631   0.608
  C      4.038   -2.225   -0.095
  C      0.764   -0.484   1.955
  C      2.878   -1.652   2.002
  N      6.144   -3.345   -1.422
  O      -0.289   0.076   2.612
  F      3.866   -2.220   2.709
  H      1.904   -1.012   -1.199
  H      0.002   -0.002   -0.006
  H      4.632   -0.385   -1.072
  H      3.719   -4.212   0.708
  H      1.772   -1.099   3.762
  H      6.561   -1.511   -2.259
  H      5.691   -5.159   -0.561
  H      6.930   -3.764   -1.918
  H      0.019   0.788   3.195
  units Angstrom
}

dih_string = "2 10 13 23 240"
set optking fixed_dihedral = $dih_string

optimize('MP2/aug-cc-PVTZ')
--------------------------------------------------------------------------

  Memory set to   4.657 GiB by Python driver.
gradient() will perform analytic gradient computation.

*** tstart() called on gpu-2-5.local
*** at Sat Nov 11 18:16:22 2017

    SCF Algorithm Type (re)set to DF.

*** tstart() called on gpu-2-5.local
*** at Sat Nov 11 18:16:22 2017

   => Loading Basis Set <=

    Name: AUG-CC-PVTZ
    Role: ORBITAL
    Keyword: BASIS
    atoms 1-11  entry C          line   221 file /cbio/jclab/home/chayas/anaconda/envs/py35/share/psi4/basis/aug-cc-pvtz.gbs 
    atoms 12    entry N          line   267 file /cbio/jclab/home/chayas/anaconda/envs/py35/share/psi4/basis/aug-cc-pvtz.gbs 
    atoms 13    entry O          line   313 file /cbio/jclab/home/chayas/anaconda/envs/py35/share/psi4/basis/aug-cc-pvtz.gbs 
    atoms 14    entry F          line   359 file /cbio/jclab/home/chayas/anaconda/envs/py35/share/psi4/basis/aug-cc-pvtz.gbs 
    atoms 15-23 entry H          line    34 file /cbio/jclab/home/chayas/anaconda/envs/py35/share/psi4/basis/aug-cc-pvtz.gbs 


         ---------------------------------------------------------
                                   SCF
            by Justin Turney, Rob Parrish, and Andy Simmonett
                              RHF Reference
                        8 Threads,   4768 MiB Core
         ---------------------------------------------------------

  ==> Geometry <==

    Molecular point group: c1
    Full point group: C1

    Geometry (in Angstrom), charge = 1, multiplicity = 1:

       Center              X                  Y                   Z               Mass       
    ------------   -----------------  -----------------  -----------------  -----------------
           C         -1.338953387583     0.759669099729    -0.786142432047    12.000000000000
           C         -2.416953387583     1.332669099729    -0.113142432047    12.000000000000
           C          1.606046612417     0.352669099729    -1.604142432047    12.000000000000
           C          1.097046612417    -1.782330900271    -0.611142432047    12.000000000000
           C         -1.423953387583     0.716669099729     2.001857567953    12.000000000000
           C          2.670046612417    -0.244330900271    -2.266142432047    12.000000000000
           C          2.174046612417    -2.324330900271    -1.298142432047    12.000000000000
           C         -0.302953387583     0.164669099729    -0.066142432047    12.000000000000
           C          0.814046612417    -0.429330900271    -0.769142432047    12.000000000000
           C         -2.459953387583     1.311669099729     1.280857567953    12.000000000000
           C         -0.345953387583     0.143669099729     1.327857567953    12.000000000000
           N          2.920046612417    -1.549330900271    -2.096142432047    14.003074004780
           O         -3.512953387583     1.871669099729     1.937857567953    15.994914619560
           F          0.642046612417    -0.424330900271     2.034857567953    18.998403224000
           H         -1.319953387583     0.783669099729    -1.873142432047     1.007825032070
           H         -3.221953387583     1.793669099729    -0.680142432047     1.007825032070
           H          1.408046612417     1.410669099729    -1.746142432047     1.007825032070
           H          0.495046612417    -2.416330900271     0.033857567953     1.007825032070
           H         -1.451953387583     0.696669099729     3.087857567953     1.007825032070
           H          3.337046612417     0.284669099729    -2.933142432047     1.007825032070
           H          2.467046612417    -3.363330900271    -1.235142432047     1.007825032070
           H          3.706046612417    -1.968330900271    -2.592142432047     1.007825032070
           H         -3.204953387583     2.583669099729     2.520857567953     1.007825032070

  Running in c1 symmetry.

  Rotational constants: A =      0.06285  B =      0.01288  C =      0.01150 [cm^-1]
  Rotational constants: A =   1884.08782  B =    386.21842  C =    344.87626 [MHz]
  Nuclear repulsion =  829.339236800565800

  Charge       = 1
  Multiplicity = 1
  Electrons    = 98
  Nalpha       = 49
  Nbeta        = 49

  ==> Algorithm <==

  SCF Algorithm Type is DF.
  DIIS enabled.
  MOM disabled.
  Fractional occupation disabled.
  Guess Type is SAD.
  Energy threshold   = 1.00e-10
  Density threshold  = 1.00e-10
  Integral threshold = 0.00e+00

  ==> Primary Basis <==

  Basis Set: AUG-CC-PVTZ
    Blend: AUG-CC-PVTZ
    Number of shells: 277
    Number of basis function: 851
    Number of Cartesian functions: 995
    Spherical Harmonics?: true
    Max angular momentum: 3

   => Loading Basis Set <=

    Name: (AUG-CC-PVTZ AUX)
    Role: JKFIT
    Keyword: DF_BASIS_SCF
    atoms 1-11  entry C          line   161 file /cbio/jclab/home/chayas/anaconda/envs/py35/share/psi4/basis/aug-cc-pvtz-jkfit.gbs 
    atoms 12    entry N          line   223 file /cbio/jclab/home/chayas/anaconda/envs/py35/share/psi4/basis/aug-cc-pvtz-jkfit.gbs 
    atoms 13    entry O          line   285 file /cbio/jclab/home/chayas/anaconda/envs/py35/share/psi4/basis/aug-cc-pvtz-jkfit.gbs 
    atoms 14    entry F          line   347 file /cbio/jclab/home/chayas/anaconda/envs/py35/share/psi4/basis/aug-cc-pvtz-jkfit.gbs 
    atoms 15-23 entry H          line    69 file /cbio/jclab/home/chayas/anaconda/envs/py35/share/psi4/basis/aug-cc-pvtz-jkfit.gbs 

  ==> Pre-Iterations <==

   -------------------------------------------------------
    Irrep   Nso     Nmo     Nalpha   Nbeta   Ndocc  Nsocc
   -------------------------------------------------------
     A        851     851       0       0       0       0
   -------------------------------------------------------
    Total     851     851      49      49      49       0
   -------------------------------------------------------

  ==> Integral Setup <==

  ==> DFJK: Density-Fitted J/K Matrices <==

    J tasked:                  Yes
    K tasked:                  Yes
    wK tasked:                  No
    OpenMP threads:              8
    Integrals threads:           8
    Memory (MB):              3576
    Algorithm:                Disk
    Integral Cache:           NONE
    Schwarz Cutoff:          1E-12
    Fitting Condition:       1E-12

   => Auxiliary Basis Set <=

  Basis Set: (AUG-CC-PVTZ AUX)
    Blend: AUG-CC-PVTZ-JKFIT
    Number of shells: 546
    Number of basis function: 1870
    Number of Cartesian functions: 2329
    Spherical Harmonics?: true
    Max angular momentum: 4

  Minimum eigenvalue in the overlap matrix is 7.1867979025E-07.
  Using Symmetric Orthogonalization.

  SCF Guess: Superposition of Atomic Densities via on-the-fly atomic UHF.

  ==> Iterations <==

                           Total Energy        Delta E     RMS |[F,P]|

   @DF-RHF iter   0:  -653.34375524478355   -6.53344e+02   1.67335e-02 
   @DF-RHF iter   1:  -650.11705739967022    3.22670e+00   1.65970e-03 
   @DF-RHF iter   2:  -650.46728336327806   -3.50226e-01   9.71872e-04 DIIS
   @DF-RHF iter   3:  -650.53577451806177   -6.84912e-02   2.71025e-04 DIIS
   @DF-RHF iter   4:  -650.55269727708514   -1.69228e-02   1.16007e-04 DIIS
   @DF-RHF iter   5:  -650.55517659491647   -2.47932e-03   3.53598e-05 DIIS
   @DF-RHF iter   6:  -650.55560714993464   -4.30555e-04   1.24027e-05 DIIS
   @DF-RHF iter   7:  -650.55565597954273   -4.88296e-05   5.18498e-06 DIIS
   @DF-RHF iter   8:  -650.55566089320712   -4.91366e-06   1.04898e-06 DIIS
   @DF-RHF iter   9:  -650.55566143186161   -5.38654e-07   5.27739e-07 DIIS
   @DF-RHF iter  10:  -650.55566158217550   -1.50314e-07   2.42344e-07 DIIS
   @DF-RHF iter  11:  -650.55566162827813   -4.61026e-08   9.73110e-08 DIIS
   @DF-RHF iter  12:  -650.55566163719050   -8.91237e-09   4.04454e-08 DIIS
   @DF-RHF iter  13:  -650.55566163825108   -1.06058e-09   1.55320e-08 DIIS
   @DF-RHF iter  14:  -650.55566163840319   -1.52113e-10   5.71011e-09 DIIS
   @DF-RHF iter  15:  -650.55566163843071   -2.75122e-11   2.03527e-09 DIIS
   @DF-RHF iter  16:  -650.55566163843275   -2.04636e-12   8.48298e-10 DIIS
   @DF-RHF iter  17:  -650.55566163844719   -1.44382e-11   3.74172e-10 DIIS
   @DF-RHF iter  18:  -650.55566163843105    1.61435e-11   1.79064e-10 DIIS
   @DF-RHF iter  19:  -650.55566163843469   -3.63798e-12   7.97941e-11 DIIS

  ==> Post-Iterations <==

    Orbital Energies (a.u.)
    -----------------------

    Doubly Occupied:                                                      

       1A    -26.443135     2A    -20.693381     3A    -15.844820  
       4A    -11.491361     5A    -11.489764     6A    -11.466855  
       7A    -11.453064     8A    -11.431080     9A    -11.423342  
      10A    -11.421924    11A    -11.383079    12A    -11.381406  
      13A    -11.360421    14A    -11.354848    15A     -1.761456  
      16A     -1.519939    17A     -1.511701    18A     -1.326354  
      19A     -1.270581    20A     -1.243997    21A     -1.163324  
      22A     -1.150793    23A     -1.074023    24A     -1.061672  
      25A     -0.986160    26A     -0.970236    27A     -0.963474  
      28A     -0.888372    29A     -0.875035    30A     -0.860167  
      31A     -0.849244    32A     -0.828109    33A     -0.821966  
      34A     -0.808152    35A     -0.799780    36A     -0.781756  
      37A     -0.754904    38A     -0.749030    39A     -0.736152  
      40A     -0.718622    41A     -0.712981    42A     -0.671538  
      43A     -0.652478    44A     -0.628561    45A     -0.608010  
      46A     -0.580786    47A     -0.541586    48A     -0.468907  
      49A     -0.454543  

    Virtual:                                                              

      50A     -0.106774    51A     -0.087239    52A     -0.068183  
      53A     -0.063776    54A     -0.058625    55A     -0.051107  
      56A     -0.043006    57A     -0.039390    58A     -0.035807  
      59A     -0.029993    60A     -0.024153    61A     -0.019301  
      62A     -0.015127    63A     -0.010308    64A     -0.006884  
      65A     -0.004808    66A      0.001902    67A      0.005818  
      68A      0.008808    69A      0.012074    70A      0.015152  
      71A      0.017961    72A      0.023918    73A      0.026811  
      74A      0.029850    75A      0.032995    76A      0.034623  
      77A      0.038658    78A      0.040703    79A      0.043343  
      80A      0.047302    81A      0.051817    82A      0.053700  
      83A      0.060157    84A      0.064001    85A      0.067398  
      86A      0.071081    87A      0.074908    88A      0.080622  
      89A      0.082735    90A      0.087428    91A      0.091655  
      92A      0.092911    93A      0.101237    94A      0.105279  
      95A      0.110516    96A      0.116520    97A      0.117411  
      98A      0.123830    99A      0.128301   100A      0.133175  
     101A      0.135653   102A      0.139493   103A      0.140970  
     104A      0.143066   105A      0.151446   106A      0.153927  
     107A      0.157311   108A      0.160066   109A      0.163016  
     110A      0.166802   111A      0.169279   112A      0.171428  
     113A      0.176118   114A      0.180533   115A      0.187905  
     116A      0.191682   117A      0.195575   118A      0.196710  
     119A      0.198088   120A      0.205091   121A      0.208495  
     122A      0.212084   123A      0.214963   124A      0.219703  
     125A      0.220924   126A      0.227405   127A      0.229262  
     128A      0.233603   129A      0.236435   130A      0.242072  
     131A      0.249861   132A      0.250760   133A      0.252234  
     134A      0.254582   135A      0.255113   136A      0.261084  
     137A      0.269318   138A      0.271295   139A      0.278067  
     140A      0.280640   141A      0.281813   142A      0.287520  
     143A      0.291698   144A      0.302258   145A      0.304993  
     146A      0.307024   147A      0.315103   148A      0.317966  
     149A      0.318749   150A      0.321918   151A      0.322466  
     152A      0.328569   153A      0.333746   154A      0.334965  
     155A      0.335784   156A      0.342755   157A      0.345572  
     158A      0.348390   159A      0.350844   160A      0.353836  
     161A      0.359958   162A      0.368532   163A      0.369626  
     164A      0.370838   165A      0.377596   166A      0.381641  
     167A      0.382461   168A      0.384041   169A      0.385850  
     170A      0.392033   171A      0.397178   172A      0.401480  
     173A      0.404176   174A      0.407285   175A      0.410765  
     176A      0.411538   177A      0.418901   178A      0.421739  
     179A      0.424435   180A      0.426502   181A      0.430372  
     182A      0.437274   183A      0.440518   184A      0.445265  
     185A      0.449972   186A      0.455181   187A      0.456392  
     188A      0.467534   189A      0.471359   190A      0.471598  
     191A      0.482452   192A      0.487312   193A      0.488668  
     194A      0.497923   195A      0.502798   196A      0.509796  
     197A      0.518972   198A      0.520470   199A      0.523455  
     200A      0.527541   201A      0.536913   202A      0.543805  
     203A      0.547787   204A      0.557954   205A      0.560622  
     206A      0.566556   207A      0.570059   208A      0.570472  
     209A      0.578843   210A      0.581452   211A      0.592687  
     212A      0.598076   213A      0.600183   214A      0.601186  
     215A      0.607263   216A      0.610422   217A      0.615431  
     218A      0.620511   219A      0.621567   220A      0.628790  
     221A      0.632095   222A      0.640585   223A      0.647177  
     224A      0.658136   225A      0.666729   226A      0.670012  
     227A      0.673261   228A      0.686448   229A      0.688848  
     230A      0.699580   231A      0.702203   232A      0.707840  
     233A      0.716171   234A      0.717935   235A      0.721646  
     236A      0.727481   237A      0.731754   238A      0.741930  
     239A      0.746249   240A      0.749810   241A      0.755495  
     242A      0.758771   243A      0.760625   244A      0.765880  
     245A      0.773278   246A      0.777262   247A      0.780869  
     248A      0.781749   249A      0.787435   250A      0.794132  
     251A      0.798743   252A      0.802513   253A      0.803868  
     254A      0.815437   255A      0.819775   256A      0.821082  
     257A      0.828225   258A      0.828632   259A      0.832962  
     260A      0.838619   261A      0.844675   262A      0.847129  
     263A      0.856840   264A      0.859841   265A      0.863001  
     266A      0.868724   267A      0.873713   268A      0.877239  
     269A      0.883646   270A      0.887152   271A      0.894984  
     272A      0.900175   273A      0.903490   274A      0.907405  
     275A      0.910733   276A      0.915857   277A      0.918200  
     278A      0.925342   279A      0.929500   280A      0.931699  
     281A      0.935719   282A      0.941783   283A      0.944841  
     284A      0.951672   285A      0.955344   286A      0.960712  
     287A      0.963931   288A      0.967733   289A      0.974157  
     290A      0.976681   291A      0.979701   292A      0.987832  
     293A      0.988808   294A      0.991479   295A      1.000206  
     296A      1.006787   297A      1.008657   298A      1.014915  
     299A      1.018599   300A      1.020049   301A      1.024810  
     302A      1.030845   303A      1.033658   304A      1.041509  
     305A      1.044523   306A      1.045412   307A      1.054575  
     308A      1.055816   309A      1.063764   310A      1.069499  
     311A      1.072287   312A      1.076398   313A      1.082073  
     314A      1.088524   315A      1.092820   316A      1.101375  
     317A      1.105711   318A      1.110873   319A      1.115278  
     320A      1.120481   321A      1.123064   322A      1.129723  
     323A      1.135826   324A      1.141892   325A      1.143476  
     326A      1.147819   327A      1.150695   328A      1.160724  
     329A      1.163105   330A      1.176306   331A      1.182368  
     332A      1.191271   333A      1.196444   334A      1.206412  
     335A      1.211008   336A      1.216457   337A      1.226361  
     338A      1.230034   339A      1.233443   340A      1.238586  
     341A      1.247603   342A      1.249850   343A      1.261884  
     344A      1.267172   345A      1.270407   346A      1.273344  
     347A      1.277015   348A      1.277896   349A      1.292288  
     350A      1.299721   351A      1.309344   352A      1.314686  
     353A      1.323917   354A      1.325786   355A      1.329059  
     356A      1.342697   357A      1.345029   358A      1.349655  
     359A      1.359010   360A      1.365963   361A      1.373730  
     362A      1.384399   363A      1.389794   364A      1.395901  
     365A      1.405302   366A      1.407711   367A      1.417937  
     368A      1.421535   369A      1.429821   370A      1.436937  
     371A      1.447047   372A      1.452158   373A      1.457544  
     374A      1.470471   375A      1.476627   376A      1.487232  
     377A      1.493953   378A      1.498652   379A      1.501578  
     380A      1.508661   381A      1.514065   382A      1.519882  
     383A      1.525190   384A      1.535203   385A      1.536593  
     386A      1.545701   387A      1.549861   388A      1.556026  
     389A      1.562067   390A      1.566191   391A      1.576921  
     392A      1.594656   393A      1.605058   394A      1.610470  
     395A      1.613899   396A      1.628514   397A      1.639230  
     398A      1.644257   399A      1.652544   400A      1.664648  
     401A      1.669407   402A      1.677080   403A      1.682482  
     404A      1.683004   405A      1.697075   406A      1.704197  
     407A      1.711040   408A      1.718466   409A      1.730610  
     410A      1.735223   411A      1.742581   412A      1.754805  
     413A      1.761733   414A      1.764587   415A      1.772549  
     416A      1.775216   417A      1.794875   418A      1.799343  
     419A      1.808459   420A      1.811738   421A      1.818916  
     422A      1.826754   423A      1.833450   424A      1.839421  
     425A      1.840645   426A      1.850684   427A      1.854557  
     428A      1.866858   429A      1.867433   430A      1.885743  
     431A      1.894669   432A      1.898366   433A      1.908602  
     434A      1.915110   435A      1.922369   436A      1.929914  
     437A      1.931539   438A      1.941636   439A      1.948612  
     440A      1.955779   441A      1.962928   442A      1.972105  
     443A      1.975053   444A      1.986158   445A      1.996495  
     446A      2.000709   447A      2.016208   448A      2.024064  
     449A      2.029688   450A      2.034609   451A      2.044568  
     452A      2.058559   453A      2.066607   454A      2.068649  
     455A      2.076800   456A      2.083100   457A      2.094171  
     458A      2.109989   459A      2.118871   460A      2.122090  
     461A      2.128970   462A      2.139473   463A      2.158163  
     464A      2.169326   465A      2.171759   466A      2.183605  
     467A      2.190450   468A      2.200355   469A      2.213400  
     470A      2.225239   471A      2.235355   472A      2.242782  
     473A      2.247865   474A      2.253153   475A      2.263436  
     476A      2.267478   477A      2.289183   478A      2.298904  
     479A      2.310672   480A      2.322658   481A      2.325253  
     482A      2.334443   483A      2.347984   484A      2.363609  
     485A      2.375099   486A      2.384794   487A      2.390786  
     488A      2.397632   489A      2.406533   490A      2.424975  
     491A      2.435136   492A      2.453112   493A      2.465568  
     494A      2.473718   495A      2.484129   496A      2.494449  
     497A      2.522734   498A      2.533323   499A      2.544957  
     500A      2.557734   501A      2.567357   502A      2.573688  
     503A      2.585011   504A      2.596198   505A      2.604682  
     506A      2.624244   507A      2.634153   508A      2.643053  
     509A      2.670373   510A      2.683904   511A      2.703914  
     512A      2.726702   513A      2.742016   514A      2.749826  
     515A      2.768592   516A      2.792485   517A      2.803861  
     518A      2.817980   519A      2.848380   520A      2.864359  
     521A      2.896329   522A      2.921021   523A      2.922608  
     524A      2.929989   525A      2.944319   526A      2.962281  
     527A      2.971121   528A      2.980107   529A      3.001600  
     530A      3.012273   531A      3.026364   532A      3.030334  
     533A      3.042570   534A      3.056370   535A      3.075918  
     536A      3.079089   537A      3.097611   538A      3.101106  
     539A      3.114959   540A      3.126281   541A      3.142163  
     542A      3.150965   543A      3.162492   544A      3.177638  
     545A      3.199437   546A      3.209812   547A      3.221077  
     548A      3.227588   549A      3.234440   550A      3.246210  
     551A      3.257465   552A      3.267194   553A      3.277823  
     554A      3.291603   555A      3.301925   556A      3.306394  
     557A      3.315445   558A      3.318656   559A      3.328313  
     560A      3.334527   561A      3.350540   562A      3.367198  
     563A      3.368617   564A      3.375422   565A      3.381499  
     566A      3.386390   567A      3.397075   568A      3.408290  
     569A      3.412464   570A      3.423746   571A      3.427072  
     572A      3.440254   573A      3.444171   574A      3.453323  
     575A      3.463168   576A      3.474986   577A      3.486469  
     578A      3.490805   579A      3.500693   580A      3.510234  
     581A      3.516875   582A      3.522183   583A      3.536472  
     584A      3.540469   585A      3.558884   586A      3.563765  
     587A      3.572707   588A      3.582174   589A      3.595074  
     590A      3.599285   591A      3.614756   592A      3.617157  
     593A      3.625292   594A      3.647411   595A      3.651218  
     596A      3.652916   597A      3.659541   598A      3.677727  
     599A      3.680222   600A      3.684527   601A      3.702272  
     602A      3.709271   603A      3.717166   604A      3.718620  
     605A      3.729306   606A      3.743432   607A      3.752101  
     608A      3.754640   609A      3.766048   610A      3.772071  
     611A      3.782485   612A      3.787124   613A      3.797301  
     614A      3.804757   615A      3.818527   616A      3.826324  
     617A      3.828292   618A      3.831996   619A      3.844196  
     620A      3.845680   621A      3.859218   622A      3.867203  
     623A      3.877403   624A      3.884631   625A      3.889522  
     626A      3.897715   627A      3.903264   628A      3.910012  
     629A      3.929274   630A      3.945523   631A      3.952338  
     632A      3.956355   633A      3.970155   634A      3.979217  
     635A      3.985990   636A      4.000795   637A      4.006290  
     638A      4.010648   639A      4.019860   640A      4.031790  
     641A      4.039998   642A      4.045021   643A      4.053300  
     644A      4.063062   645A      4.074200   646A      4.082516  
     647A      4.094319   648A      4.098961   649A      4.105009  
     650A      4.117252   651A      4.125088   652A      4.133351  
     653A      4.141922   654A      4.153566   655A      4.159701  
     656A      4.176032   657A      4.187175   658A      4.198657  
     659A      4.203515   660A      4.214632   661A      4.221807  
     662A      4.225258   663A      4.230872   664A      4.240997  
     665A      4.249452   666A      4.260241   667A      4.266030  
     668A      4.271097   669A      4.279381   670A      4.291166  
     671A      4.297614   672A      4.302708   673A      4.310151  
     674A      4.312478   675A      4.327521   676A      4.345797  
     677A      4.360463   678A      4.371794   679A      4.372225  
     680A      4.382513   681A      4.399964   682A      4.417704  
     683A      4.425692   684A      4.433267   685A      4.445478  
     686A      4.452159   687A      4.459818   688A      4.483457  
     689A      4.488913   690A      4.499855   691A      4.505770  
     692A      4.525993   693A      4.529041   694A      4.571621  
     695A      4.581921   696A      4.593519   697A      4.596081  
     698A      4.603732   699A      4.626364   700A      4.628830  
     701A      4.644183   702A      4.654019   703A      4.669743  
     704A      4.675265   705A      4.679795   706A      4.697018  
     707A      4.702263   708A      4.736538   709A      4.751239  
     710A      4.752830   711A      4.763962   712A      4.776170  
     713A      4.799671   714A      4.804978   715A      4.809721  
     716A      4.824080   717A      4.828974   718A      4.852968  
     719A      4.855468   720A      4.868252   721A      4.896149  
     722A      4.905543   723A      4.914259   724A      4.922947  
     725A      4.932400   726A      4.935627   727A      4.951204  
     728A      4.956621   729A      4.983817   730A      4.996723  
     731A      5.008185   732A      5.019193   733A      5.024897  
     734A      5.036274   735A      5.042509   736A      5.049335  
     737A      5.063429   738A      5.064303   739A      5.091816  
     740A      5.096186   741A      5.107156   742A      5.134623  
     743A      5.160229   744A      5.170889   745A      5.188175  
     746A      5.196997   747A      5.208838   748A      5.219256  
     749A      5.246303   750A      5.255771   751A      5.261494  
     752A      5.269345   753A      5.284516   754A      5.322537  
     755A      5.329507   756A      5.368172   757A      5.379680  
     758A      5.382274   759A      5.407224   760A      5.422440  
     761A      5.458859   762A      5.481700   763A      5.502689  
     764A      5.512535   765A      5.533129   766A      5.563952  
     767A      5.591247   768A      5.603867   769A      5.620046  
     770A      5.629928   771A      5.652862   772A      5.680867  
     773A      5.688422   774A      5.692860   775A      5.711748  
     776A      5.744147   777A      5.778589   778A      5.831120  
     779A      5.839386   780A      5.886095   781A      5.900997  
     782A      5.927665   783A      5.969146   784A      5.979300  
     785A      6.004612   786A      6.030555   787A      6.083339  
     788A      6.144004   789A      6.162339   790A      6.178331  
     791A      6.196694   792A      6.231835   793A      6.281324  
     794A      6.335123   795A      6.353930   796A      6.401078  
     797A      6.408850   798A      6.458083   799A      6.515221  
     800A      6.557363   801A      6.591283   802A      6.626642  
     803A      6.649891   804A      6.702104   805A      6.742736  
     806A      6.803555   807A      6.821306   808A      6.829289  
     809A      6.840151   810A      6.908138   811A      6.964424  
     812A      7.015692   813A      7.182675   814A      7.216699  
     815A      7.310871   816A      7.324277   817A      7.437715  
     818A      7.445723   819A      7.499761   820A      7.535558  
     821A      7.556308   822A      7.724078   823A      7.833907  
     824A      8.120479   825A      8.510863   826A      8.888817  
     827A      8.930428   828A      9.152669   829A      9.173686  
     830A      9.291425   831A      9.401372   832A      9.424704  
     833A      9.472656   834A      9.524959   835A      9.599135  
     836A      9.913749   837A      9.960651   838A     15.836673  
     839A     16.088752   840A     16.431036   841A     16.496250  
     842A     16.856908   843A     17.037802   844A     18.728403  
     845A     19.114006   846A     19.552851   847A     19.727901  
     848A     20.064152   849A     20.185394   850A     20.394234  
     851A     21.685395  

    Final Occupation by Irrep:
              A 
    DOCC [    49 ]

  Energy converged.

  @DF-RHF Final Energy:  -650.55566163843469

   => Energetics <=

    Nuclear Repulsion Energy =            829.3392368005658000
    One-Electron Energy =               -2518.9240585944448867
    Two-Electron Energy =                1039.0291601554445151
    DFT Exchange-Correlation Energy =       0.0000000000000000
    Empirical Dispersion Energy =           0.0000000000000000
    PCM Polarization Energy =               0.0000000000000000
    EFP Energy =                            0.0000000000000000
    Total Energy =                       -650.5556616384346853



Properties will be evaluated at   0.000000,   0.000000,   0.000000 Bohr

Properties computed using the SCF density matrix

  Nuclear Dipole Moment: (a.u.)
     X:     1.4449      Y:     0.2310      Z:    -6.9827

  Electronic Dipole Moment: (a.u.)
     X:     1.7726      Y:    -1.3592      Z:     4.3564

  Dipole Moment: (a.u.)
     X:     3.2175      Y:    -1.1282      Z:    -2.6263     Total:     4.3038

  Dipole Moment: (Debye)
     X:     8.1781      Y:    -2.8676      Z:    -6.6754     Total:    10.9392


*** tstop() called on gpu-2-5.local at Sat Nov 11 18:25:54 2017
Module time:
	user time   =    1148.29 seconds =      19.14 minutes
	system time =     149.18 seconds =       2.49 minutes
	total time  =        572 seconds =       9.53 minutes
Total time:
	user time   =    1148.29 seconds =      19.14 minutes
	system time =     149.18 seconds =       2.49 minutes
	total time  =        572 seconds =       9.53 minutes

  //>>>>>>>>>>>>>>>>>>>>>>>>>>>>>>>>>>>//
  //               DFMP2               //
  //<<<<<<<<<<<<<<<<<<<<<<<<<<<<<<<<<<<//

   => Loading Basis Set <=

    Name: (AUG-CC-PVTZ AUX)
    Role: RIFIT
    Keyword: DF_BASIS_MP2
    atoms 1-11  entry C          line   147 file /cbio/jclab/home/chayas/anaconda/envs/py35/share/psi4/basis/aug-cc-pvtz-ri.gbs 
    atoms 12    entry N          line   205 file /cbio/jclab/home/chayas/anaconda/envs/py35/share/psi4/basis/aug-cc-pvtz-ri.gbs 
    atoms 13    entry O          line   263 file /cbio/jclab/home/chayas/anaconda/envs/py35/share/psi4/basis/aug-cc-pvtz-ri.gbs 
    atoms 14    entry F          line   321 file /cbio/jclab/home/chayas/anaconda/envs/py35/share/psi4/basis/aug-cc-pvtz-ri.gbs 
    atoms 15-23 entry H          line    29 file /cbio/jclab/home/chayas/anaconda/envs/py35/share/psi4/basis/aug-cc-pvtz-ri.gbs 

	 --------------------------------------------------------
	                          DF-MP2                         
	      2nd-Order Density-Fitted Moller-Plesset Theory     
	              RMP2 Wavefunction,   8 Threads             
	                                                         
	        Rob Parrish, Justin Turney, Andy Simmonett,      
	           Ed Hohenstein, and C. David Sherrill          
	 --------------------------------------------------------

   => Auxiliary Basis Set <=

  Basis Set: (AUG-CC-PVTZ AUX)
    Blend: AUG-CC-PVTZ-RI
    Number of shells: 518
    Number of basis function: 1898
    Number of Cartesian functions: 2399
    Spherical Harmonics?: true
    Max angular momentum: 4

	 --------------------------------------------------------
	                 NBF =   851, NAUX =  1898
	 --------------------------------------------------------
	   CLASS    FOCC     OCC    AOCC    AVIR     VIR    FVIR
	   PAIRS       0      49      49     802     802       0
	 --------------------------------------------------------


         ------------------------------------------------------------
                                     CPHF                           
                                  Rob Parrish                       
         ------------------------------------------------------------

  ==> Geometry <==

    Molecular point group: c1
    Full point group: C1

    Geometry (in Angstrom), charge = 1, multiplicity = 1:

       Center              X                  Y                   Z               Mass       
    ------------   -----------------  -----------------  -----------------  -----------------
           C         -1.338953387583     0.759669099729    -0.786142432047    12.000000000000
           C         -2.416953387583     1.332669099729    -0.113142432047    12.000000000000
           C          1.606046612417     0.352669099729    -1.604142432047    12.000000000000
           C          1.097046612417    -1.782330900271    -0.611142432047    12.000000000000
           C         -1.423953387583     0.716669099729     2.001857567953    12.000000000000
           C          2.670046612417    -0.244330900271    -2.266142432047    12.000000000000
           C          2.174046612417    -2.324330900271    -1.298142432047    12.000000000000
           C         -0.302953387583     0.164669099729    -0.066142432047    12.000000000000
           C          0.814046612417    -0.429330900271    -0.769142432047    12.000000000000
           C         -2.459953387583     1.311669099729     1.280857567953    12.000000000000
           C         -0.345953387583     0.143669099729     1.327857567953    12.000000000000
           N          2.920046612417    -1.549330900271    -2.096142432047    14.003074004780
           O         -3.512953387583     1.871669099729     1.937857567953    15.994914619560
           F          0.642046612417    -0.424330900271     2.034857567953    18.998403224000
           H         -1.319953387583     0.783669099729    -1.873142432047     1.007825032070
           H         -3.221953387583     1.793669099729    -0.680142432047     1.007825032070
           H          1.408046612417     1.410669099729    -1.746142432047     1.007825032070
           H          0.495046612417    -2.416330900271     0.033857567953     1.007825032070
           H         -1.451953387583     0.696669099729     3.087857567953     1.007825032070
           H          3.337046612417     0.284669099729    -2.933142432047     1.007825032070
           H          2.467046612417    -3.363330900271    -1.235142432047     1.007825032070
           H          3.706046612417    -1.968330900271    -2.592142432047     1.007825032070
           H         -3.204953387583     2.583669099729     2.520857567953     1.007825032070

  Nuclear repulsion =  829.339236800565800
  Reference energy  = -650.555661638434685

  ==> Basis Set <==

  Basis Set: AUG-CC-PVTZ
    Blend: AUG-CC-PVTZ
    Number of shells: 277
    Number of basis function: 851
    Number of Cartesian functions: 995
    Spherical Harmonics?: true
    Max angular momentum: 3

  ==> CGRSolver (by Rob Parrish) <==

   Number of roots    =         1
   Preconditioning    =    JACOBI
   Convergence cutoff =     1E-06
   Maximum iterations =       100

  ==> CPHFRHamiltonian (by Rob Parrish) <== 

  ==> DFJK: Density-Fitted J/K Matrices <==

    J tasked:                  Yes
    K tasked:                  Yes
    wK tasked:                  No
    OpenMP threads:              8
    Integrals threads:           8
    Memory (MB):              3576
    Algorithm:                Disk
    Integral Cache:           NONE
    Schwarz Cutoff:          1E-12
    Fitting Condition:       1E-12

   => Auxiliary Basis Set <=

  Basis Set: (AUG-CC-PVTZ AUX)
    Blend: AUG-CC-PVTZ-JKFIT
    Number of shells: 546
    Number of basis function: 1870
    Number of Cartesian functions: 2329
    Spherical Harmonics?: true
    Max angular momentum: 4

  ==> CPHF Iterations <==

  => Iterations <=

             Iter  Converged  Remaining    Residual
  CGR           1          0          1   1.162E-01
  CGR           2          0          1   4.602E-02
  CGR           3          0          1   2.711E-02
  CGR           4          0          1   8.768E-03
  CGR           5          0          1   3.553E-03
  CGR           6          0          1   1.452E-03
  CGR           7          0          1   4.870E-04
  CGR           8          0          1   2.209E-04
  CGR           9          0          1   1.027E-04
  CGR          10          0          1   3.967E-05
  CGR          11          0          1   1.592E-05
  CGR          12          0          1   5.319E-06
  CGR          13          0          1   1.939E-06
  CGR          14          1          0   6.634E-07

    CGRSolver converged.

  ==> DFCorrGrad: Density-Fitted Correlated Gradients <==

    OpenMP threads:              8
    Integrals threads:           8
    Memory (MB):              3576
    Schwarz Cutoff:          0E+00
    Fitting Condition:       1E-12

   => Auxiliary Basis Set <=

  Basis Set: (AUG-CC-PVTZ AUX)
    Blend: AUG-CC-PVTZ-JKFIT
    Number of shells: 546
    Number of basis function: 1870
    Number of Cartesian functions: 2329
    Spherical Harmonics?: true
    Max angular momentum: 4

	-----------------------------------------------------------
	 ==================> DF-MP2 Energies <==================== 
	-----------------------------------------------------------
	 Reference Energy          =    -650.5556616384346853 [Eh]
	 Singles Energy            =      -0.0000000000000013 [Eh]
	 Same-Spin Energy          =      -0.6687777016728526 [Eh]
	 Opposite-Spin Energy      =      -2.0134348719229496 [Eh]
	 Correlation Energy        =      -2.6822125735958036 [Eh]
	 Total Energy              =    -653.2378742120305333 [Eh]
	-----------------------------------------------------------
	 ================> DF-SCS-MP2 Energies <================== 
	-----------------------------------------------------------
	 SCS Same-Spin Scale       =       0.3333333333333333 [-]
	 SCS Opposite-Spin Scale   =       1.2000000000000000 [-]
	 SCS Same-Spin Energy      =      -0.2229259005576175 [Eh]
	 SCS Opposite-Spin Energy  =      -2.4161218463075396 [Eh]
	 SCS Correlation Energy    =      -2.6390477468651583 [Eh]
	 SCS Total Energy          =    -653.1947093852998023 [Eh]
	-----------------------------------------------------------


  -Total Gradient:
     Atom            X                  Y                   Z
    ------   -----------------  -----------------  -----------------
       1        0.008933370436    -0.007704165613    -0.008664863405
       2        0.000868229082     0.002523846258     0.005941243893
       3       -0.010407438021     0.007938847049     0.009976783428
       4       -0.014017362514     0.006483755107     0.005357138736
       5       -0.009203347465     0.004842190646     0.000026972811
       6        0.002028966056    -0.011485969098     0.003207535565
       7        0.006055016720     0.007777674513    -0.007696414934
       8       -0.002246215523     0.001072363762    -0.003047512342
       9        0.002808221974    -0.001780917533    -0.003903381753
      10       -0.010330130426    -0.002369803780    -0.000779987102
      11        0.024137750315    -0.008775806296    -0.000307952970
      12        0.001145036675    -0.001084828191    -0.000769352921
      13        0.000245378468    -0.005835290508     0.002303353511
      14       -0.000175481644    -0.000246730604     0.004736718427
      15       -0.001754449854     0.001444870617    -0.005516393920
      16       -0.003467455663     0.002151207432    -0.005349352367
      17       -0.001252533963     0.005429554364    -0.001481268559
      18       -0.003378798009    -0.003914697513     0.003745489535
      19       -0.000294491773     0.000097285434     0.005325870726
      20        0.002120106881     0.000179766186    -0.002121596625
      21        0.001874104169    -0.002250955312    -0.000422942048
      22        0.004463379180    -0.002563600069    -0.002963248166
      23        0.001848144899     0.008071403148     0.002403160467


*** tstop() called on gpu-2-5.local at Sat Nov 11 19:09:14 2017
Module time:
	user time   =    6221.03 seconds =     103.68 minutes
	system time =     334.57 seconds =       5.58 minutes
	total time  =       3172 seconds =      52.87 minutes
Total time:
	user time   =    6221.03 seconds =     103.68 minutes
	system time =     334.57 seconds =       5.58 minutes
	total time  =       3172 seconds =      52.87 minutes

			-----------------------------------------
			 OPTKING 2.0: for geometry optimizations 
			  - R.A. King,  Bethel University        
			-----------------------------------------

	Internal coordinates to be generated automatically.
	Detected frag 1 with atoms:  1 2 3 4 5 6 7 8 9 10 11 12 13 14 15 16 17 18 19 20
	 21 22 23
	---Fragment 1 Bond Connectivity---
	 1 : 2 8 15
	 2 : 1 10 16
	 3 : 6 9 17
	 4 : 7 9 18
	 5 : 10 11 19
	 6 : 3 12 20
	 7 : 4 12 21
	 8 : 1 9 11
	 9 : 3 4 8
	 10 : 2 5 13
	 11 : 5 8 14
	 12 : 6 7 22
	 13 : 10 23
	 14 : 11
	 15 : 1
	 16 : 2
	 17 : 3
	 18 : 4
	 19 : 5
	 20 : 6
	 21 : 7
	 22 : 12
	 23 : 13

	Assuming in current code that numbering for constraints corresponds to unified fragment.
	Fixed dihedral atom list: 
	     2    10    13    23
	---Fragment 1 Geometry and Gradient---
	 C          -2.5302552072        1.4355665501       -1.4855938980
	 C          -4.5673799785        2.5183796242       -0.2138082106
	 C           3.0349882541        0.6664480140       -3.0313898747
	 C           2.0731176525       -3.3681172797       -1.1548918248
	 C          -2.6908819285        1.3543083264        3.7829625605
	 C           5.0456568595       -0.4617184873       -4.2823885747
	 C           4.1083526976       -4.3923488437       -2.4531336780
	 C          -0.5724989336        0.3111795010       -0.1249910823
	 C           1.5383251569       -0.8113178219       -1.4534685538
	 C          -4.6486382022        2.4786953755        2.4204700187
	 C          -0.6537571573        0.2714952522        2.5092871469
	 N           5.5180883927       -2.9278110907       -3.9611351321
	 O          -6.6385198201        3.5369420099        3.6620200880
	 F           1.2132922620       -0.8018691912        3.8453235229
	 H          -2.4943504107        1.4809199773       -3.5397262045
	 H          -6.0886095155        3.3895433715       -1.2852829279
	 H           2.6608224798        2.6657782626       -3.2997309856
	 H           0.9355025205       -4.5662036479        0.0639815310
	 H          -2.7437942602        1.3165138037        5.8352051408
	 H           6.3061041901        0.5379466370       -5.5428359053
	 H           4.6620424545       -6.3557742958       -2.3340809317
	 H           7.0034131332       -3.7196063404       -4.8984392940
	 H          -6.0564841712        4.8824270165        4.7637304234
	             0.0089333704       -0.0077041656       -0.0086648634
	             0.0008682291        0.0025238463        0.0059412439
	            -0.0104074380        0.0079388470        0.0099767834
	            -0.0140173625        0.0064837551        0.0053571387
	            -0.0092033475        0.0048421906        0.0000269728
	             0.0020289661       -0.0114859691        0.0032075356
	             0.0060550167        0.0077776745       -0.0076964149
	            -0.0022462155        0.0010723638       -0.0030475123
	             0.0028082220       -0.0017809175       -0.0039033818
	            -0.0103301304       -0.0023698038       -0.0007799871
	             0.0241377503       -0.0087758063       -0.0003079530
	             0.0011450367       -0.0010848282       -0.0007693529
	             0.0002453785       -0.0058352905        0.0023033535
	            -0.0001754816       -0.0002467306        0.0047367184
	            -0.0017544499        0.0014448706       -0.0055163939
	            -0.0034674557        0.0021512074       -0.0053493524
	            -0.0012525340        0.0054295544       -0.0014812686
	            -0.0033787980       -0.0039146975        0.0037454895
	            -0.0002944918        0.0000972854        0.0053258707
	             0.0021201069        0.0001797662       -0.0021215966
	             0.0018741042       -0.0022509553       -0.0004229420
	             0.0044633792       -0.0025636001       -0.0029632482
	             0.0018481449        0.0080714031        0.0024031605

	Previous optimization step data not found.  Starting new optimization.

	---Fragment 1 Intrafragment Coordinates---
	 - Coordinate -           - BOHR/RAD -       - ANG/DEG -
	 R(1,2)           =         2.634350	       1.394038
	 R(1,8)           =         2.635962	       1.394891
	 R(1,15)          =         2.054947	       1.087431
	 R(2,10)          =         2.635830	       1.394821
	 R(2,16)          =         2.054537	       1.087214
	 R(3,6)           =         2.623079	       1.388074
	 R(3,9)           =         2.629378	       1.391407
	 R(3,17)          =         2.051665	       1.085694
	 R(4,7)           =         2.622339	       1.387682
	 R(4,9)           =         2.629140	       1.391281
	 R(4,18)          =         2.053103	       1.086455
	 R(5,10)          =         2.636938	       1.395407
	 R(5,11)          =         2.635263	       1.394521
	 R(5,19)          =         2.053272	       1.086545
	 R(6,12)          =         2.531404	       1.339561
	 R(6,20)          =         2.043719	       1.081489
	 R(7,12)          =         2.531066	       1.339382
	 R(7,21)          =         2.043474	       1.081360
	 R(8,9)           =         2.735038	       1.447320
	 R(8,11)          =         2.635830	       1.394821
	 R(10,13)         =         2.573123	       1.361638
	 R(11,14)         =         2.534359	       1.341125
	 R(12,22)         =         1.926569	       1.019496
	 R(13,23)         =         1.833811	       0.970411
	 B(1,2,10)        =         2.094553	     120.009056
	 B(1,2,16)        =         2.088723	     119.675016
	 B(1,8,9)         =         2.091569	     119.838095
	 B(1,8,11)        =         2.093692	     119.959722
	 B(2,1,8)         =         2.094940	     120.031219
	 B(2,1,15)        =         2.079469	     119.144799
	 B(2,10,5)        =         2.094306	     119.994870
	 B(2,10,13)       =         2.094247	     119.991510
	 B(3,6,12)        =         2.096160	     120.101096
	 B(3,6,20)        =         2.160978	     123.814942
	 B(3,9,4)         =         2.093156	     119.928982
	 B(3,9,8)         =         2.094542	     120.008404
	 B(4,7,12)        =         2.095824	     120.081885
	 B(4,7,21)        =         2.161239	     123.829863
	 B(4,9,8)         =         2.095488	     120.062613
	 B(5,10,13)       =         2.094633	     120.013619
	 B(5,11,8)        =         2.095181	     120.045019
	 B(5,11,14)       =         2.081414	     119.256220
	 B(6,3,9)         =         2.072362	     118.737620
	 B(6,3,17)        =         2.090402	     119.771194
	 B(6,12,7)        =         2.135730	     122.368334
	 B(6,12,22)       =         2.074333	     118.850498
	 B(7,4,9)         =         2.073138	     118.782073
	 B(7,4,18)        =         2.089816	     119.737652
	 B(7,12,22)       =         2.073122	     118.781161
	 B(8,1,15)        =         2.108776	     120.823969
	 B(8,11,14)       =         2.106591	     120.698759
	 B(9,3,17)        =         2.120421	     121.491171
	 B(9,4,18)        =         2.120230	     121.480258
	 B(9,8,11)        =         2.097924	     120.202184
	 B(10,2,16)       =         2.099909	     120.315896
	 B(10,5,11)       =         2.093699	     119.960108
	 B(10,5,19)       =         2.100355	     120.341451
	 B(10,13,23)      =         1.924295	     110.253969
	 B(11,5,19)       =         2.089132	     119.698439
	 B(12,6,20)       =         2.026047	     116.083959
	 B(12,7,21)       =         2.026122	     116.088250
	 D(1,2,10,5)      =        -0.000325	      -0.018609
	 D(1,2,10,13)     =         3.141388	     179.988267
	 D(1,8,9,3)       =         1.047203	      60.000294
	 D(1,8,9,4)       =        -2.094232	    -119.990639
	 D(1,8,11,5)      =         0.000325	       0.018608
	 D(1,8,11,14)     =        -3.141528	    -179.996269
	 D(2,1,8,9)       =         3.141277	     179.981897
	 D(2,1,8,11)      =        -0.000348	      -0.019945
	 D(2,10,5,11)     =         0.000301	       0.017261
	 D(2,10,5,19)     =        -3.141029	    -179.967685
	 D(2,10,13,23)    =        -2.094782	    -120.022147
	 D(3,6,12,7)      =        -0.000167	      -0.009589
	 D(3,6,12,22)     =         3.140892	     179.959844
	 D(3,9,4,7)       =        -0.000213	      -0.012204
	 D(3,9,4,18)      =        -3.140964	    -179.964007
	 D(3,9,8,11)      =        -2.094358	    -119.997860
	 D(4,7,12,6)      =         0.000492	       0.028196
	 D(4,7,12,22)     =        -3.140567	    -179.941258
	 D(4,9,3,6)       =         0.000525	       0.030092
	 D(4,9,3,17)      =         3.141327	     179.984799
	 D(4,9,8,11)      =         1.047393	      60.011207
	 D(5,10,2,16)     =         3.140149	     179.917291
	 D(5,10,13,23)    =         1.046931	      59.984730
	 D(5,11,8,9)      =        -3.141300	    -179.983240
	 D(6,3,9,8)       =        -3.140909	    -179.960854
	 D(6,12,7,21)     =        -3.140902	    -179.960420
	 D(7,4,9,8)       =         3.141222	     179.978736
	 D(7,12,6,20)     =         3.141065	     179.969740
	 D(8,1,2,10)      =         0.000348	       0.019955
	 D(8,1,2,16)      =        -3.140133	    -179.916358
	 D(8,9,3,17)      =        -0.000107	      -0.006146
	 D(8,9,4,18)      =         0.000470	       0.026933
	 D(8,11,5,10)     =        -0.000301	      -0.017270
	 D(8,11,5,19)     =         3.141030	     179.967774
	 D(9,3,6,12)      =        -0.000344	      -0.019721
	 D(9,3,6,20)      =        -3.141547	    -179.997375
	 D(9,4,7,12)      =        -0.000293	      -0.016764
	 D(9,4,7,21)      =         3.141085	     179.970928
	 D(9,8,1,15)      =         0.000403	       0.023110
	 D(9,8,11,14)     =         0.000033	       0.001883
	 D(10,2,1,15)     =         3.141234	     179.979432
	 D(10,5,11,14)    =         3.141547	     179.997392
	 D(11,5,10,13)    =        -3.141411	    -179.989616
	 D(11,8,1,15)     =        -3.141221	    -179.978731
	 D(12,6,3,17)     =        -3.141160	    -179.975226
	 D(12,7,4,18)     =         3.140474	     179.935898
	 D(13,10,2,16)    =        -0.001324	      -0.075833
	 D(13,10,5,19)    =         0.000444	       0.025437
	 D(14,11,5,19)    =        -0.000307	      -0.017564
	 D(15,1,2,16)     =         0.000753	       0.043120
	 D(17,3,6,20)     =         0.000822	       0.047120
	 D(18,4,7,21)     =        -0.001334	      -0.076410
	 D(20,6,12,22)    =        -0.001062	      -0.060827
	 D(21,7,12,22)    =         0.001224	       0.070126
	 R(4,14)          =         5.685691	       3.008738

	Current energy   :      -653.2378742120

	Generating empirical Hessian (Schlegel '84) for each fragment.
	Adding user-defined constraint: Fragment 1; Coordinate 72:
		Value =    -2.094782; Fixed value    =    -2.094395
		Force =     0.000193; Force constant =     0.500000
	Removing off-diagonal coupling between coordinate 72 and others.
	Taking RFO optimization step.
	Going to follow RFO solution 1.
	Using RFO vector 1.

	Determining step-restricting scale parameter for RS-RFO.
	Maximum step size allowed    0.10000

	 Iter      |step|        alpha        rfo_root  
	------------------------------------------------
	    0     0.30735       1.00000           1
	    1     0.20325       3.75103           1
	    2     0.14854       9.06648           1
	    3     0.11938      17.75521           1
	    4     0.10494      27.00770           1
	    5     0.10044      31.16977           1
	    6     0.10000      31.61725           1
	------------------------------------------------
	Norm of target step-size    0.10000
	Projected energy change by RFO approximation:        -0.0044501011

	Back-transformation to cartesian coordinates...
	Successfully converged to displaced geometry.
	First geometry is closer to target in internal coordinates, so am using that one.
	First geometry has RMS(Delta(q)) = 1.14e-04

	--- Internal Coordinate Step in ANG or DEG, aJ/ANG or AJ/DEG ---
	 ---------------------------------------------------------------------------
	   Coordinate                Previous        Force       Change         New 
	   ----------                --------       ------       ------       ------
	    1 R(1,2)          =      1.394038    -0.076170    -0.008235     1.385803
	    2 R(1,8)          =      1.394891    -0.013596    -0.001267     1.393624
	    3 R(1,15)         =      1.087431    -0.045440    -0.006136     1.081295
	    4 R(2,10)         =      1.394821    -0.052052    -0.005679     1.389142
	    5 R(2,16)         =      1.087214    -0.051651    -0.006924     1.080290
	    6 R(3,6)          =      1.388074    -0.094171    -0.010075     1.377999
	    7 R(3,9)          =      1.391407     0.025549     0.002852     1.394259
	    8 R(3,17)         =      1.085694    -0.047069    -0.006335     1.079360
	    9 R(4,7)          =      1.387682    -0.095092    -0.010149     1.377534
	   10 R(4,9)          =      1.391281     0.033723     0.003854     1.395135
	   11 R(4,18)         =      1.086455    -0.052566    -0.007077     1.079378
	   12 R(5,10)         =      1.395407    -0.043831    -0.004853     1.390554
	   13 R(5,11)         =      1.394521    -0.124717    -0.013638     1.380884
	   14 R(5,19)         =      1.086545    -0.043904    -0.005885     1.080660
	   15 R(6,12)         =      1.339561     0.015470     0.001499     1.341061
	   16 R(6,20)         =      1.081489    -0.022276    -0.002933     1.078556
	   17 R(7,12)         =      1.339382     0.020605     0.002001     1.341383
	   18 R(7,21)         =      1.081360    -0.021800    -0.002879     1.078480
	   19 R(8,9)          =      1.447320     0.089111     0.011486     1.458805
	   20 R(8,11)         =      1.394821    -0.051386    -0.005223     1.389598
	   21 R(10,13)        =      1.361638    -0.012947    -0.001183     1.360455
	   22 R(11,14)        =      1.341125    -0.018830    -0.001639     1.339486
	   23 R(12,22)        =      1.019496    -0.048908    -0.005543     1.013954
	   24 R(13,23)        =      0.970411    -0.065520    -0.006375     0.964036
	   25 B(1,2,10)       =    120.009056    -0.000103    -0.203604   119.805452
	   26 B(1,2,16)       =    119.675016     0.000242     0.612869   120.287885
	   27 B(1,8,9)        =    119.838095     0.000369     0.678541   120.516636
	   28 B(1,8,11)       =    119.959722    -0.000610    -1.244816   118.714905
	   29 B(2,1,8)        =    120.031219     0.000241     0.580534   120.611753
	   30 B(2,1,15)       =    119.144799     0.000056     0.180647   119.325446
	   31 B(2,10,5)       =    119.994870     0.000078     0.153659   120.148530
	   32 B(2,10,13)      =    119.991510    -0.000390    -0.785972   119.205539
	   33 B(3,6,12)       =    120.101096    -0.000323    -0.727878   119.373218
	   34 B(3,6,20)       =    123.814942     0.000063     0.100135   123.915077
	   35 B(3,9,4)        =    119.928982    -0.000501    -1.046107   118.882875
	   36 B(3,9,8)        =    120.008404     0.000171     0.325425   120.333829
	   37 B(4,7,12)       =    120.081885    -0.000322    -0.715143   119.366742
	   38 B(4,7,21)       =    123.829863     0.000061     0.089937   123.919800
	   39 B(4,9,8)        =    120.062613     0.000330     0.720520   120.783133
	   40 B(5,10,13)      =    120.013619     0.000312     0.630656   120.644274
	   41 B(5,11,8)       =    120.045019     0.000619     1.229762   121.274781
	   42 B(5,11,14)      =    119.256220    -0.000023    -0.089024   119.167196
	   43 B(6,3,9)        =    118.737620     0.000422     0.911769   119.649388
	   44 B(6,3,17)       =    119.771194    -0.000189    -0.399714   119.371480
	   45 B(6,12,7)       =    122.368334     0.000326     0.710001   123.078335
	   46 B(6,12,22)      =    118.850498    -0.000170    -0.375601   118.474897
	   47 B(7,4,9)        =    118.782073     0.000398     0.867299   119.649372
	   48 B(7,4,18)       =    119.737652    -0.000180    -0.385421   119.352231
	   49 B(7,12,22)      =    118.781161    -0.000155    -0.334397   118.446764
	   50 B(8,1,15)       =    120.823969    -0.000297    -0.761390   120.062579
	   51 B(8,11,14)      =    120.698759    -0.000597    -1.140892   119.557867
	   52 B(9,3,17)       =    121.491171    -0.000233    -0.512066   120.979105
	   53 B(9,4,18)       =    121.480258    -0.000219    -0.481875   120.998383
	   54 B(9,8,11)       =    120.202184     0.000241     0.566275   120.768459
	   55 B(10,2,16)      =    120.315896    -0.000139    -0.409472   119.906424
	   56 B(10,5,11)      =    119.960108    -0.000225    -0.515590   119.444519
	   57 B(10,5,19)      =    120.341451     0.000131     0.307513   120.648964
	   58 B(10,13,23)     =    110.253969    -0.000044    -0.118106   110.135864
	   59 B(11,5,19)      =    119.698439     0.000094     0.207873   119.906312
	   60 B(12,6,20)      =    116.083959     0.000260     0.627531   116.711490
	   61 B(12,7,21)      =    116.088250     0.000261     0.625174   116.713425
	   62 D(1,2,10,5)     =     -0.018609    -0.000003    -0.020061    -0.038670
	   63 D(1,2,10,13)    =    179.988267     0.000022     0.438310   180.426577
	   64 D(1,8,9,3)      =     60.000294    -0.000048    -1.145132    58.855163
	   65 D(1,8,9,4)      =   -119.990639    -0.000043    -1.005725  -120.996364
	   66 D(1,8,11,5)     =      0.018608    -0.000001    -0.024373    -0.005766
	   67 D(1,8,11,14)    =   -179.996269     0.000004     0.135438  -179.860831
	   68 D(2,1,8,9)      =    179.981897    -0.000002    -0.046387   179.935509
	   69 D(2,1,8,11)     =     -0.019945    -0.000001    -0.043146    -0.063091
	   70 D(2,10,5,11)    =      0.017261     0.000001    -0.046330    -0.029068
	   71 D(2,10,5,19)    =   -179.967685     0.000007     0.103301  -179.864384
	   72 D(2,10,13,23)   =   -120.022147    -0.000026    -0.200008  -120.222155
	   73 D(3,6,12,7)     =     -0.009589     0.000003     0.066923     0.057334
	   74 D(3,6,12,22)    =    179.959844     0.000003     0.071822   180.031666
	   75 D(3,9,4,7)      =     -0.012204     0.000002     0.064475     0.052271
	   76 D(3,9,4,18)     =   -179.964007     0.000002     0.059614  -179.904393
	   77 D(3,9,8,11)     =   -119.997860    -0.000049    -1.148407  -121.146267
	   78 D(4,7,12,6)     =      0.028196    -0.000000    -0.009115     0.019081
	   79 D(4,7,12,22)    =   -179.941258    -0.000000    -0.014000  -179.955258
	   80 D(4,9,3,6)      =      0.030092     0.000000    -0.007133     0.022959
	   81 D(4,9,3,17)     =    179.984799     0.000005     0.098390   180.083189
	   82 D(4,9,8,11)     =     60.011207    -0.000044    -1.009000    59.002207
	   83 D(5,10,2,16)    =    179.917291    -0.000008    -0.132956   179.784335
	   84 D(5,10,13,23)   =     59.984730    -0.000001     0.260728    60.245458
	   85 D(5,11,8,9)     =   -179.983240    -0.000000    -0.021121  -180.004362
	   86 D(6,3,9,8)      =   -179.960854     0.000005     0.129489  -179.831365
	   87 D(6,12,7,21)    =   -179.960420    -0.000003    -0.084118  -180.044539
	   88 D(7,4,9,8)      =    179.978736    -0.000002    -0.072817   179.905919
	   89 D(7,12,6,20)    =    179.969740    -0.000004    -0.074682   179.895058
	   90 D(8,1,2,10)     =      0.019955     0.000004     0.065403     0.085357
	   91 D(8,1,2,16)     =   -179.916358     0.000008     0.179395  -179.736963
	   92 D(8,9,3,17)     =     -0.006146     0.000010     0.235011     0.228865
	   93 D(8,9,4,18)     =      0.026933    -0.000003    -0.077678    -0.050745
	   94 D(8,11,5,10)    =     -0.017270     0.000001     0.068778     0.051508
	   95 D(8,11,5,19)    =    179.967774    -0.000005    -0.079709   179.888065
	   96 D(9,3,6,12)     =     -0.019721    -0.000003    -0.057483    -0.077203
	   97 D(9,3,6,20)     =   -179.997375     0.000004     0.094848  -179.902527
	   98 D(9,4,7,12)     =     -0.016764    -0.000003    -0.057107    -0.073872
	   99 D(9,4,7,21)     =    179.970928     0.000001     0.023684   179.994612
	  100 D(9,8,1,15)     =      0.023110     0.000004     0.084951     0.108061
	  101 D(9,8,11,14)    =      0.001883     0.000005     0.138690     0.140573
	  102 D(10,2,1,15)    =    179.979432    -0.000002    -0.065366   179.914067
	  103 D(10,5,11,14)   =    179.997392    -0.000004    -0.090264   179.907129
	  104 D(11,5,10,13)   =   -179.989616    -0.000024    -0.511473  -180.501089
	  105 D(11,8,1,15)    =   -179.978731     0.000005     0.088193  -179.890539
	  106 D(12,6,3,17)    =   -179.975226    -0.000007    -0.161233  -180.136459
	  107 D(12,7,4,18)    =    179.935898    -0.000002    -0.052388   179.883510
	  108 D(13,10,2,16)   =     -0.075833     0.000017     0.325414     0.249581
	  109 D(13,10,5,19)   =      0.025437    -0.000018    -0.361841    -0.336404
	  110 D(14,11,5,19)   =     -0.017564    -0.000010    -0.238751    -0.256314
	  111 D(15,1,2,16)    =      0.043120     0.000003     0.048627     0.091747
	  112 D(17,3,6,20)    =      0.047120    -0.000000    -0.008902     0.038218
	  113 D(18,4,7,21)    =     -0.076410     0.000001     0.028404    -0.048006
	  114 D(20,6,12,22)   =     -0.060827    -0.000003    -0.069783    -0.130610
	  115 D(21,7,12,22)   =      0.070126    -0.000004    -0.089004    -0.018878
	  116 R(4,14)         =      3.008738    -0.009553    -0.005088     3.003650
	 ---------------------------------------------------------------------------
	Successfully symmetrized geometry.
	 Forces used to impose fixed constraints are not included.
	  Forces zeroed: 72 

  ==> Convergence Check <==

  Measures of convergence in internal coordinates in au.
  Criteria marked as inactive (o), active & met (*), and active & unmet ( ).
  --------------------------------------------------------------------------------------------- ~
   Step     Total Energy     Delta E     MAX Force     RMS Force      MAX Disp      RMS Disp    ~
  --------------------------------------------------------------------------------------------- ~
    Convergence Criteria    1.00e-06 *    3.00e-04 *             o    1.20e-03 *             o  ~
  --------------------------------------------------------------------------------------------- ~
      1    -653.23787421   -6.53e+02      1.51e-02      3.87e-03 o    2.58e-02      9.28e-03 o  ~
  ---------------------------------------------------------------------------------------------

	Writing optimization data to binary file.
	Structure for next step:
	Cartesian Geometry (in Angstrom)
	    C    -1.3427581295   0.7765937979  -0.7712988355
	    C    -2.4139293036   1.3478345450  -0.1029235364
	    C     1.6112287286   0.3377790056  -1.6180239633
	    C     1.1190101000  -1.7868963391  -0.6115661376
	    C    -1.4308176751   0.7133998759   2.0029458893
	    C     2.6691763687  -0.2460847809  -2.2803924304
	    C     2.1865117432  -2.3315458713  -1.2908276934
	    C    -0.3076509627   0.1681770166  -0.0637882745
	    C     0.8182737886  -0.4337509237  -0.7695422077
	    C    -2.4577753700   1.3165608582   1.2851742229
	    C    -0.3700885381   0.1467839848   1.3242415911
	    N     2.9210714727  -1.5504162007  -2.0967849314
	    O    -3.5193636478   1.8733246258   1.9285108055
	    F     0.6170512853  -0.4310978838   2.0212577576
	    H    -1.3172240448   0.8041221635  -1.8519414834
	    H    -3.2155803412   1.8143657077  -0.6567560090
	    H     1.4098653888   1.3880790055  -1.7641058838
	    H     0.5269355577  -2.4160932796   0.0354390606
	    H    -1.4577637504   0.6825408557   3.0828286071
	    H     3.3267001979   0.2850502976  -2.9503483090
	    H     2.4801506639  -3.3668432083  -1.2197241125
	    H     3.7031703287  -1.9659179762  -2.5905274260
	    H    -3.2201217755   2.5784240174   2.5138773629
			--------------------------
			 OPTKING Finished Execution 
			--------------------------

    Structure for next step:
    Molecular point group: c1
    Full point group: C1

    Geometry (in Angstrom), charge = 1, multiplicity = 1:

    C           -1.340458133608     0.776744750100    -0.769668152628
    C           -2.411629307693     1.347985497141    -0.101292853454
    C            1.613528724440     0.337929957757    -1.616393280369
    C            1.121310095852    -1.786745386905    -0.609935454682
    C           -1.428517679209     0.713550828043     2.004576572168
    C            2.671476364572    -0.245933828679    -2.278761747459
    C            2.188811739076    -2.331394919071    -1.289197010492
    C           -0.305350966878     0.168327968832    -0.062157591615
    C            0.820573784482    -0.433599971480    -0.767911524785
    C           -2.455475374117     1.316711810383     1.286804905823
    C           -0.367788542199     0.146934937026     1.325872273994
    N            2.923371468588    -1.550265248479    -2.095154248527
    O           -3.517063651939     1.873475578017     1.930141488424
    F            0.619351281199    -0.430946931586     2.022888440458
    H           -1.314924048966     0.804273115677    -1.850310800547
    H           -3.213280345350     1.814516659886    -0.655125326139
    H            1.412165384614     1.388229957693    -1.762475200938
    H            0.529235553582    -2.415942327388     0.037069743490
    H           -1.455463754529     0.682691807869     3.084459290032
    H            3.329000193783     0.285201249824    -2.948717626135
    H            2.482450659723    -3.366692256097    -1.218093429593
    H            3.705470324593    -1.965767024059    -2.588896743144
    H           -3.217821779612     2.578574969631     2.515508045771

gradient() will perform analytic gradient computation.

*** tstart() called on gpu-2-5.local
*** at Sat Nov 11 19:09:16 2017

    SCF Algorithm Type (re)set to DF.

*** tstart() called on gpu-2-5.local
*** at Sat Nov 11 19:09:16 2017

   => Loading Basis Set <=

    Name: AUG-CC-PVTZ
    Role: ORBITAL
    Keyword: BASIS
    atoms 1-11  entry C          line   221 file /cbio/jclab/home/chayas/anaconda/envs/py35/share/psi4/basis/aug-cc-pvtz.gbs 
    atoms 12    entry N          line   267 file /cbio/jclab/home/chayas/anaconda/envs/py35/share/psi4/basis/aug-cc-pvtz.gbs 
    atoms 13    entry O          line   313 file /cbio/jclab/home/chayas/anaconda/envs/py35/share/psi4/basis/aug-cc-pvtz.gbs 
    atoms 14    entry F          line   359 file /cbio/jclab/home/chayas/anaconda/envs/py35/share/psi4/basis/aug-cc-pvtz.gbs 
    atoms 15-23 entry H          line    34 file /cbio/jclab/home/chayas/anaconda/envs/py35/share/psi4/basis/aug-cc-pvtz.gbs 


         ---------------------------------------------------------
                                   SCF
            by Justin Turney, Rob Parrish, and Andy Simmonett
                              RHF Reference
                        8 Threads,   4768 MiB Core
         ---------------------------------------------------------

  ==> Geometry <==

    Molecular point group: c1
    Full point group: C1

    Geometry (in Angstrom), charge = 1, multiplicity = 1:

       Center              X                  Y                   Z               Mass       
    ------------   -----------------  -----------------  -----------------  -----------------
           C         -1.340458133608     0.776744750100    -0.769668152628    12.000000000000
           C         -2.411629307693     1.347985497141    -0.101292853454    12.000000000000
           C          1.613528724440     0.337929957757    -1.616393280369    12.000000000000
           C          1.121310095852    -1.786745386905    -0.609935454682    12.000000000000
           C         -1.428517679209     0.713550828043     2.004576572168    12.000000000000
           C          2.671476364572    -0.245933828679    -2.278761747459    12.000000000000
           C          2.188811739076    -2.331394919071    -1.289197010492    12.000000000000
           C         -0.305350966878     0.168327968832    -0.062157591615    12.000000000000
           C          0.820573784482    -0.433599971480    -0.767911524785    12.000000000000
           C         -2.455475374117     1.316711810383     1.286804905823    12.000000000000
           C         -0.367788542199     0.146934937026     1.325872273994    12.000000000000
           N          2.923371468588    -1.550265248479    -2.095154248527    14.003074004780
           O         -3.517063651939     1.873475578017     1.930141488424    15.994914619560
           F          0.619351281199    -0.430946931586     2.022888440458    18.998403224000
           H         -1.314924048966     0.804273115677    -1.850310800547     1.007825032070
           H         -3.213280345350     1.814516659886    -0.655125326139     1.007825032070
           H          1.412165384614     1.388229957693    -1.762475200938     1.007825032070
           H          0.529235553582    -2.415942327388     0.037069743490     1.007825032070
           H         -1.455463754529     0.682691807869     3.084459290032     1.007825032070
           H          3.329000193783     0.285201249824    -2.948717626135     1.007825032070
           H          2.482450659723    -3.366692256097    -1.218093429593     1.007825032070
           H          3.705470324593    -1.965767024059    -2.588896743144     1.007825032070
           H         -3.217821779612     2.578574969631     2.515508045771     1.007825032070

  Running in c1 symmetry.

  Rotational constants: A =      0.06344  B =      0.01285  C =      0.01147 [cm^-1]
  Rotational constants: A =   1902.00411  B =    385.09520  C =    343.78032 [MHz]
  Nuclear repulsion =  830.220426921628359

  Charge       = 1
  Multiplicity = 1
  Electrons    = 98
  Nalpha       = 49
  Nbeta        = 49

  ==> Algorithm <==

  SCF Algorithm Type is DF.
  DIIS enabled.
  MOM disabled.
  Fractional occupation disabled.
  Guess Type is READ.
  Energy threshold   = 1.00e-10
  Density threshold  = 1.00e-10
  Integral threshold = 0.00e+00

  ==> Primary Basis <==

  Basis Set: AUG-CC-PVTZ
    Blend: AUG-CC-PVTZ
    Number of shells: 277
    Number of basis function: 851
    Number of Cartesian functions: 995
    Spherical Harmonics?: true
    Max angular momentum: 3

   => Loading Basis Set <=

    Name: (AUG-CC-PVTZ AUX)
    Role: JKFIT
    Keyword: DF_BASIS_SCF
    atoms 1-11  entry C          line   161 file /cbio/jclab/home/chayas/anaconda/envs/py35/share/psi4/basis/aug-cc-pvtz-jkfit.gbs 
    atoms 12    entry N          line   223 file /cbio/jclab/home/chayas/anaconda/envs/py35/share/psi4/basis/aug-cc-pvtz-jkfit.gbs 
    atoms 13    entry O          line   285 file /cbio/jclab/home/chayas/anaconda/envs/py35/share/psi4/basis/aug-cc-pvtz-jkfit.gbs 
    atoms 14    entry F          line   347 file /cbio/jclab/home/chayas/anaconda/envs/py35/share/psi4/basis/aug-cc-pvtz-jkfit.gbs 
    atoms 15-23 entry H          line    69 file /cbio/jclab/home/chayas/anaconda/envs/py35/share/psi4/basis/aug-cc-pvtz-jkfit.gbs 

  Reading orbitals from file 180, no projection.

  ==> Pre-Iterations <==

   -------------------------------------------------------
    Irrep   Nso     Nmo     Nalpha   Nbeta   Ndocc  Nsocc
   -------------------------------------------------------
     A        851     851       0       0       0       0
   -------------------------------------------------------
    Total     851     851      49      49      49       0
   -------------------------------------------------------

  ==> Integral Setup <==

  ==> DFJK: Density-Fitted J/K Matrices <==

    J tasked:                  Yes
    K tasked:                  Yes
    wK tasked:                  No
    OpenMP threads:              8
    Integrals threads:           8
    Memory (MB):              3576
    Algorithm:                Disk
    Integral Cache:           NONE
    Schwarz Cutoff:          1E-12
    Fitting Condition:       1E-12

   => Auxiliary Basis Set <=

  Basis Set: (AUG-CC-PVTZ AUX)
    Blend: AUG-CC-PVTZ-JKFIT
    Number of shells: 546
    Number of basis function: 1870
    Number of Cartesian functions: 2329
    Spherical Harmonics?: true
    Max angular momentum: 4

  Minimum eigenvalue in the overlap matrix is 6.8808044217E-07.
  Using Symmetric Orthogonalization.

  SCF Guess: Orbitals guess was supplied from a previous computation.

  ==> Iterations <==

                           Total Energy        Delta E     RMS |[F,P]|

   @DF-RHF iter   0:  -650.60616136477324   -6.50606e+02   2.89292e-04 
   @DF-RHF iter   1:  -650.56025141369867    4.59100e-02   5.11134e-05 
   @DF-RHF iter   2:  -650.56046196797479   -2.10554e-04   3.23328e-05 DIIS
   @DF-RHF iter   3:  -650.56057522867400   -1.13261e-04   6.76847e-06 DIIS
   @DF-RHF iter   4:  -650.56058212112009   -6.89245e-06   2.59538e-06 DIIS
   @DF-RHF iter   5:  -650.56058380850493   -1.68738e-06   1.01289e-06 DIIS
   @DF-RHF iter   6:  -650.56058412152549   -3.13021e-07   4.64074e-07 DIIS
   @DF-RHF iter   7:  -650.56058420915986   -8.76344e-08   2.20450e-07 DIIS
   @DF-RHF iter   8:  -650.56058423392824   -2.47684e-08   8.16346e-08 DIIS
   @DF-RHF iter   9:  -650.56058423787374   -3.94550e-09   3.63369e-08 DIIS
   @DF-RHF iter  10:  -650.56058423828767   -4.13934e-10   1.12643e-08 DIIS
   @DF-RHF iter  11:  -650.56058423835725   -6.95763e-11   3.02466e-09 DIIS
   @DF-RHF iter  12:  -650.56058423833781    1.94404e-11   1.37291e-09 DIIS
   @DF-RHF iter  13:  -650.56058423834190   -4.09273e-12   6.36268e-10 DIIS
   @DF-RHF iter  14:  -650.56058423834929   -7.38964e-12   2.58024e-10 DIIS
   @DF-RHF iter  15:  -650.56058423837158   -2.22826e-11   1.25868e-10 DIIS
   @DF-RHF iter  16:  -650.56058423835066    2.09184e-11   5.37372e-11 DIIS

  ==> Post-Iterations <==

    Orbital Energies (a.u.)
    -----------------------

    Doubly Occupied:                                                      

       1A    -26.441341     2A    -20.693101     3A    -15.843059  
       4A    -11.490075     5A    -11.488344     6A    -11.464380  
       7A    -11.456263     8A    -11.430062     9A    -11.421218  
      10A    -11.419911    11A    -11.382056    12A    -11.380723  
      13A    -11.357575    14A    -11.351551    15A     -1.761365  
      16A     -1.519106    17A     -1.514121    18A     -1.325179  
      19A     -1.274290    20A     -1.246811    21A     -1.165517  
      22A     -1.153625    23A     -1.072646    24A     -1.064284  
      25A     -0.988186    26A     -0.971839    27A     -0.964386  
      28A     -0.889527    29A     -0.875688    30A     -0.861145  
      31A     -0.850724    32A     -0.827989    33A     -0.821966  
      34A     -0.808922    35A     -0.802756    36A     -0.781437  
      37A     -0.757415    38A     -0.749771    39A     -0.737174  
      40A     -0.717888    41A     -0.713658    42A     -0.672974  
      43A     -0.655216    44A     -0.630692    45A     -0.608845  
      46A     -0.580830    47A     -0.543989    48A     -0.471165  
      49A     -0.455464  

    Virtual:                                                              

      50A     -0.108385    51A     -0.086800    52A     -0.065928  
      53A     -0.063716    54A     -0.058395    55A     -0.051110  
      56A     -0.042888    57A     -0.039394    58A     -0.035691  
      59A     -0.029842    60A     -0.024046    61A     -0.019264  
      62A     -0.014562    63A     -0.010320    64A     -0.006546  
      65A     -0.004217    66A      0.002325    67A      0.005965  
      68A      0.008795    69A      0.012358    70A      0.015305  
      71A      0.018228    72A      0.023947    73A      0.026873  
      74A      0.029826    75A      0.033327    76A      0.034862  
      77A      0.038676    78A      0.040834    79A      0.043283  
      80A      0.047278    81A      0.052120    82A      0.053862  
      83A      0.060378    84A      0.064258    85A      0.067414  
      86A      0.071252    87A      0.075083    88A      0.080572  
      89A      0.082746    90A      0.087140    91A      0.091722  
      92A      0.093313    93A      0.101510    94A      0.105760  
      95A      0.111144    96A      0.116667    97A      0.117690  
      98A      0.123685    99A      0.128277   100A      0.133291  
     101A      0.135617   102A      0.139148   103A      0.140928  
     104A      0.143564   105A      0.151227   106A      0.153905  
     107A      0.157253   108A      0.159865   109A      0.163098  
     110A      0.166837   111A      0.169375   112A      0.171586  
     113A      0.176289   114A      0.181167   115A      0.187750  
     116A      0.192428   117A      0.196461   118A      0.196812  
     119A      0.198389   120A      0.205702   121A      0.208917  
     122A      0.212097   123A      0.215386   124A      0.220095  
     125A      0.221501   126A      0.227684   127A      0.230532  
     128A      0.234584   129A      0.237047   130A      0.243074  
     131A      0.249941   132A      0.250854   133A      0.252526  
     134A      0.254653   135A      0.256362   136A      0.260875  
     137A      0.270166   138A      0.271776   139A      0.277941  
     140A      0.280990   141A      0.282136   142A      0.288220  
     143A      0.291628   144A      0.302251   145A      0.305608  
     146A      0.307978   147A      0.314765   148A      0.318793  
     149A      0.319443   150A      0.321960   151A      0.323373  
     152A      0.328627   153A      0.333093   154A      0.335859  
     155A      0.336544   156A      0.343055   157A      0.346333  
     158A      0.348722   159A      0.351174   160A      0.353392  
     161A      0.360547   162A      0.369804   163A      0.370117  
     164A      0.371363   165A      0.377695   166A      0.382106  
     167A      0.382847   168A      0.384798   169A      0.385944  
     170A      0.392268   171A      0.398013   172A      0.401596  
     173A      0.404492   174A      0.407624   175A      0.411522  
     176A      0.411924   177A      0.419626   178A      0.423761  
     179A      0.425084   180A      0.427033   181A      0.430551  
     182A      0.437880   183A      0.441068   184A      0.445633  
     185A      0.449993   186A      0.454966   187A      0.457896  
     188A      0.467826   189A      0.470571   190A      0.472338  
     191A      0.481943   192A      0.486412   193A      0.488885  
[...]
	 D(6,3,9,8)       =        -3.123895	    -178.986013
	 D(6,12,7,21)     =         3.131662	     179.431011
	 D(7,4,9,8)       =         3.121809	     178.866457
	 D(7,12,6,20)     =         3.129961	     179.333571
	 D(8,1,2,10)      =         0.001332	       0.076345
	 D(8,1,2,16)      =        -3.123147	    -178.943139
	 D(8,9,3,17)      =         0.050093	       2.870089
	 D(8,9,4,18)      =         0.002661	       0.152474
	 D(8,11,5,10)     =         0.005840	       0.334588
	 D(8,11,5,19)     =         3.139111	     179.857784
	 D(9,3,6,12)      =        -0.000717	      -0.041098
	 D(9,3,6,20)      =        -3.129254	    -179.293023
	 D(9,4,7,12)      =         0.004226	       0.242141
	 D(9,4,7,21)      =        -3.129240	    -179.292228
	 D(9,8,1,15)      =         0.035303	       2.022720
	 D(9,8,11,14)     =         0.032113	       1.839932
	 D(10,2,1,15)     =         3.104424	     177.870408
	 D(10,5,11,14)    =         3.115350	     178.496382
	 D(11,5,10,13)    =         3.097575	     177.477997
	 D(11,8,1,15)     =        -3.107650	    -178.055204
	 D(12,6,3,17)     =         3.109210	     178.144626
	 D(12,7,4,18)     =         3.123925	     178.987711
	 D(13,10,2,16)    =         0.022898	       1.311943
	 D(13,10,5,19)    =        -0.035569	      -2.037969
	 D(14,11,5,19)    =        -0.034565	      -1.980421
	 D(15,1,2,16)     =        -0.020055	      -1.149076
	 D(17,3,6,20)     =        -0.019326	      -1.107299
	 D(18,4,7,21)     =        -0.009541	      -0.546658
	 D(20,6,12,22)    =        -0.008501	      -0.487044
	 D(21,7,12,22)    =        -0.013061	      -0.748357
	 R(4,14)          =         5.224092	       2.764470

	Current energy   :      -653.2446495822

	Energy change for the previous step:
		Projected    :        -0.0000002880
		Actual       :         0.0000007257

	Performing BFGS update.
	Previous computed or guess Hessian on step 1.
	Steps to be used in Hessian update: 25 24
	Adding user-defined constraint: Fragment 1; Coordinate 72:
		Value =    -2.096419; Fixed value    =    -2.094400
		Force =     0.002272; Force constant =     1.125000
	Removing off-diagonal coupling between coordinate 72 and others.
	Taking RFO optimization step.
	Going to follow RFO solution 1.
	Rejecting RFO root 1 because normalization gives large value.
	Rejecting RFO root 2 because normalization gives large value.
	Using RFO vector 3.
	Norm of target step-size    0.00475
	Projected energy change by RFO approximation:        -0.0000002310

	Back-transformation to cartesian coordinates...
	Successfully converged to displaced geometry.

	--- Internal Coordinate Step in ANG or DEG, aJ/ANG or AJ/DEG ---
	 ---------------------------------------------------------------------------
	   Coordinate                Previous        Force       Change         New 
	   ----------                --------       ------       ------       ------
	    1 R(1,2)          =      1.378500    -0.000049     0.000022     1.378523
	    2 R(1,8)          =      1.400369    -0.000481    -0.000070     1.400299
	    3 R(1,15)         =      1.079478    -0.000013    -0.000006     1.079471
	    4 R(2,10)         =      1.391333    -0.000398    -0.000037     1.391296
	    5 R(2,16)         =      1.077905    -0.000267    -0.000068     1.077837
	    6 R(3,6)          =      1.372409     0.000068     0.000013     1.372423
	    7 R(3,9)          =      1.400330    -0.000413    -0.000063     1.400267
	    8 R(3,17)         =      1.077559     0.000012    -0.000014     1.077545
	    9 R(4,7)          =      1.373205    -0.000038    -0.000011     1.373194
	   10 R(4,9)          =      1.400843    -0.000063     0.000027     1.400870
	   11 R(4,18)         =      1.075841    -0.000357    -0.000151     1.075690
	   12 R(5,10)         =      1.389022    -0.000236     0.000009     1.389031
	   13 R(5,11)         =      1.374966    -0.000368    -0.000095     1.374871
	   14 R(5,19)         =      1.078224    -0.000052    -0.000008     1.078216
	   15 R(6,12)         =      1.342553    -0.000035     0.000027     1.342580
	   16 R(6,20)         =      1.077202    -0.000311    -0.000081     1.077121
	   17 R(7,12)         =      1.342366    -0.000244     0.000008     1.342374
	   18 R(7,21)         =      1.077186    -0.000088    -0.000016     1.077170
	   19 R(8,9)          =      1.447878    -0.000353    -0.000129     1.447749
	   20 R(8,11)         =      1.394230    -0.000437    -0.000108     1.394123
	   21 R(10,13)        =      1.358334    -0.000327    -0.000054     1.358280
	   22 R(11,14)        =      1.344303    -0.000323    -0.000056     1.344247
	   23 R(12,22)        =      1.012146     0.000038    -0.000001     1.012144
	   24 R(13,23)        =      0.962867    -0.000037     0.000018     0.962885
	   25 B(1,2,10)       =    119.837701     0.000001     0.006156   119.843857
	   26 B(1,2,16)       =    121.159143     0.000000     0.001149   121.160292
	   27 B(1,8,9)        =    120.755944    -0.000001     0.018656   120.774601
	   28 B(1,8,11)       =    116.815345     0.000001     0.005770   116.821115
	   29 B(2,1,8)        =    121.526554    -0.000001    -0.012158   121.514396
	   30 B(2,1,15)       =    119.026373     0.000001     0.022633   119.049007
	   31 B(2,10,5)       =    120.063062    -0.000000     0.000392   120.063454
	   32 B(2,10,13)      =    118.613387    -0.000001    -0.006661   118.606726
	   33 B(3,6,12)       =    119.291006     0.000002     0.009078   119.300085
	   34 B(3,6,20)       =    123.678521     0.000000     0.007894   123.686415
	   35 B(3,9,4)        =    117.131301    -0.000000     0.006915   117.138216
	   36 B(3,9,8)        =    120.371920    -0.000001     0.011477   120.383398
	   37 B(4,7,12)       =    119.581151     0.000001     0.003825   119.584976
	   38 B(4,7,21)       =    123.465309     0.000001     0.013159   123.478468
	   39 B(4,9,8)        =    122.490786     0.000001    -0.019558   122.471228
	   40 B(5,10,13)      =    121.294387     0.000002     0.006628   121.301015
	   41 B(5,11,8)       =    122.832209     0.000001     0.008809   122.841018
	   42 B(5,11,14)      =    118.019398    -0.000000     0.017121   118.036519
	   43 B(6,3,9)        =    120.868337    -0.000001    -0.008151   120.860186
	   44 B(6,3,17)       =    118.402211     0.000002     0.021593   118.423803
	   45 B(6,12,7)       =    122.592189    -0.000002    -0.008022   122.584167
	   46 B(6,12,22)      =    118.708832     0.000001     0.005161   118.713993
	   47 B(7,4,9)        =    120.535552     0.000000    -0.003606   120.531947
	   48 B(7,4,18)       =    118.478928     0.000000     0.012473   118.491401
	   49 B(7,12,22)      =    118.698743     0.000001     0.002893   118.701635
	   50 B(8,1,15)       =    119.410737    -0.000000    -0.010752   119.399985
	   51 B(8,11,14)      =    119.123354    -0.000000    -0.024386   119.098968
	   52 B(9,3,17)       =    120.704227    -0.000001    -0.013349   120.690878
	   53 B(9,4,18)       =    120.973394    -0.000001    -0.008957   120.964437
	   54 B(9,8,11)       =    122.428663     0.000001    -0.024479   122.404184
	   55 B(10,2,16)      =    118.996035    -0.000000    -0.007190   118.988846
	   56 B(10,5,11)      =    118.923026    -0.000000    -0.009016   118.914010
	   57 B(10,5,19)      =    121.268381    -0.000001    -0.007927   121.260453
	   58 B(10,13,23)     =    110.705464     0.000000     0.000558   110.706022
	   59 B(11,5,19)      =    119.806830     0.000001     0.017209   119.824040
	   60 B(12,6,20)      =    117.026494    -0.000002    -0.016749   117.009745
	   61 B(12,7,21)      =    116.952000    -0.000002    -0.016935   116.935064
	   62 D(1,2,10,5)     =      0.332585    -0.000001     0.003609     0.336194
	   63 D(1,2,10,13)    =   -177.728753     0.000001    -0.008476  -177.737228
	   64 D(1,8,9,3)      =     31.641254    -0.000000    -0.047589    31.593665
	   65 D(1,8,9,4)      =   -147.442326     0.000000     0.037532  -147.404795
	   66 D(1,8,11,5)     =      0.061665     0.000000     0.051373     0.113039
	   67 D(1,8,11,14)    =   -178.080733    -0.000000    -0.007092  -178.087825
	   68 D(2,1,8,9)      =    179.808486    -0.000000    -0.001971   179.806515
	   69 D(2,1,8,11)     =     -0.269437    -0.000000    -0.036824    -0.306261
	   70 D(2,10,5,11)    =     -0.530319     0.000001     0.009754    -0.520564
	   71 D(2,10,5,19)    =    179.953715     0.000001    -0.028383   179.925332
	   72 D(2,10,13,23)   =   -120.115986    -0.000006     0.022879  -120.093108
	   73 D(3,6,12,7)     =      0.032403    -0.000000    -0.003603     0.028801
	   74 D(3,6,12,22)    =   -179.788212    -0.000000    -0.015827  -179.804039
	   75 D(3,9,4,7)      =     -0.245137     0.000000     0.020444    -0.224694
	   76 D(3,9,4,18)     =   -178.959120     0.000000     0.025001  -178.934119
	   77 D(3,9,8,11)     =   -148.276354    -0.000000    -0.010776  -148.287130
	   78 D(4,7,12,6)     =     -0.133221    -0.000000    -0.010534    -0.143754
	   79 D(4,7,12,22)    =    179.687412    -0.000000     0.001693   179.689105
	   80 D(4,9,3,6)      =      0.145439    -0.000000    -0.034631     0.110808
	   81 D(4,9,3,17)     =   -177.998458    -0.000000    -0.038450  -178.036908
	   82 D(4,9,8,11)     =     32.640066     0.000000     0.074345    32.714410
	   83 D(5,10,2,16)    =    179.373280    -0.000001     0.011448   179.384728
	   84 D(5,10,13,23)   =     61.847562    -0.000004     0.010769    61.858331
	   85 D(5,11,8,9)     =    179.982330     0.000000     0.015942   179.998273
	   86 D(6,3,9,8)      =   -178.986013     0.000000     0.046308  -178.939706
	   87 D(6,12,7,21)    =    179.431011     0.000000    -0.003486   179.427525
	   88 D(7,4,9,8)      =    178.866457    -0.000000    -0.062021   178.804435
	   89 D(7,12,6,20)    =    179.333571     0.000000     0.016344   179.349915
	   90 D(8,1,2,10)     =      0.076345     0.000001     0.010721     0.087066
	   91 D(8,1,2,16)     =   -178.943139     0.000000     0.002789  -178.940351
	   92 D(8,9,3,17)     =      2.870089     0.000000     0.042489     2.912579
	   93 D(8,9,4,18)     =      0.152474    -0.000000    -0.057463     0.095010
	   94 D(8,11,5,10)    =      0.334588    -0.000001    -0.038576     0.296011
	   95 D(8,11,5,19)    =    179.857784    -0.000000    -0.001121   179.856663
	   96 D(9,3,6,12)     =     -0.041098     0.000000     0.026863    -0.014235
	   97 D(9,3,6,20)     =   -179.293023     0.000000     0.005686  -179.287337
	   98 D(9,4,7,12)     =      0.242141    -0.000000     0.001456     0.243597
	   99 D(9,4,7,21)     =   -179.292228    -0.000000    -0.005936  -179.298164
	  100 D(9,8,1,15)     =      2.022720     0.000000     0.005945     2.028664
	  101 D(9,8,11,14)    =      1.839932    -0.000000    -0.042523     1.797409
	  102 D(10,2,1,15)    =    177.870408     0.000000     0.002115   177.872523
	  103 D(10,5,11,14)   =    178.496382    -0.000000     0.018573   178.514955
	  104 D(11,5,10,13)   =    177.477997    -0.000001     0.021905   177.499902
	  105 D(11,8,1,15)    =   -178.055204     0.000000    -0.028908  -178.084112
	  106 D(12,6,3,17)    =    178.144626     0.000000     0.029975   178.174601
	  107 D(12,7,4,18)    =    178.987711    -0.000000    -0.003257   178.984454
	  108 D(13,10,2,16)   =      1.311943     0.000001    -0.000637     1.311306
	  109 D(13,10,5,19)   =     -2.037969    -0.000001    -0.016232    -2.054202
	  110 D(14,11,5,19)   =     -1.980421     0.000000     0.056028    -1.924393
	  111 D(15,1,2,16)    =     -1.149076    -0.000000    -0.005818    -1.154894
	  112 D(17,3,6,20)    =     -1.107299     0.000000     0.008798    -1.098501
	  113 D(18,4,7,21)    =     -0.546658    -0.000000    -0.010649    -0.557307
	  114 D(20,6,12,22)   =     -0.487044     0.000000     0.004120    -0.482924
	  115 D(21,7,12,22)   =     -0.748357     0.000000     0.008741    -0.739616
	  116 R(4,14)         =      2.764470    -0.000359    -0.001479     2.762991
	 ---------------------------------------------------------------------------
	Successfully symmetrized geometry.
	 Forces used to impose fixed constraints are not included.
	  Forces zeroed: 72 

  ==> Convergence Check <==

  Measures of convergence in internal coordinates in au.
  Criteria marked as inactive (o), active & met (*), and active & unmet ( ).
  ---------------------------------------------------------------------------------------------
   Step     Total Energy     Delta E     MAX Force     RMS Force      MAX Disp      RMS Disp   
  ---------------------------------------------------------------------------------------------
    Convergence Criteria    1.00e-06 *    3.00e-04 *             o    1.20e-03 *             o
  ---------------------------------------------------------------------------------------------
     26    -653.24464958    7.26e-07 *    2.28e-04 *    3.18e-05 o    2.79e-03      4.41e-04 o  ~
  ---------------------------------------------------------------------------------------------


  **** Optimization is complete! (in 26 steps) ****

  ==> Optimization Summary <==

  Measures of convergence in internal coordinates in au.
  --------------------------------------------------------------------------------------------------------------- ~
   Step         Total Energy             Delta E       MAX Force       RMS Force        MAX Disp        RMS Disp  ~
  --------------------------------------------------------------------------------------------------------------- ~
      1    -653.237874212031   -653.237874212031      0.01513797      0.00387309      0.02577116      0.00928162  ~
      2    -653.240448974381     -0.002574762351      0.00384843      0.00123227      0.04361387      0.00926412  ~
      3    -653.241273346171     -0.000824371790      0.00266240      0.00061932      0.04771657      0.00928223  ~
      4    -653.241847797644     -0.000574451473      0.00256335      0.00052521      0.04720647      0.00924446  ~
      5    -653.242377655580     -0.000529857936      0.00241947      0.00050335      0.04652206      0.00923596  ~
      6    -653.242867979205     -0.000490323625      0.00219998      0.00048170      0.04538782      0.00923134  ~
      7    -653.243321799067     -0.000453819862      0.00207721      0.00044135      0.04586205      0.00922873  ~
      8    -653.243725920887     -0.000404121820      0.00194064      0.00038768      0.04882875      0.00922596  ~
      9    -653.244069493638     -0.000343572752      0.00167444      0.00032895      0.05061470      0.00922463  ~
     10    -653.244343324605     -0.000273830967      0.00127841      0.00026879      0.05059105      0.00922390  ~
     11    -653.244539085531     -0.000195760926      0.00109987      0.00021128      0.04807501      0.00922423  ~
     12    -653.244649869428     -0.000110783897      0.00110576      0.00016835      0.03597296      0.00735604  ~
     13    -653.244672848566     -0.000022979138      0.00093323      0.00012737      0.00642779      0.00077353  ~
     14    -653.244662347047      0.000010501519      0.00020151      0.00002771      0.00280773      0.00049980  ~
     15    -653.244660699519      0.000001647528      0.00013343      0.00001778      0.00220463      0.00040769  ~
     16    -653.244659566552      0.000001132967      0.00010346      0.00001510      0.05148743      0.00925480  ~
     17    -653.244558829289      0.000100737263      0.00206772      0.00034995      0.03500027      0.00618448  ~
     18    -653.244666102089     -0.000107272800      0.00136072      0.00018117      0.04532072      0.00929173  ~
     19    -653.244226854027      0.000439248063      0.01201189      0.00199946      0.03268651      0.00927709  ~
     20    -653.244354570388     -0.000127716361      0.00709336      0.00106158      0.02977501      0.00928240  ~
     21    -653.244642843146     -0.000288272758      0.00040653      0.00012954      0.01013159      0.00224188  ~
     22    -653.244656301381     -0.000013458235      0.00021495      0.00005912      0.00725312      0.00137755  ~
     23    -653.244651179777      0.000005121604      0.00030194      0.00007628      0.00802606      0.00139023  ~
     24    -653.244646556162      0.000004623615      0.00060802      0.00009170      0.00649813      0.00096693  ~
     25    -653.244650307840     -0.000003751678      0.00025407      0.00005290      0.00179366      0.00030647  ~
     26    -653.244649582157      0.000000725683      0.00032932      0.00004409      0.00279486      0.00044072  ~
  --------------------------------------------------------------------------------------------------------------- ~

	Writing optimization data to binary file.
	Final energy is   -653.2446495821569
	Final (previous) structure:
	Cartesian Geometry (in Angstrom)
	    C    -1.1240024144   1.0540858206  -0.7445884563
	    C    -2.1817733309   1.6759451413  -0.1163573475
	    C     1.4851835312   0.1857625178  -1.8023943599
	    C     1.3141155537  -1.7127273998  -0.3605569377
	    C    -1.5534596007   0.6347288405   1.9627180177
	    C     2.5185371818  -0.4278820741  -2.4650615526
	    C     2.3491540172  -2.2996727822  -1.0460366393
	    C    -0.2553521914   0.2047785195  -0.0480553914
	    C     0.8481025242  -0.4430927978  -0.7255509042
	    C    -2.4018444226   1.4647505341   1.2411304487
	    C    -0.5084148996   0.0234656001   1.3109749680
	    N     2.9200200451  -1.6467644901  -2.0706192963
	    O    -3.4783882162   2.0525331452   1.8247713658
	    F     0.3194803621  -0.7514400006   2.0329601273
	    H    -0.9858362355   1.1995660623  -1.8052568056
	    H    -2.8567478262   2.3152534618  -0.6618608427
	    H     1.1946187450   1.1763592311  -2.1113013647
	    H     0.8586970336  -2.2586456098   0.4469093285
	    H    -1.7054511985   0.4580145010   3.0154469203
	    H     3.0472063601   0.0181715051  -3.2908392492
	    H     2.7371433996  -3.2771923886  -0.8131223699
	    H     3.6850314670  -2.0897997542  -2.5634850095
	    H    -3.2016629288   2.6409730597   2.5348946349
	Saving final (previous) structure.
			--------------------------
			 OPTKING Finished Execution 
			--------------------------

    Final optimized geometry and variables:
    Molecular point group: c1
    Full point group: C1

    Geometry (in Angstrom), charge = 1, multiplicity = 1:

    C           -1.124002414381     1.054085820589    -0.744588456326
    C           -2.181773330851     1.675945141292    -0.116357347499
    C            1.485183531150     0.185762517778    -1.802394359892
    C            1.314115553707    -1.712727399849    -0.360556937746
    C           -1.553459600704     0.634728840536     1.962718017706
    C            2.518537181800    -0.427882074110    -2.465061552610
    C            2.349154017168    -2.299672782215    -1.046036639294
    C           -0.255352191445     0.204778519491    -0.048055391410
    C            0.848102524185    -0.443092797775    -0.725550904204
    C           -2.401844422556     1.464750534092     1.241130448735
    C           -0.508414899626     0.023465600129     1.310974968003
    N            2.920020045141    -1.646764490099    -2.070619296276
    O           -3.478388216161     2.052533145245     1.824771365781
    F            0.319480362098    -0.751440000622     2.032960127300
    H           -0.985836235483     1.199566062317    -1.805256805637
    H           -2.856747826245     2.315253461819    -0.661860842661
    H            1.194618745050     1.176359231073    -2.111301364733
    H            0.858697033585    -2.258645609796     0.446909328459
    H           -1.705451198475     0.458014501033     3.015446920310
    H            3.047206360056     0.018171505056    -3.290839249220
    H            2.737143399599    -3.277192388607    -0.813122369869
    H            3.685031467025    -2.089799754225    -2.563485009529
    H           -3.201662928795     2.640973059685     2.534894634947

	Cleaning optimization helper files.

*** Psi4 exiting successfully. Buy a developer a beer!
