
    -----------------------------------------------------------------------
          Psi4: An Open-Source Ab Initio Electronic Structure Package
                               Psi4 1.1 release

                         Git: Rev {HEAD} add49b9 


    R. M. Parrish, L. A. Burns, D. G. A. Smith, A. C. Simmonett,
    A. E. DePrince III, E. G. Hohenstein, U. Bozkaya, A. Yu. Sokolov,
    R. Di Remigio, R. M. Richard, J. F. Gonthier, A. M. James,
    H. R. McAlexander, A. Kumar, M. Saitow, X. Wang, B. P. Pritchard,
    P. Verma, H. F. Schaefer III, K. Patkowski, R. A. King, E. F. Valeev,
    F. A. Evangelista, J. M. Turney, T. D. Crawford, and C. D. Sherrill,
    J. Chem. Theory Comput. in press (2017).
    (doi: 10.1021/acs.jctc.7b00174)

    -----------------------------------------------------------------------


    Psi4 started on: Sunday, 12 November 2017 04:41PM

    Process ID:  11243
    PSIDATADIR: /cbio/jclab/home/chayas/anaconda/envs/py35/share/psi4
    Memory:     500.0 MiB
    Threads:    8
    
  ==> Input File <==

--------------------------------------------------------------------------

memory 5 Gb

molecule phepyrOH_zwitterion {
  symmetry C1
  0 1 
  C      1.885   -1.036   -0.112
  C      2.878   -1.652   2.002
  C      0.807   -0.463   0.561
  C      1.800   -1.079   2.676
  C      4.441   -1.719   -1.323
  C      4.717   -3.305   0.469
  C      5.517   -2.310   -1.970
  C      5.785   -3.856   -0.223
  C      2.921   -1.631   0.608
  C      4.040   -2.226   -0.090
  C      0.764   -0.484   1.955
  N      6.150   -3.349   -1.409
  O      -0.227   0.042   2.574
  H      1.904   -1.011   -1.199
  H      3.678   -2.112   2.577
  H      0.011   -0.006   -0.025
  H      1.791   -1.108   3.764
  H      3.931   -0.878   -1.783
  H      4.425   -3.721   1.429
  H      5.897   -1.983   -2.928
  H      6.368   -4.694   0.134
  H      6.938   -3.769   -1.901
  units Angstrom
}

dih_string = "1 9 10 5 30"
set optking fixed_dihedral = $dih_string

optimize('MP2/aug-cc-PVTZ')
--------------------------------------------------------------------------

  Memory set to   4.657 GiB by Python driver.
gradient() will perform analytic gradient computation.

*** tstart() called on gpu-1-6.local
*** at Sun Nov 12 16:41:25 2017

    SCF Algorithm Type (re)set to DF.

*** tstart() called on gpu-1-6.local
*** at Sun Nov 12 16:41:25 2017

   => Loading Basis Set <=

    Name: AUG-CC-PVTZ
    Role: ORBITAL
    Keyword: BASIS
    atoms 1-11  entry C          line   221 file /cbio/jclab/home/chayas/anaconda/envs/py35/share/psi4/basis/aug-cc-pvtz.gbs 
    atoms 12    entry N          line   267 file /cbio/jclab/home/chayas/anaconda/envs/py35/share/psi4/basis/aug-cc-pvtz.gbs 
    atoms 13    entry O          line   313 file /cbio/jclab/home/chayas/anaconda/envs/py35/share/psi4/basis/aug-cc-pvtz.gbs 
    atoms 14-22 entry H          line    34 file /cbio/jclab/home/chayas/anaconda/envs/py35/share/psi4/basis/aug-cc-pvtz.gbs 


         ---------------------------------------------------------
                                   SCF
            by Justin Turney, Rob Parrish, and Andy Simmonett
                              RHF Reference
                        8 Threads,   4768 MiB Core
         ---------------------------------------------------------

  ==> Geometry <==

    Molecular point group: c1
    Full point group: C1

    Geometry (in Angstrom), charge = 0, multiplicity = 1:

       Center              X                  Y                   Z               Mass       
    ------------   -----------------  -----------------  -----------------  -----------------
           C         -1.297144950986     0.733990051176    -0.557114964934    12.000000000000
           C         -0.304144950986     0.117990051176     1.556885035066    12.000000000000
           C         -2.375144950986     1.306990051176     0.115885035066    12.000000000000
           C         -1.382144950986     0.690990051176     2.230885035066    12.000000000000
           C          1.258855049014     0.050990051176    -1.768114964934    12.000000000000
           C          1.534855049014    -1.535009948824     0.023885035066    12.000000000000
           C          2.334855049014    -0.540009948824    -2.415114964934    12.000000000000
           C          2.602855049014    -2.086009948824    -0.668114964934    12.000000000000
           C         -0.261144950986     0.138990051176     0.162885035066    12.000000000000
           C          0.857855049014    -0.456009948824    -0.535114964934    12.000000000000
           C         -2.418144950986     1.285990051176     1.509885035066    12.000000000000
           N          2.967855049014    -1.579009948824    -1.854114964934    14.003074004780
           O         -3.409144950986     1.811990051176     2.128885035066    15.994914619560
           H         -1.278144950986     0.758990051176    -1.644114964934     1.007825032070
           H          0.495855049014    -0.342009948824     2.131885035066     1.007825032070
           H         -3.171144950986     1.763990051176    -0.470114964934     1.007825032070
           H         -1.391144950986     0.661990051176     3.318885035066     1.007825032070
           H          0.748855049014     0.891990051176    -2.228114964934     1.007825032070
           H          1.242855049014    -1.951009948824     0.983885035066     1.007825032070
           H          2.714855049014    -0.213009948824    -3.373114964934     1.007825032070
           H          3.185855049014    -2.924009948824    -0.311114964934     1.007825032070
           H          3.755855049014    -1.999009948824    -2.346114964934     1.007825032070

  Running in c1 symmetry.

  Rotational constants: A =      0.09650  B =      0.01373  C =      0.01223 [cm^-1]
  Rotational constants: A =   2892.84996  B =    411.72207  C =    366.54341 [MHz]
  Nuclear repulsion =  701.578677716471134

  Charge       = 0
  Multiplicity = 1
  Electrons    = 90
  Nalpha       = 45
  Nbeta        = 45

  ==> Algorithm <==

  SCF Algorithm Type is DF.
  DIIS enabled.
  MOM disabled.
  Fractional occupation disabled.
  Guess Type is SAD.
  Energy threshold   = 1.00e-10
  Density threshold  = 1.00e-10
  Integral threshold = 0.00e+00

  ==> Primary Basis <==

  Basis Set: AUG-CC-PVTZ
    Blend: AUG-CC-PVTZ
    Number of shells: 263
    Number of basis function: 805
    Number of Cartesian functions: 940
    Spherical Harmonics?: true
    Max angular momentum: 3

   => Loading Basis Set <=

    Name: (AUG-CC-PVTZ AUX)
    Role: JKFIT
    Keyword: DF_BASIS_SCF
    atoms 1-11  entry C          line   161 file /cbio/jclab/home/chayas/anaconda/envs/py35/share/psi4/basis/aug-cc-pvtz-jkfit.gbs 
    atoms 12    entry N          line   223 file /cbio/jclab/home/chayas/anaconda/envs/py35/share/psi4/basis/aug-cc-pvtz-jkfit.gbs 
    atoms 13    entry O          line   285 file /cbio/jclab/home/chayas/anaconda/envs/py35/share/psi4/basis/aug-cc-pvtz-jkfit.gbs 
    atoms 14-22 entry H          line    69 file /cbio/jclab/home/chayas/anaconda/envs/py35/share/psi4/basis/aug-cc-pvtz-jkfit.gbs 

  ==> Pre-Iterations <==

   -------------------------------------------------------
    Irrep   Nso     Nmo     Nalpha   Nbeta   Ndocc  Nsocc
   -------------------------------------------------------
     A        805     805       0       0       0       0
   -------------------------------------------------------
    Total     805     805      45      45      45       0
   -------------------------------------------------------

  ==> Integral Setup <==

  ==> DFJK: Density-Fitted J/K Matrices <==

    J tasked:                  Yes
    K tasked:                  Yes
    wK tasked:                  No
    OpenMP threads:              8
    Integrals threads:           8
    Memory (MB):              3576
    Algorithm:                Disk
    Integral Cache:           NONE
    Schwarz Cutoff:          1E-12
    Fitting Condition:       1E-12

   => Auxiliary Basis Set <=

  Basis Set: (AUG-CC-PVTZ AUX)
    Blend: AUG-CC-PVTZ-JKFIT
    Number of shells: 516
    Number of basis function: 1766
    Number of Cartesian functions: 2198
    Spherical Harmonics?: true
    Max angular momentum: 4

  Minimum eigenvalue in the overlap matrix is 6.4152970994E-07.
  Using Symmetric Orthogonalization.

  SCF Guess: Superposition of Atomic Densities via on-the-fly atomic UHF.

  ==> Iterations <==

                           Total Energy        Delta E     RMS |[F,P]|

   @DF-RHF iter   0:  -559.15233692173808   -5.59152e+02   2.17779e-02 
   @DF-RHF iter   1:  -550.78670202328874    8.36563e+00   2.33073e-03 
   @DF-RHF iter   2:  -551.02976059015987   -2.43059e-01   1.68014e-03 DIIS
   @DF-RHF iter   3:  -551.18480272961801   -1.55042e-01   4.60340e-04 DIIS
   @DF-RHF iter   4:  -551.21062207326088   -2.58193e-02   1.82644e-04 DIIS
   @DF-RHF iter   5:  -551.21382244672463   -3.20037e-03   8.54256e-05 DIIS
   @DF-RHF iter   6:  -551.21464508057079   -8.22634e-04   3.56963e-05 DIIS
   @DF-RHF iter   7:  -551.21483220320511   -1.87123e-04   1.56013e-05 DIIS
   @DF-RHF iter   8:  -551.21486534336850   -3.31402e-05   6.11358e-06 DIIS
   @DF-RHF iter   9:  -551.21487539685745   -1.00535e-05   2.70176e-06 DIIS
   @DF-RHF iter  10:  -551.21487752416340   -2.12731e-06   1.42371e-06 DIIS
   @DF-RHF iter  11:  -551.21487793428719   -4.10124e-07   4.14845e-07 DIIS
   @DF-RHF iter  12:  -551.21487799603005   -6.17429e-08   2.19479e-07 DIIS
   @DF-RHF iter  13:  -551.21487800407635   -8.04630e-09   8.48486e-08 DIIS
   @DF-RHF iter  14:  -551.21487800546333   -1.38698e-09   3.62665e-08 DIIS
   @DF-RHF iter  15:  -551.21487800565706   -1.93722e-10   1.22164e-08 DIIS
   @DF-RHF iter  16:  -551.21487800570299   -4.59295e-11   5.53338e-09 DIIS
   @DF-RHF iter  17:  -551.21487800571515   -1.21645e-11   2.14124e-09 DIIS
   @DF-RHF iter  18:  -551.21487800569776    1.73941e-11   1.08445e-09 DIIS
   @DF-RHF iter  19:  -551.21487800571276   -1.50067e-11   5.64020e-10 DIIS
   @DF-RHF iter  20:  -551.21487800570378    8.98126e-12   1.52285e-10 DIIS
   @DF-RHF iter  21:  -551.21487800572265   -1.88720e-11   7.85216e-11 DIIS

  ==> Post-Iterations <==

    Orbital Energies (a.u.)
    -----------------------

    Doubly Occupied:                                                      

       1A    -20.431267     2A    -15.697247     3A    -11.355699  
       4A    -11.355673     5A    -11.305173     6A    -11.284476  
       7A    -11.284384     8A    -11.244750     9A    -11.228642  
      10A    -11.228596    11A    -11.214428    12A    -11.188401  
      13A    -11.188377    14A     -1.382568    15A     -1.256003  
      16A     -1.179717    17A     -1.109524    18A     -1.108020  
      19A     -0.996077    20A     -0.990862    21A     -0.937692  
      22A     -0.902116    23A     -0.835993    24A     -0.813779  
      25A     -0.783099    26A     -0.733166    27A     -0.718537  
      28A     -0.695851    29A     -0.671138    30A     -0.653555  
      31A     -0.616603    32A     -0.610597    33A     -0.608556  
      34A     -0.585692    35A     -0.560950    36A     -0.534054  
      37A     -0.515834    38A     -0.483997    39A     -0.477675  
      40A     -0.465071    41A     -0.418499    42A     -0.391179  
      43A     -0.342625    44A     -0.323752    45A     -0.231920  

    Virtual:                                                              

      46A     -0.008095    47A      0.011098    48A      0.019963  
      49A      0.023498    50A      0.037636    51A      0.040565  
      52A      0.042438    53A      0.053597    54A      0.056393  
      55A      0.057228    56A      0.061767    57A      0.068161  
      58A      0.068898    59A      0.070942    60A      0.082459  
      61A      0.093925    62A      0.095107    63A      0.102112  
      64A      0.106746    65A      0.107009    66A      0.118621  
      67A      0.120062    68A      0.120614    69A      0.126787  
      70A      0.127229    71A      0.132135    72A      0.134691  
      73A      0.136873    74A      0.148657    75A      0.149014  
      76A      0.151568    77A      0.156308    78A      0.161807  
      79A      0.165783    80A      0.165896    81A      0.170927  
      82A      0.172589    83A      0.179805    84A      0.183427  
      85A      0.183940    86A      0.188271    87A      0.195729  
      88A      0.198003    89A      0.205508    90A      0.210202  
      91A      0.213318    92A      0.214609    93A      0.223759  
      94A      0.225484    95A      0.228768    96A      0.232265  
      97A      0.236774    98A      0.248141    99A      0.250385  
     100A      0.253582   101A      0.256401   102A      0.259964  
     103A      0.268469   104A      0.270614   105A      0.271160  
     106A      0.283234   107A      0.289640   108A      0.292709  
     109A      0.293663   110A      0.296614   111A      0.299801  
     112A      0.301554   113A      0.306763   114A      0.311113  
     115A      0.318713   116A      0.322778   117A      0.327056  
     118A      0.329509   119A      0.332598   120A      0.337303  
     121A      0.340522   122A      0.344301   123A      0.347123  
     124A      0.350497   125A      0.357108   126A      0.358716  
     127A      0.360983   128A      0.371618   129A      0.374154  
     130A      0.374475   131A      0.384272   132A      0.390124  
     133A      0.394500   134A      0.398689   135A      0.399353  
     136A      0.400535   137A      0.416534   138A      0.416663  
     139A      0.418837   140A      0.427769   141A      0.433205  
     142A      0.433370   143A      0.440156   144A      0.444045  
     145A      0.449229   146A      0.454828   147A      0.455075  
     148A      0.459649   149A      0.462663   150A      0.467906  
     151A      0.467935   152A      0.475503   153A      0.480164  
     154A      0.480279   155A      0.484969   156A      0.485127  
     157A      0.491672   158A      0.493778   159A      0.496516  
     160A      0.499715   161A      0.502970   162A      0.510098  
     163A      0.513929   164A      0.514015   165A      0.519213  
     166A      0.522446   167A      0.524121   168A      0.526264  
     169A      0.532963   170A      0.537989   171A      0.544740  
     172A      0.547784   173A      0.553056   174A      0.554794  
     175A      0.563729   176A      0.566364   177A      0.569404  
     178A      0.573610   179A      0.582846   180A      0.587813  
     181A      0.595374   182A      0.600107   183A      0.609292  
     184A      0.613462   185A      0.620388   186A      0.625299  
     187A      0.631568   188A      0.639724   189A      0.644157  
     190A      0.653903   191A      0.654301   192A      0.663802  
     193A      0.671368   194A      0.674205   195A      0.680357  
     196A      0.680481   197A      0.691263   198A      0.694643  
     199A      0.702282   200A      0.705219   201A      0.705501  
     202A      0.712730   203A      0.725625   204A      0.727214  
     205A      0.728310   206A      0.735852   207A      0.737375  
     208A      0.748121   209A      0.748232   210A      0.758245  
     211A      0.767728   212A      0.770598   213A      0.775131  
     214A      0.777133   215A      0.784185   216A      0.789041  
     217A      0.794561   218A      0.803073   219A      0.814906  
     220A      0.817858   221A      0.824417   222A      0.830447  
     223A      0.837619   224A      0.843538   225A      0.844589  
     226A      0.855173   227A      0.858235   228A      0.868968  
     229A      0.869486   230A      0.873635   231A      0.877723  
     232A      0.883462   233A      0.889916   234A      0.890139  
     235A      0.901015   236A      0.910181   237A      0.910629  
     238A      0.914099   239A      0.918965   240A      0.921895  
     241A      0.928169   242A      0.929202   243A      0.931800  
     244A      0.940199   245A      0.943297   246A      0.953177  
     247A      0.958994   248A      0.965789   249A      0.968500  
     250A      0.968572   251A      0.974602   252A      0.978972  
     253A      0.979609   254A      0.987975   255A      0.991920  
     256A      0.996390   257A      0.997769   258A      1.007905  
     259A      1.012008   260A      1.012288   261A      1.018189  
     262A      1.026993   263A      1.027604   264A      1.034024  
     265A      1.036736   266A      1.039640   267A      1.043308  
     268A      1.044498   269A      1.054090   270A      1.060722  
     271A      1.061765   272A      1.067714   273A      1.074808  
     274A      1.078648   275A      1.080749   276A      1.090156  
     277A      1.091539   278A      1.094022   279A      1.095855  
     280A      1.106199   281A      1.114484   282A      1.114943  
     283A      1.121561   284A      1.126230   285A      1.129015  
     286A      1.130824   287A      1.140275   288A      1.150055  
     289A      1.150260   290A      1.158760   291A      1.161152  
     292A      1.169421   293A      1.174561   294A      1.179134  
     295A      1.181922   296A      1.186567   297A      1.192805  
     298A      1.199232   299A      1.200720   300A      1.201464  
     301A      1.208179   302A      1.209183   303A      1.212850  
     304A      1.216085   305A      1.227218   306A      1.228903  
     307A      1.235824   308A      1.242043   309A      1.243398  
     310A      1.251865   311A      1.255335   312A      1.267843  
     313A      1.272829   314A      1.273235   315A      1.279375  
     316A      1.287395   317A      1.293963   318A      1.306945  
     319A      1.309077   320A      1.315901   321A      1.319387  
     322A      1.337033   323A      1.345903   324A      1.351758  
     325A      1.353308   326A      1.357292   327A      1.365614  
     328A      1.366494   329A      1.376262   330A      1.379703  
     331A      1.383943   332A      1.392554   333A      1.409102  
     334A      1.418466   335A      1.418564   336A      1.430706  
     337A      1.442844   338A      1.447121   339A      1.448541  
     340A      1.452867   341A      1.456638   342A      1.471688  
     343A      1.483994   344A      1.486370   345A      1.501103  
     346A      1.503542   347A      1.507033   348A      1.513150  
     349A      1.522153   350A      1.527510   351A      1.533496  
     352A      1.541426   353A      1.548124   354A      1.548392  
     355A      1.563655   356A      1.569152   357A      1.575911  
     358A      1.578829   359A      1.601624   360A      1.602902  
     361A      1.608468   362A      1.630774   363A      1.638258  
     364A      1.644382   365A      1.644820   366A      1.660083  
     367A      1.667914   368A      1.673184   369A      1.676893  
     370A      1.689042   371A      1.694196   372A      1.708385  
     373A      1.709052   374A      1.718353   375A      1.730159  
     376A      1.733294   377A      1.745923   378A      1.754791  
     379A      1.771867   380A      1.776783   381A      1.778212  
     382A      1.794047   383A      1.794984   384A      1.806093  
     385A      1.814017   386A      1.822294   387A      1.826893  
     388A      1.833240   389A      1.841053   390A      1.848634  
     391A      1.850685   392A      1.864103   393A      1.864892  
     394A      1.877100   395A      1.886264   396A      1.891882  
     397A      1.913509   398A      1.917896   399A      1.923993  
     400A      1.930089   401A      1.939484   402A      1.952299  
     403A      1.962569   404A      1.963638   405A      1.971921  
     406A      1.976148   407A      1.984030   408A      2.000598  
     409A      2.005836   410A      2.011086   411A      2.016006  
     412A      2.023360   413A      2.031073   414A      2.031512  
     415A      2.040330   416A      2.044063   417A      2.050506  
     418A      2.055385   419A      2.067912   420A      2.072022  
     421A      2.076023   422A      2.078137   423A      2.086945  
     424A      2.100614   425A      2.104786   426A      2.109103  
     427A      2.128430   428A      2.131125   429A      2.144346  
     430A      2.146502   431A      2.155241   432A      2.175781  
     433A      2.179827   434A      2.188316   435A      2.197084  
     436A      2.200180   437A      2.201120   438A      2.202751  
     439A      2.226492   440A      2.233424   441A      2.240093  
     442A      2.273543   443A      2.281902   444A      2.297708  
     445A      2.311361   446A      2.321557   447A      2.330303  
     448A      2.338937   449A      2.344854   450A      2.347552  
     451A      2.351369   452A      2.365990   453A      2.375436  
     454A      2.384641   455A      2.398175   456A      2.400210  
     457A      2.407982   458A      2.409906   459A      2.427929  
     460A      2.437573   461A      2.452214   462A      2.465102  
     463A      2.467618   464A      2.474755   465A      2.481841  
     466A      2.505398   467A      2.512446   468A      2.520659  
     469A      2.527509   470A      2.541203   471A      2.551292  
     472A      2.553522   473A      2.556432   474A      2.569131  
     475A      2.571781   476A      2.586108   477A      2.609325  
     478A      2.645864   479A      2.646805   480A      2.654944  
     481A      2.657250   482A      2.676478   483A      2.693168  
     484A      2.693805   485A      2.718140   486A      2.734875  
     487A      2.758090   488A      2.761474   489A      2.776071  
     490A      2.792089   491A      2.804311   492A      2.818039  
     493A      2.845921   494A      2.851737   495A      2.882031  
     496A      2.898674   497A      2.920206   498A      2.927515  
     499A      2.935575   500A      2.979029   501A      2.982947  
     502A      3.008482   503A      3.030104   504A      3.055498  
     505A      3.081082   506A      3.084333   507A      3.120514  
     508A      3.120751   509A      3.125146   510A      3.147935  
     511A      3.180009   512A      3.184882   513A      3.193523  
     514A      3.204580   515A      3.234953   516A      3.241192  
     517A      3.256653   518A      3.278708   519A      3.296338  
     520A      3.315565   521A      3.327558   522A      3.343652  
     523A      3.349086   524A      3.350162   525A      3.373864  
     526A      3.375155   527A      3.378020   528A      3.391167  
     529A      3.396188   530A      3.408540   531A      3.415570  
     532A      3.420446   533A      3.437295   534A      3.453686  
     535A      3.471944   536A      3.490927   537A      3.496362  
     538A      3.514484   539A      3.524897   540A      3.525594  
     541A      3.527004   542A      3.537929   543A      3.540936  
     544A      3.544274   545A      3.552748   546A      3.555287  
     547A      3.568200   548A      3.578274   549A      3.582961  
     550A      3.603653   551A      3.604664   552A      3.620835  
     553A      3.630341   554A      3.632677   555A      3.645948  
     556A      3.660054   557A      3.668454   558A      3.675653  
     559A      3.693564   560A      3.698028   561A      3.704863  
     562A      3.711922   563A      3.713768   564A      3.732105  
     565A      3.740597   566A      3.753708   567A      3.764697  
     568A      3.767014   569A      3.786225   570A      3.792406  
     571A      3.795112   572A      3.808616   573A      3.809500  
     574A      3.824056   575A      3.838850   576A      3.841792  
     577A      3.846444   578A      3.860312   579A      3.871520  
     580A      3.879573   581A      3.897679   582A      3.900879  
     583A      3.902068   584A      3.918692   585A      3.923758  
     586A      3.926261   587A      3.951535   588A      3.957460  
     589A      3.965184   590A      3.968608   591A      3.984206  
     592A      3.989133   593A      3.999118   594A      4.006434  
     595A      4.008420   596A      4.018318   597A      4.021864  
     598A      4.032779   599A      4.033425   600A      4.043802  
     601A      4.063705   602A      4.068184   603A      4.081117  
     604A      4.083901   605A      4.088830   606A      4.109426  
     607A      4.117999   608A      4.136484   609A      4.139606  
     610A      4.159097   611A      4.165160   612A      4.170590  
     613A      4.186042   614A      4.192199   615A      4.199222  
     616A      4.209143   617A      4.221233   618A      4.231762  
     619A      4.236521   620A      4.240207   621A      4.250831  
     622A      4.252856   623A      4.271221   624A      4.272513  
     625A      4.283372   626A      4.303875   627A      4.306393  
     628A      4.322656   629A      4.322998   630A      4.335748  
     631A      4.348957   632A      4.352201   633A      4.356239  
     634A      4.369624   635A      4.375350   636A      4.379868  
     637A      4.381248   638A      4.400492   639A      4.407738  
     640A      4.411373   641A      4.415048   642A      4.436794  
     643A      4.439705   644A      4.439873   645A      4.449181  
     646A      4.463148   647A      4.470680   648A      4.487967  
     649A      4.499053   650A      4.507092   651A      4.514534  
     652A      4.528732   653A      4.536123   654A      4.536696  
     655A      4.552520   656A      4.563279   657A      4.583282  
     658A      4.586984   659A      4.627443   660A      4.633022  
     661A      4.641239   662A      4.668265   663A      4.673246  
     664A      4.696841   665A      4.712409   666A      4.733362  
     667A      4.738447   668A      4.741612   669A      4.772150  
     670A      4.775243   671A      4.777744   672A      4.779809  
     673A      4.791332   674A      4.807678   675A      4.809449  
     676A      4.853072   677A      4.876046   678A      4.888345  
     679A      4.890601   680A      4.899199   681A      4.907792  
     682A      4.915377   683A      4.934693   684A      4.945582  
     685A      4.957462   686A      4.961004   687A      4.964991  
     688A      4.993267   689A      5.027676   690A      5.044116  
     691A      5.046119   692A      5.050475   693A      5.058537  
     694A      5.066147   695A      5.088225   696A      5.088871  
     697A      5.109622   698A      5.115932   699A      5.132540  
     700A      5.136966   701A      5.137975   702A      5.160583  
     703A      5.162430   704A      5.175212   705A      5.178204  
     706A      5.191590   707A      5.205439   708A      5.228296  
     709A      5.234156   710A      5.271680   711A      5.284766  
     712A      5.295178   713A      5.312057   714A      5.328187  
     715A      5.334768   716A      5.340899   717A      5.360000  
     718A      5.382166   719A      5.396714   720A      5.413080  
     721A      5.413562   722A      5.444496   723A      5.448136  
     724A      5.481131   725A      5.499001   726A      5.517696  
     727A      5.524242   728A      5.541668   729A      5.570523  
     730A      5.578740   731A      5.640085   732A      5.647992  
     733A      5.673598   734A      5.692442   735A      5.704299  
     736A      5.729818   737A      5.745226   738A      5.750973  
     739A      5.785409   740A      5.794132   741A      5.818966  
     742A      5.827894   743A      5.844229   744A      5.862394  
     745A      5.904866   746A      5.948414   747A      5.972865  
     748A      5.992514   749A      6.063793   750A      6.118683  
     751A      6.119915   752A      6.142351   753A      6.148520  
     754A      6.187093   755A      6.231277   756A      6.265609  
     757A      6.314785   758A      6.324412   759A      6.402882  
     760A      6.428421   761A      6.473076   762A      6.493135  
     763A      6.525992   764A      6.546557   765A      6.605591  
     766A      6.629863   767A      6.673658   768A      6.708407  
     769A      6.739778   770A      6.772732   771A      6.800513  
     772A      6.862066   773A      6.877702   774A      6.937196  
     775A      6.962187   776A      6.962422   777A      6.979928  
     778A      7.064231   779A      7.110054   780A      7.118210  
     781A      7.186546   782A      7.233575   783A      7.238429  
     784A      7.488290   785A      7.516485   786A      7.594624  
     787A      7.669646   788A      7.807238   789A      7.822061  
     790A      7.902292   791A      8.023584   792A      8.096534  
     793A     15.987204   794A     16.229218   795A     16.403020  
     796A     16.787477   797A     17.184433   798A     18.979777  
     799A     19.207797   800A     19.644519   801A     19.924154  
     802A     20.093663   803A     20.213805   804A     20.654076  
     805A     21.817042  

    Final Occupation by Irrep:
              A 
    DOCC [    45 ]

  Energy converged.

  @DF-RHF Final Energy:  -551.21487800572265

   => Energetics <=

    Nuclear Repulsion Energy =            701.5786777164711339
    One-Electron Energy =               -2139.7034846373981054
    Two-Electron Energy =                 886.9099289152042047
    DFT Exchange-Correlation Energy =       0.0000000000000000
    Empirical Dispersion Energy =           0.0000000000000000
    PCM Polarization Energy =               0.0000000000000000
    EFP Energy =                            0.0000000000000000
    Total Energy =                       -551.2148780057226531



Properties will be evaluated at   0.000000,   0.000000,   0.000000 Bohr

Properties computed using the SCF density matrix

  Nuclear Dipole Moment: (a.u.)
     X:     5.8845      Y:    -3.1292      Z:    -3.6762

  Electronic Dipole Moment: (a.u.)
     X:    -0.1453      Y:     0.0772      Z:     0.0918

  Dipole Moment: (a.u.)
     X:     5.7392      Y:    -3.0520      Z:    -3.5844     Total:     7.4230

  Dipole Moment: (Debye)
     X:    14.5877      Y:    -7.7574      Z:    -9.1106     Total:    18.8674


*** tstop() called on gpu-1-6.local at Sun Nov 12 16:49:40 2017
Module time:
	user time   =    1192.92 seconds =      19.88 minutes
	system time =      53.30 seconds =       0.89 minutes
	total time  =        495 seconds =       8.25 minutes
Total time:
	user time   =    1192.93 seconds =      19.88 minutes
	system time =      53.30 seconds =       0.89 minutes
	total time  =        495 seconds =       8.25 minutes

  //>>>>>>>>>>>>>>>>>>>>>>>>>>>>>>>>>>>//
  //               DFMP2               //
  //<<<<<<<<<<<<<<<<<<<<<<<<<<<<<<<<<<<//

   => Loading Basis Set <=

    Name: (AUG-CC-PVTZ AUX)
    Role: RIFIT
    Keyword: DF_BASIS_MP2
    atoms 1-11  entry C          line   147 file /cbio/jclab/home/chayas/anaconda/envs/py35/share/psi4/basis/aug-cc-pvtz-ri.gbs 
    atoms 12    entry N          line   205 file /cbio/jclab/home/chayas/anaconda/envs/py35/share/psi4/basis/aug-cc-pvtz-ri.gbs 
    atoms 13    entry O          line   263 file /cbio/jclab/home/chayas/anaconda/envs/py35/share/psi4/basis/aug-cc-pvtz-ri.gbs 
    atoms 14-22 entry H          line    29 file /cbio/jclab/home/chayas/anaconda/envs/py35/share/psi4/basis/aug-cc-pvtz-ri.gbs 

	 --------------------------------------------------------
	                          DF-MP2                         
	      2nd-Order Density-Fitted Moller-Plesset Theory     
	              RMP2 Wavefunction,   8 Threads             
	                                                         
	        Rob Parrish, Justin Turney, Andy Simmonett,      
	           Ed Hohenstein, and C. David Sherrill          
	 --------------------------------------------------------

   => Auxiliary Basis Set <=

  Basis Set: (AUG-CC-PVTZ AUX)
    Blend: AUG-CC-PVTZ-RI
    Number of shells: 490
    Number of basis function: 1792
    Number of Cartesian functions: 2263
    Spherical Harmonics?: true
    Max angular momentum: 4

	 --------------------------------------------------------
	                 NBF =   805, NAUX =  1792
	 --------------------------------------------------------
	   CLASS    FOCC     OCC    AOCC    AVIR     VIR    FVIR
	   PAIRS       0      45      45     760     760       0
	 --------------------------------------------------------


         ------------------------------------------------------------
                                     CPHF                           
                                  Rob Parrish                       
         ------------------------------------------------------------

  ==> Geometry <==

    Molecular point group: c1
    Full point group: C1

    Geometry (in Angstrom), charge = 0, multiplicity = 1:

       Center              X                  Y                   Z               Mass       
    ------------   -----------------  -----------------  -----------------  -----------------
           C         -1.297144950986     0.733990051176    -0.557114964934    12.000000000000
           C         -0.304144950986     0.117990051176     1.556885035066    12.000000000000
           C         -2.375144950986     1.306990051176     0.115885035066    12.000000000000
           C         -1.382144950986     0.690990051176     2.230885035066    12.000000000000
           C          1.258855049014     0.050990051176    -1.768114964934    12.000000000000
           C          1.534855049014    -1.535009948824     0.023885035066    12.000000000000
           C          2.334855049014    -0.540009948824    -2.415114964934    12.000000000000
           C          2.602855049014    -2.086009948824    -0.668114964934    12.000000000000
           C         -0.261144950986     0.138990051176     0.162885035066    12.000000000000
           C          0.857855049014    -0.456009948824    -0.535114964934    12.000000000000
           C         -2.418144950986     1.285990051176     1.509885035066    12.000000000000
           N          2.967855049014    -1.579009948824    -1.854114964934    14.003074004780
           O         -3.409144950986     1.811990051176     2.128885035066    15.994914619560
           H         -1.278144950986     0.758990051176    -1.644114964934     1.007825032070
           H          0.495855049014    -0.342009948824     2.131885035066     1.007825032070
           H         -3.171144950986     1.763990051176    -0.470114964934     1.007825032070
           H         -1.391144950986     0.661990051176     3.318885035066     1.007825032070
           H          0.748855049014     0.891990051176    -2.228114964934     1.007825032070
           H          1.242855049014    -1.951009948824     0.983885035066     1.007825032070
           H          2.714855049014    -0.213009948824    -3.373114964934     1.007825032070
           H          3.185855049014    -2.924009948824    -0.311114964934     1.007825032070
           H          3.755855049014    -1.999009948824    -2.346114964934     1.007825032070

  Nuclear repulsion =  701.578677716471134
  Reference energy  = -551.214878005722653

  ==> Basis Set <==

  Basis Set: AUG-CC-PVTZ
    Blend: AUG-CC-PVTZ
    Number of shells: 263
    Number of basis function: 805
    Number of Cartesian functions: 940
    Spherical Harmonics?: true
    Max angular momentum: 3

  ==> CGRSolver (by Rob Parrish) <==

   Number of roots    =         1
   Preconditioning    =    JACOBI
   Convergence cutoff =     1E-06
   Maximum iterations =       100

  ==> CPHFRHamiltonian (by Rob Parrish) <== 

  ==> DFJK: Density-Fitted J/K Matrices <==

    J tasked:                  Yes
    K tasked:                  Yes
    wK tasked:                  No
    OpenMP threads:              8
    Integrals threads:           8
    Memory (MB):              3576
    Algorithm:                Disk
    Integral Cache:           NONE
    Schwarz Cutoff:          1E-12
    Fitting Condition:       1E-12

   => Auxiliary Basis Set <=

  Basis Set: (AUG-CC-PVTZ AUX)
    Blend: AUG-CC-PVTZ-JKFIT
    Number of shells: 516
    Number of basis function: 1766
    Number of Cartesian functions: 2198
    Spherical Harmonics?: true
    Max angular momentum: 4

  ==> CPHF Iterations <==

  => Iterations <=

             Iter  Converged  Remaining    Residual
  CGR           1          0          1   1.618E-01
  CGR           2          0          1   6.477E-02
  CGR           3          0          1   3.178E-02
  CGR           4          0          1   9.423E-03
  CGR           5          0          1   3.303E-03
  CGR           6          0          1   1.172E-03
  CGR           7          0          1   4.317E-04
  CGR           8          0          1   1.829E-04
  CGR           9          0          1   7.263E-05
  CGR          10          0          1   3.344E-05
  CGR          11          0          1   1.676E-05
  CGR          12          0          1   4.852E-06
  CGR          13          0          1   2.065E-06
  CGR          14          1          0   6.679E-07

    CGRSolver converged.

  ==> DFCorrGrad: Density-Fitted Correlated Gradients <==

    OpenMP threads:              8
    Integrals threads:           8
    Memory (MB):              3576
    Schwarz Cutoff:          0E+00
    Fitting Condition:       1E-12

   => Auxiliary Basis Set <=

  Basis Set: (AUG-CC-PVTZ AUX)
    Blend: AUG-CC-PVTZ-JKFIT
    Number of shells: 516
    Number of basis function: 1766
    Number of Cartesian functions: 2198
    Spherical Harmonics?: true
    Max angular momentum: 4

	-----------------------------------------------------------
	 ==================> DF-MP2 Energies <==================== 
	-----------------------------------------------------------
	 Reference Energy          =    -551.2148780057226531 [Eh]
	 Singles Energy            =      -0.0000000000000004 [Eh]
	 Same-Spin Energy          =      -0.6065191097178403 [Eh]
	 Opposite-Spin Energy      =      -1.8398675808637230 [Eh]
	 Correlation Energy        =      -2.4463866905815639 [Eh]
	 Total Energy              =    -553.6612646963042152 [Eh]
	-----------------------------------------------------------
	 ================> DF-SCS-MP2 Energies <================== 
	-----------------------------------------------------------
	 SCS Same-Spin Scale       =       0.3333333333333333 [-]
	 SCS Opposite-Spin Scale   =       1.2000000000000000 [-]
	 SCS Same-Spin Energy      =      -0.2021730365726134 [Eh]
	 SCS Opposite-Spin Energy  =      -2.2078410970364675 [Eh]
	 SCS Correlation Energy    =      -2.4100141336090815 [Eh]
	 SCS Total Energy          =    -553.6248921393316778 [Eh]
	-----------------------------------------------------------


  -Total Gradient:
     Atom            X                  Y                   Z
    ------   -----------------  -----------------  -----------------
       1        0.028730474349    -0.026590760123    -0.003497570367
       2        0.025519795158    -0.002220146709    -0.030409646666
       3       -0.028169839580     0.013802477259     0.053917184058
       4       -0.054585497447     0.030038842076    -0.001338620527
       5       -0.025898993323     0.012846973277     0.032663808393
       6       -0.037220751981     0.021660987914     0.005830220120
       7        0.025246560496    -0.024854912702     0.003789872781
       8        0.017100330420     0.001917000577    -0.029734612493
       9       -0.040437326182     0.021525564053     0.025134888666
      10        0.053172926946    -0.028827468086    -0.032352164518
      11        0.065979661381    -0.034887844900    -0.041750466553
      12       -0.021300410311     0.011561014339     0.012841103212
      13       -0.020306904113     0.010720698160     0.012764506630
      14        0.000451895198     0.001869772084    -0.004567640476
      15        0.002281324867    -0.003288575703     0.002731441383
      16       -0.002032009121     0.002884251997    -0.008976190918
      17        0.004448375176    -0.004157261435     0.007116623289
      18       -0.004864171367     0.004192765961    -0.003039527219
      19       -0.001484052517    -0.001065292670     0.007079072991
      20        0.001544702097    -0.000920442544    -0.002711098550
      21        0.003137180867    -0.001525694783    -0.000103962692
      22        0.008686728976    -0.004681948041    -0.005387220543


*** tstop() called on gpu-1-6.local at Sun Nov 12 17:20:39 2017
Module time:
	user time   =    5205.07 seconds =      86.75 minutes
	system time =     108.90 seconds =       1.82 minutes
	total time  =       2354 seconds =      39.23 minutes
Total time:
	user time   =    5205.08 seconds =      86.75 minutes
	system time =     108.90 seconds =       1.82 minutes
	total time  =       2354 seconds =      39.23 minutes

			-----------------------------------------
			 OPTKING 2.0: for geometry optimizations 
			  - R.A. King,  Bethel University        
			-----------------------------------------

	Internal coordinates to be generated automatically.
	Detected frag 1 with atoms:  1 2 3 4 5 6 7 8 9 10 11 12 13 14 15 16 17 18 19 20
	 21 22
	---Fragment 1 Bond Connectivity---
	 1 : 3 9 14
	 2 : 4 9 15
	 3 : 1 11 16
	 4 : 2 11 17
	 5 : 7 10 18
	 6 : 8 10 19
	 7 : 5 12 20
	 8 : 6 12 21
	 9 : 1 2 10
	 10 : 5 6 9
	 11 : 3 4 13
	 12 : 7 8 22
	 13 : 11
	 14 : 1
	 15 : 2
	 16 : 3
	 17 : 4
	 18 : 5
	 19 : 6
	 20 : 7
	 21 : 8
	 22 : 12

	Assuming in current code that numbering for constraints corresponds to unified fragment.
	Fixed dihedral atom list: 
	     1     9    10     5
	---Fragment 1 Geometry and Gradient---
	 C          -2.4512487120        1.3870401810       -1.0527947083
	 C          -0.5747506621        0.2229688831        2.9420863367
	 C          -4.4883734833        2.4698532551        0.2189909792
	 C          -2.6118754333        1.3057819573        4.2157617502
	 C           2.3788912836        0.0963572322       -3.3412530552
	 C           2.9004556963       -2.9007484145        0.0451361749
	 C           4.4122366026       -1.0204709123       -4.5639058632
	 C           4.9186832062       -3.9419875138       -1.2625543090
	 C          -0.4934924383        0.2626531319        0.3078081074
	 C           1.6211111043       -0.8617339171       -1.0112207333
	 C          -4.5696317070        2.4301690063        2.8532692084
	 N           5.6084332447       -2.9838963644       -3.5037695026
	 O          -6.4423503047        3.4241649522        4.0230096847
	 H          -2.4153439155        1.4342833343       -3.1069270147
	 H           0.9370302442       -0.6463051380        4.0286788631
	 H          -5.9925954850        3.3334580979       -0.8883885347
	 H          -2.6288829685        1.2509798994        6.2717837828
	 H           1.4151309559        1.6856169100       -4.2105270763
	 H           2.3486556655       -3.6868744858        1.8592732625
	 H           5.1303325331       -0.4025304669       -6.3742634985
	 H           6.0203935417       -5.5255780131       -0.5879220796
	 H           7.0975374375       -3.7775813402       -4.4335147600
	             0.0287304743       -0.0265907601       -0.0034975704
	             0.0255197952       -0.0022201467       -0.0304096467
	            -0.0281698396        0.0138024773        0.0539171841
	            -0.0545854974        0.0300388421       -0.0013386205
	            -0.0258989933        0.0128469733        0.0326638084
	            -0.0372207520        0.0216609879        0.0058302201
	             0.0252465605       -0.0248549127        0.0037898728
	             0.0171003304        0.0019170006       -0.0297346125
	            -0.0404373262        0.0215255641        0.0251348887
	             0.0531729269       -0.0288274681       -0.0323521645
	             0.0659796614       -0.0348878449       -0.0417504666
	            -0.0213004103        0.0115610143        0.0128411032
	            -0.0203069041        0.0107206982        0.0127645066
	             0.0004518952        0.0018697721       -0.0045676405
	             0.0022813249       -0.0032885757        0.0027314414
	            -0.0020320091        0.0028842520       -0.0089761909
	             0.0044483752       -0.0041572614        0.0071166233
	            -0.0048641714        0.0041927660       -0.0030395272
	            -0.0014840525       -0.0010652927        0.0070790730
	             0.0015447021       -0.0009204425       -0.0027110986
	             0.0031371809       -0.0015256948       -0.0001039627
	             0.0086867290       -0.0046819480       -0.0053872205

	Previous optimization step data not found.  Starting new optimization.

	---Fragment 1 Intrafragment Coordinates---
	 - Coordinate -           - BOHR/RAD -       - ANG/DEG -
	 R(1,3)           =         2.634350	       1.394038
	 R(1,9)           =         2.635962	       1.394891
	 R(1,14)          =         2.054989	       1.087453
	 R(2,4)           =         2.635263	       1.394521
	 R(2,9)           =         2.635830	       1.394821
	 R(2,15)          =         2.054702	       1.087302
	 R(3,11)          =         2.635830	       1.394821
	 R(3,16)          =         2.057860	       1.088972
	 R(4,11)          =         2.636938	       1.395407
	 R(4,17)          =         2.056823	       1.088424
	 R(5,7)           =         2.622342	       1.387684
	 R(5,10)          =         2.630821	       1.392171
	 R(5,18)          =         2.051881	       1.085809
	 R(6,8)           =         2.620587	       1.386755
	 R(6,10)          =         2.628725	       1.391061
	 R(6,19)          =         2.052698	       1.086241
	 R(7,12)          =         2.531761	       1.339750
	 R(7,20)          =         2.043259	       1.081246
	 R(8,12)          =         2.533128	       1.340474
	 R(8,21)          =         2.043686	       1.081472
	 R(9,10)          =         2.734160	       1.446855
	 R(11,13)         =         2.421445	       1.281373
	 R(12,22)         =         1.926602	       1.019514
	 B(1,3,11)        =         2.094553	     120.009056
	 B(1,3,16)        =         2.069123	     118.552025
	 B(1,9,2)         =         2.093692	     119.959722
	 B(1,9,10)        =         2.095337	     120.053983
	 B(2,4,11)        =         2.093699	     119.960108
	 B(2,4,17)        =         2.069829	     118.592446
	 B(2,9,10)        =         2.094156	     119.986294
	 B(3,1,9)         =         2.094940	     120.031219
	 B(3,1,14)        =         2.079025	     119.119344
	 B(3,11,4)        =         2.094306	     119.994870
	 B(3,11,13)       =         2.094918	     120.029973
	 B(4,2,9)         =         2.095181	     120.045019
	 B(4,2,15)        =         2.079455	     119.143974
	 B(4,11,13)       =         2.093961	     119.975136
	 B(5,7,12)        =         2.096020	     120.093106
	 B(5,7,20)        =         2.161334	     123.835289
	 B(5,10,6)        =         2.092325	     119.881383
	 B(5,10,9)        =         2.094712	     120.018177
	 B(6,8,12)        =         2.095464	     120.061261
	 B(6,8,21)        =         2.163160	     123.939924
	 B(6,10,9)        =         2.096148	     120.100441
	 B(7,5,10)        =         2.072798	     118.762566
	 B(7,5,18)        =         2.090408	     119.771558
	 B(7,12,8)        =         2.135480	     122.354009
	 B(7,12,22)       =         2.074410	     118.854952
	 B(8,6,10)        =         2.074282	     118.847629
	 B(8,6,19)        =         2.089637	     119.727402
	 B(8,12,22)       =         2.073294	     118.791023
	 B(9,1,14)        =         2.109221	     120.849435
	 B(9,2,15)        =         2.108550	     120.811005
	 B(10,5,18)       =         2.119979	     121.465858
	 B(10,6,19)       =         2.119264	     121.424876
	 B(11,3,16)       =         2.119509	     121.438903
	 B(11,4,17)       =         2.119657	     121.447411
	 B(12,7,20)       =         2.025832	     116.071605
	 B(12,8,21)       =         2.024561	     115.998808
	 D(1,3,11,4)      =        -0.000325	      -0.018609
	 D(1,3,11,13)     =        -3.141004	    -179.966279
	 D(1,9,2,4)       =         0.000325	       0.018608
	 D(1,9,2,15)      =        -3.141527	    -179.996257
	 D(1,9,10,5)      =         0.523421	      29.989817
	 D(1,9,10,6)      =        -2.618195	    -150.011547
	 D(2,4,11,3)      =         0.000301	       0.017261
	 D(2,4,11,13)     =         3.140981	     179.964960
	 D(2,9,1,3)       =        -0.000348	      -0.019945
	 D(2,9,1,14)      =         3.141027	     179.967567
	 D(2,9,10,5)      =        -2.617954	    -149.997743
	 D(2,9,10,6)      =         0.523614	      30.000892
	 D(3,1,9,10)      =         3.141462	     179.992491
	 D(3,11,4,17)     =         3.140700	     179.948827
	 D(4,2,9,10)      =        -3.141485	    -179.993820
	 D(4,11,3,16)     =         3.140472	     179.935781
	 D(5,7,12,8)      =        -0.001182	      -0.067698
	 D(5,7,12,22)     =         3.141219	     179.978605
	 D(5,10,6,8)      =        -0.001078	      -0.061790
	 D(5,10,6,19)     =        -3.140730	    -179.950547
	 D(6,8,12,7)      =         0.000704	       0.040347
	 D(6,8,12,22)     =         3.141489	     179.994073
	 D(6,10,5,7)      =         0.000618	       0.035436
	 D(6,10,5,18)     =         3.141365	     179.986946
	 D(7,5,10,9)      =        -3.140998	    -179.965926
	 D(7,12,8,21)     =        -3.140351	    -179.928864
	 D(8,6,10,9)      =         3.140538	     179.939573
	 D(8,12,7,20)     =         3.140327	     179.927490
	 D(9,1,3,11)      =         0.000348	       0.019955
	 D(9,1,3,16)      =        -3.140471	    -179.935743
	 D(9,2,4,11)      =        -0.000301	      -0.017270
	 D(9,2,4,17)      =        -3.140734	    -179.950778
	 D(9,10,5,18)     =        -0.000252	      -0.014416
	 D(9,10,6,19)     =         0.000887	       0.050815
	 D(10,5,7,12)     =         0.000498	       0.028527
	 D(10,5,7,20)     =        -3.141004	    -179.966268
	 D(10,6,8,12)     =         0.000439	       0.025148
	 D(10,6,8,21)     =         3.141449	     179.991791
	 D(10,9,1,14)     =        -0.000349	      -0.019997
	 D(10,9,2,15)     =        -0.000152	      -0.008685
	 D(11,3,1,14)     =        -3.141030	    -179.967773
	 D(11,4,2,15)     =         3.141546	     179.997347
	 D(12,7,5,18)     =        -3.140263	    -179.923824
	 D(12,8,6,19)     =         3.140124	     179.915836
	 D(13,11,3,16)    =        -0.000207	      -0.011889
	 D(13,11,4,17)    =        -0.001806	      -0.103475
	 D(14,1,3,16)     =         0.001336	       0.076530
	 D(15,2,4,17)     =         0.001114	       0.063839
	 D(18,5,7,20)     =         0.001420	       0.081381
	 D(19,6,8,21)     =        -0.002051	      -0.117521
	 D(20,7,12,22)    =        -0.000457	      -0.026208
	 D(21,8,12,22)    =         0.000434	       0.024862

	Current energy   :      -553.6612646963

	Generating empirical Hessian (Schlegel '84) for each fragment.
	Adding user-defined constraint: Fragment 1; Coordinate 64:
		Value =     0.523421; Fixed value    =     0.523599
		Force =     0.000089; Force constant =     0.500000
	Removing off-diagonal coupling between coordinate 64 and others.
	Taking RFO optimization step.
	Going to follow RFO solution 1.
	Using RFO vector 1.

	Determining step-restricting scale parameter for RS-RFO.
	Maximum step size allowed    0.10000

	 Iter      |step|        alpha        rfo_root  
	------------------------------------------------
	    0     0.30296       1.00000           1
	    1     0.22253       3.67357           1
	    2     0.16418      12.55377           1
	    3     0.12545      30.16470           1
	    4     0.10633      48.43586           1
	    5     0.10056      56.38547           1
	    6     0.10001      57.23766           1
	------------------------------------------------
	Norm of target step-size    0.10001
	Projected energy change by RFO approximation:        -0.0096609987

	Back-transformation to cartesian coordinates...
	Could not converge backtransformation.
	Using first guess instead.

	--- Internal Coordinate Step in ANG or DEG, aJ/ANG or AJ/DEG ---
	 ---------------------------------------------------------------------------
	   Coordinate                Previous        Force       Change         New 
	   ----------                --------       ------       ------       ------
	    1 R(1,3)          =      1.394038    -0.183318    -0.011540     1.382498
	    2 R(1,9)          =      1.394891     0.149704     0.009316     1.404207
	    3 R(1,14)         =      1.087453    -0.038035    -0.002700     1.084753
	    4 R(2,4)          =      1.394521    -0.186287    -0.011745     1.382777
	    5 R(2,9)          =      1.394821     0.150802     0.009382     1.404203
	    6 R(2,15)         =      1.087302    -0.037192    -0.002640     1.084662
	    7 R(3,11)         =      1.394821     0.273644     0.017473     1.412294
	    8 R(3,16)         =      1.088972    -0.062005    -0.004407     1.084565
	    9 R(4,11)         =      1.395407     0.270168     0.017273     1.412680
	   10 R(4,17)         =      1.088424    -0.059219    -0.004207     1.084217
	   11 R(5,7)          =      1.387684    -0.186947    -0.011653     1.376031
	   12 R(5,10)         =      1.392171     0.184643     0.011630     1.403800
	   13 R(5,18)         =      1.085809    -0.056187    -0.003967     1.081842
	   14 R(6,8)          =      1.386755    -0.181590    -0.011290     1.375465
	   15 R(6,10)         =      1.391061     0.191251     0.012023     1.403084
	   16 R(6,19)         =      1.086241    -0.058192    -0.004113     1.082129
	   17 R(7,12)         =      1.339750     0.142876     0.008175     1.347925
	   18 R(7,20)         =      1.081246    -0.021969    -0.001540     1.079706
	   19 R(8,12)         =      1.340474     0.138776     0.007957     1.348431
	   20 R(8,21)         =      1.081472    -0.023391    -0.001638     1.079834
	   21 R(9,10)         =      1.446855    -0.192527    -0.013154     1.433701
	   22 R(11,13)        =      1.281373    -0.216449    -0.010862     1.270511
	   23 R(12,22)        =      1.019514    -0.092625    -0.005964     1.013550
	   24 B(1,3,11)       =    120.009056     0.000458     0.449874   120.458931
	   25 B(1,3,16)       =    118.552025     0.000232     0.259389   118.811414
	   26 B(1,9,2)        =    119.959722    -0.000423    -0.442790   119.516931
	   27 B(1,9,10)       =    120.053983     0.000202     0.212382   120.266365
	   28 B(2,4,11)       =    119.960108     0.000473     0.461562   120.421671
	   29 B(2,4,17)       =    118.592446     0.000223     0.250818   118.843263
	   30 B(2,9,10)       =    119.986294     0.000221     0.230350   120.216644
	   31 B(3,1,9)        =    120.031219     0.000371     0.330476   120.361695
	   32 B(3,1,14)       =    119.119344    -0.000145    -0.123070   118.996275
	   33 B(3,11,4)       =    119.994870    -0.001254    -1.130955   118.863916
	   34 B(3,11,13)      =    120.029973     0.000619     0.558351   120.588324
	   35 B(4,2,9)        =    120.045019     0.000374     0.331669   120.376688
	   36 B(4,2,15)       =    119.143974    -0.000151    -0.129063   119.014912
	   37 B(4,11,13)      =    119.975136     0.000635     0.572595   120.547731
	   38 B(5,7,12)       =    120.093106    -0.000044    -0.048293   120.044813
	   39 B(5,7,20)       =    123.835289    -0.000106    -0.111164   123.724124
	   40 B(5,10,6)       =    119.881383    -0.001112    -1.046800   118.834583
	   41 B(5,10,9)       =    120.018177     0.000565     0.532139   120.550316
	   42 B(6,8,12)       =    120.061261    -0.000045    -0.047348   120.013912
	   43 B(6,8,21)       =    123.939924    -0.000117    -0.123783   123.816140
	   44 B(6,10,9)       =    120.100441     0.000547     0.514582   120.615023
	   45 B(7,5,10)       =    118.762566     0.000669     0.636235   119.398801
	   46 B(7,5,18)       =    119.771558    -0.000403    -0.393473   119.378085
	   47 B(7,12,8)       =    122.354009    -0.000112    -0.107698   122.246311
	   48 B(7,12,22)      =    118.854952     0.000051     0.049170   118.904122
	   49 B(8,6,10)       =    118.847629     0.000644     0.613852   119.461481
	   50 B(8,6,19)       =    119.727402    -0.000389    -0.381705   119.345697
	   51 B(8,12,22)      =    118.791023     0.000060     0.058520   118.849543
	   52 B(9,1,14)       =    120.849435    -0.000227    -0.207568   120.641867
	   53 B(9,2,15)       =    120.811005    -0.000223    -0.202790   120.608215
	   54 B(10,5,18)      =    121.465858    -0.000267    -0.242756   121.223102
	   55 B(10,6,19)      =    121.424876    -0.000255    -0.232368   121.192508
	   56 B(11,3,16)      =    121.438903    -0.000690    -0.709276   120.729627
	   57 B(11,4,17)      =    121.447411    -0.000695    -0.712383   120.735029
	   58 B(12,7,20)      =    116.071605     0.000150     0.159411   116.231016
	   59 B(12,8,21)      =    115.998808     0.000162     0.171134   116.169942
	   60 D(1,3,11,4)     =     -0.018609    -0.000011    -0.066213    -0.084822
	   61 D(1,3,11,13)    =   -179.966279    -0.000010    -0.057541  -180.023819
	   62 D(1,9,2,4)      =      0.018608    -0.000016    -0.105981    -0.087373
	   63 D(1,9,2,15)     =   -179.996257     0.000014     0.067167  -179.929090
	   64 D(1,9,10,5)     =     29.989817    -0.000048    -0.204257    29.785560
	   65 D(1,9,10,6)     =   -150.011547    -0.000061    -0.306121  -150.317668
	   66 D(2,4,11,3)     =      0.017261    -0.000009    -0.051052    -0.033791
	   67 D(2,4,11,13)    =    179.964960    -0.000010    -0.059728   179.905232
	   68 D(2,9,1,3)      =     -0.019945    -0.000004    -0.011503    -0.031448
	   69 D(2,9,1,14)     =    179.967567     0.000024     0.149121   180.116688
	   70 D(2,9,10,5)     =   -149.997743    -0.000061    -0.305767  -150.303511
	   71 D(2,9,10,6)     =     30.000892    -0.000073    -0.407631    29.593261
	   72 D(3,1,9,10)     =    179.992491    -0.000017    -0.112388   179.880103
	   73 D(3,11,4,17)    =    179.948827    -0.000010    -0.053756   179.895071
	   74 D(4,2,9,10)     =   -179.993820    -0.000003    -0.005150  -179.998970
	   75 D(4,11,3,16)    =    179.935781    -0.000014    -0.082304   179.853477
	   76 D(5,7,12,8)     =     -0.067698    -0.000000    -0.004080    -0.071778
	   77 D(5,7,12,22)    =    179.978605     0.000001     0.006499   179.985103
	   78 D(5,10,6,8)     =     -0.061790    -0.000005    -0.042474    -0.104264
	   79 D(5,10,6,19)    =   -179.950547     0.000011     0.051437  -179.899110
	   80 D(6,8,12,7)     =      0.040347     0.000001     0.008321     0.048668
	   81 D(6,8,12,22)    =    179.994073    -0.000000    -0.002257   179.991816
	   82 D(6,10,5,7)     =      0.035436     0.000006     0.046340     0.081776
	   83 D(6,10,5,18)    =    179.986946     0.000022     0.134288   180.121234
	   84 D(7,5,10,9)     =   -179.965926    -0.000007    -0.053711  -180.019637
	   85 D(7,12,8,21)    =   -179.928864    -0.000009    -0.047891  -179.976755
	   86 D(8,6,10,9)     =    179.939573     0.000007     0.057644   179.997216
	   87 D(8,12,7,20)    =    179.927490    -0.000012    -0.074838   179.852651
	   88 D(9,1,3,11)     =      0.019955     0.000018     0.097305     0.117260
	   89 D(9,1,3,16)     =   -179.935743     0.000021     0.113534  -179.822209
	   90 D(9,2,4,11)     =     -0.017270     0.000023     0.136724     0.119454
	   91 D(9,2,4,17)     =   -179.950778     0.000024     0.140039  -179.810739
	   92 D(9,10,5,18)    =     -0.014416     0.000009     0.034237     0.019821
	   93 D(9,10,6,19)    =      0.050815     0.000024     0.151555     0.202370
	   94 D(10,5,7,12)    =      0.028527    -0.000003    -0.024072     0.004455
	   95 D(10,5,7,20)    =   -179.966268     0.000010     0.052227  -179.914041
	   96 D(10,6,8,12)    =      0.025148     0.000002     0.015807     0.040955
	   97 D(10,6,8,21)    =    179.991791     0.000013     0.076627   180.068418
	   98 D(10,9,1,14)    =     -0.019997     0.000012     0.048237     0.028240
	   99 D(10,9,2,15)    =     -0.008685     0.000027     0.167998     0.159314
	  100 D(11,3,1,14)    =   -179.967773    -0.000010    -0.060685  -180.028458
	  101 D(11,4,2,15)    =    179.997347    -0.000007    -0.033674   179.963673
	  102 D(12,7,5,18)    =   -179.923824    -0.000019    -0.110443  -180.034267
	  103 D(12,8,6,19)    =    179.915836    -0.000014    -0.076211   179.839625
	  104 D(13,11,3,16)   =     -0.011889    -0.000013    -0.073632    -0.085521
	  105 D(13,11,4,17)   =     -0.103475    -0.000011    -0.062432    -0.165906
	  106 D(14,1,3,16)    =      0.076530    -0.000007    -0.044457     0.032073
	  107 D(15,2,4,17)    =      0.063839    -0.000005    -0.030360     0.033479
	  108 D(18,5,7,20)    =      0.081381    -0.000006    -0.034143     0.047237
	  109 D(19,6,8,21)    =     -0.117521    -0.000003    -0.015391    -0.132912
	  110 D(20,7,12,22)   =     -0.026208    -0.000011    -0.064259    -0.090468
	  111 D(21,8,12,22)   =      0.024862    -0.000010    -0.058469    -0.033607
	 ---------------------------------------------------------------------------
	Successfully symmetrized geometry.
	 Forces used to impose fixed constraints are not included.
	  Forces zeroed: 64 

  ==> Convergence Check <==

  Measures of convergence in internal coordinates in au.
  Criteria marked as inactive (o), active & met (*), and active & unmet ( ).
  --------------------------------------------------------------------------------------------- ~
   Step     Total Energy     Delta E     MAX Force     RMS Force      MAX Disp      RMS Disp    ~
  --------------------------------------------------------------------------------------------- ~
    Convergence Criteria    1.00e-06 *    3.00e-04 *             o    1.20e-03 *             o  ~
  --------------------------------------------------------------------------------------------- ~
      1    -553.66126470   -5.54e+02      3.32e-02      9.26e-03 o    3.30e-02      9.49e-03 o  ~
  ---------------------------------------------------------------------------------------------

	Writing optimization data to binary file.
	Structure for next step:
	Cartesian Geometry (in Angstrom)
	    C    -1.3017382698   0.7407558339  -0.5593138508
	    C    -0.3075583076   0.1157382180   1.5637659688
	    C    -2.3724793065   1.3084723729   0.1059011719
	    C    -1.3747922050   0.6841451268   2.2345836913
	    C     1.2629340693   0.0481623708  -1.7763491755
	    C     1.5430818341  -1.5388933534   0.0241863546
	    C     2.3297505654  -0.5362836017  -2.4196109703
	    C     2.6027694575  -2.0870634237  -0.6602669028
	    C    -0.2576738978   0.1379171896   0.1606248710
	    C     0.8504953766  -0.4524781978  -0.5313957361
	    C    -2.4290507273   1.2917846128   1.5169631800
	    N     2.9691304871  -1.5798449901  -1.8547441264
	    O    -3.4116630187   1.8131788152   2.1308195723
	    H    -1.2827544828   0.7665397043  -1.6435941523
	    H     0.4897887510  -0.3441754706   2.1375331048
	    H    -3.1664528250   1.7647494429  -0.4752173078
	    H    -1.3864238512   0.6556765745   3.3183641331
	    H     0.7579761969   0.8854825349  -2.2392694901
	    H     1.2566937850  -1.9561300983   0.9806891620
	    H     2.7058904115  -0.2075335222  -3.3767982753
	    H     3.1832743168  -2.9231144008  -0.2996096221
	    H     3.7526127186  -1.9973046121  -2.3437908288
			--------------------------
			 OPTKING Finished Execution 
			--------------------------

    Structure for next step:
    Molecular point group: c1
    Full point group: C1

    Geometry (in Angstrom), charge = 0, multiplicity = 1:

    C           -1.301250418296     0.740498798470    -0.559586747135
    C           -0.307070456092     0.115481182596     1.563493072476
    C           -2.371991454998     1.308215337463     0.105628275583
    C           -1.374304353543     0.683888091370     2.234310795017
    C            1.263421920819     0.047905335433    -1.776622071779
    C            1.543569685599    -1.539150388822     0.023913458295
    C            2.330238416883    -0.536540637092    -2.419883866648
    C            2.603257308952    -2.087320459129    -0.660539799146
    C           -0.257186046350     0.137660154235     0.160351974686
    C            0.850983228117    -0.452735233195    -0.531668632405
    C           -2.428562875779     1.291527577431     1.516690283647
    N            2.969618338552    -1.580102025475    -1.855017022684
    O           -3.411175167240     1.812921779828     2.130546676027
    H           -1.282266631276     0.766282668863    -1.643867048612
    H            0.490276602495    -0.344432506009     2.137260208493
    H           -3.165964973478     1.764492407516    -0.475490204076
    H           -1.385935999733     0.655419539112     3.318091236768
    H            0.758464048367     0.885225499514    -2.239542386412
    H            1.257181636486    -1.956387133684     0.980416265703
    H            2.706378262981    -0.207790557626    -3.377071171625
    H            3.183762168261    -2.923371436245    -0.299882518431
    H            3.753100570058    -1.997561647547    -2.344063725080

gradient() will perform analytic gradient computation.

*** tstart() called on gpu-1-6.local
*** at Sun Nov 12 17:20:41 2017

    SCF Algorithm Type (re)set to DF.

*** tstart() called on gpu-1-6.local
*** at Sun Nov 12 17:20:41 2017

   => Loading Basis Set <=

    Name: AUG-CC-PVTZ
    Role: ORBITAL
    Keyword: BASIS
    atoms 1-11  entry C          line   221 file /cbio/jclab/home/chayas/anaconda/envs/py35/share/psi4/basis/aug-cc-pvtz.gbs 
    atoms 12    entry N          line   267 file /cbio/jclab/home/chayas/anaconda/envs/py35/share/psi4/basis/aug-cc-pvtz.gbs 
    atoms 13    entry O          line   313 file /cbio/jclab/home/chayas/anaconda/envs/py35/share/psi4/basis/aug-cc-pvtz.gbs 
    atoms 14-22 entry H          line    34 file /cbio/jclab/home/chayas/anaconda/envs/py35/share/psi4/basis/aug-cc-pvtz.gbs 


         ---------------------------------------------------------
                                   SCF
            by Justin Turney, Rob Parrish, and Andy Simmonett
                              RHF Reference
                        8 Threads,   4768 MiB Core
         ---------------------------------------------------------

  ==> Geometry <==

    Molecular point group: c1
    Full point group: C1

    Geometry (in Angstrom), charge = 0, multiplicity = 1:

       Center              X                  Y                   Z               Mass       
    ------------   -----------------  -----------------  -----------------  -----------------
           C         -1.301250418296     0.740498798470    -0.559586747135    12.000000000000
           C         -0.307070456092     0.115481182596     1.563493072476    12.000000000000
           C         -2.371991454998     1.308215337463     0.105628275583    12.000000000000
           C         -1.374304353543     0.683888091370     2.234310795017    12.000000000000
           C          1.263421920819     0.047905335433    -1.776622071779    12.000000000000
           C          1.543569685599    -1.539150388822     0.023913458295    12.000000000000
           C          2.330238416883    -0.536540637092    -2.419883866648    12.000000000000
           C          2.603257308952    -2.087320459129    -0.660539799146    12.000000000000
           C         -0.257186046350     0.137660154235     0.160351974686    12.000000000000
           C          0.850983228117    -0.452735233195    -0.531668632405    12.000000000000
           C         -2.428562875779     1.291527577431     1.516690283647    12.000000000000
           N          2.969618338552    -1.580102025475    -1.855017022684    14.003074004780
           O         -3.411175167240     1.812921779828     2.130546676027    15.994914619560
           H         -1.282266631276     0.766282668863    -1.643867048612     1.007825032070
           H          0.490276602495    -0.344432506009     2.137260208493     1.007825032070
           H         -3.165964973478     1.764492407516    -0.475490204076     1.007825032070
           H         -1.385935999733     0.655419539112     3.318091236768     1.007825032070
           H          0.758464048367     0.885225499514    -2.239542386412     1.007825032070
           H          1.257181636486    -1.956387133684     0.980416265703     1.007825032070
           H          2.706378262981    -0.207790557626    -3.377071171625     1.007825032070
           H          3.183762168261    -2.923371436245    -0.299882518431     1.007825032070
           H          3.753100570058    -1.997561647547    -2.344063725080     1.007825032070

  Running in c1 symmetry.

  Rotational constants: A =      0.09567  B =      0.01372  C =      0.01220 [cm^-1]
  Rotational constants: A =   2868.20566  B =    411.42306  C =    365.85475 [MHz]
  Nuclear repulsion =  700.733927946482140

  Charge       = 0
  Multiplicity = 1
  Electrons    = 90
  Nalpha       = 45
  Nbeta        = 45

  ==> Algorithm <==

  SCF Algorithm Type is DF.
  DIIS enabled.
  MOM disabled.
  Fractional occupation disabled.
  Guess Type is READ.
  Energy threshold   = 1.00e-10
  Density threshold  = 1.00e-10
  Integral threshold = 0.00e+00

  ==> Primary Basis <==

  Basis Set: AUG-CC-PVTZ
    Blend: AUG-CC-PVTZ
    Number of shells: 263
    Number of basis function: 805
    Number of Cartesian functions: 940
    Spherical Harmonics?: true
    Max angular momentum: 3

   => Loading Basis Set <=

    Name: (AUG-CC-PVTZ AUX)
    Role: JKFIT
    Keyword: DF_BASIS_SCF
    atoms 1-11  entry C          line   161 file /cbio/jclab/home/chayas/anaconda/envs/py35/share/psi4/basis/aug-cc-pvtz-jkfit.gbs 
    atoms 12    entry N          line   223 file /cbio/jclab/home/chayas/anaconda/envs/py35/share/psi4/basis/aug-cc-pvtz-jkfit.gbs 
    atoms 13    entry O          line   285 file /cbio/jclab/home/chayas/anaconda/envs/py35/share/psi4/basis/aug-cc-pvtz-jkfit.gbs 
    atoms 14-22 entry H          line    69 file /cbio/jclab/home/chayas/anaconda/envs/py35/share/psi4/basis/aug-cc-pvtz-jkfit.gbs 

  Reading orbitals from file 180, no projection.

  ==> Pre-Iterations <==

   -------------------------------------------------------
    Irrep   Nso     Nmo     Nalpha   Nbeta   Ndocc  Nsocc
   -------------------------------------------------------
     A        805     805       0       0       0       0
   -------------------------------------------------------
    Total     805     805      45      45      45       0
   -------------------------------------------------------

  ==> Integral Setup <==

  ==> DFJK: Density-Fitted J/K Matrices <==

    J tasked:                  Yes
    K tasked:                  Yes
    wK tasked:                  No
    OpenMP threads:              8
    Integrals threads:           8
    Memory (MB):              3576
    Algorithm:                Disk
    Integral Cache:           NONE
    Schwarz Cutoff:          1E-12
    Fitting Condition:       1E-12

   => Auxiliary Basis Set <=

  Basis Set: (AUG-CC-PVTZ AUX)
    Blend: AUG-CC-PVTZ-JKFIT
    Number of shells: 516
    Number of basis function: 1766
    Number of Cartesian functions: 2198
    Spherical Harmonics?: true
    Max angular momentum: 4

  Minimum eigenvalue in the overlap matrix is 6.5140243056E-07.
  Using Symmetric Orthogonalization.

  SCF Guess: Orbitals guess was supplied from a previous computation.

  ==> Iterations <==

                           Total Energy        Delta E     RMS |[F,P]|

   @DF-RHF iter   0:  -551.28214787460195   -5.51282e+02   5.96331e-04 
   @DF-RHF iter   1:  -551.22549181708109    5.66561e-02   9.25950e-05 
   @DF-RHF iter   2:  -551.22584559808945   -3.53781e-04   5.92641e-05 DIIS
   @DF-RHF iter   3:  -551.22606012915026   -2.14531e-04   1.42332e-05 DIIS
   @DF-RHF iter   4:  -551.22609123258735   -3.11034e-05   7.24749e-06 DIIS
   @DF-RHF iter   5:  -551.22610883859772   -1.76060e-05   4.26608e-06 DIIS
   @DF-RHF iter   6:  -551.22611490333122   -6.06473e-06   1.80477e-06 DIIS
   @DF-RHF iter   7:  -551.22611598707590   -1.08374e-06   6.45895e-07 DIIS
   @DF-RHF iter   8:  -551.22611603751614   -5.04402e-08   1.93116e-07 DIIS
   @DF-RHF iter   9:  -551.22611604086080   -3.34467e-09   8.11452e-08 DIIS
   @DF-RHF iter  10:  -551.22611604154770   -6.86896e-10   2.97666e-08 DIIS
   @DF-RHF iter  11:  -551.22611604165888   -1.11186e-10   1.17721e-08 DIIS
   @DF-RHF iter  12:  -551.22611604165604    2.84217e-12   4.56840e-09 DIIS
   @DF-RHF iter  13:  -551.22611604167889   -2.28511e-11   1.55376e-09 DIIS
   @DF-RHF iter  14:  -551.22611604166502    1.38698e-11   6.26812e-10 DIIS
   @DF-RHF iter  15:  -551.22611604167150   -6.48015e-12   2.69899e-10 DIIS
   @DF-RHF iter  16:  -551.22611604166957    1.93268e-12   1.43226e-10 DIIS
   @DF-RHF iter  17:  -551.22611604166002    9.54969e-12   6.56018e-11 DIIS

  ==> Post-Iterations <==

    Orbital Energies (a.u.)
    -----------------------

    Doubly Occupied:                                                      

       1A    -20.444413     2A    -15.686827     3A    -11.348834  
       4A    -11.348801     5A    -11.303169     6A    -11.278208  
       7A    -11.278154     8A    -11.255558     9A    -11.230833  
      10A    -11.230785    11A    -11.216380    12A    -11.191915  
      13A    -11.191887    14A     -1.370792    15A     -1.270687  
      16A     -1.174883    17A     -1.107655    18A     -1.104952  
      19A     -1.000835    20A     -0.991841    21A     -0.928912  
      22A     -0.898988    23A     -0.829102    24A     -0.813080  
      25A     -0.786470    26A     -0.726476    27A     -0.718265  
      28A     -0.691019    29A     -0.668592    30A     -0.645019  
      31A     -0.617328    32A     -0.614385    33A     -0.609921  
      34A     -0.582076    35A     -0.562805    36A     -0.539791  
      37A     -0.516378    38A     -0.489736    39A     -0.485375  
      40A     -0.465222    41A     -0.417039    42A     -0.393404  
      43A     -0.351712    44A     -0.330090    45A     -0.235072  

    Virtual:                                                              

      46A     -0.005303    47A      0.012821    48A      0.022614  
      49A      0.024931    50A      0.038337    51A      0.041930  
      52A      0.043196    53A      0.054445    54A      0.057928  
      55A      0.061623    56A      0.062614    57A      0.068160  
      58A      0.069973    59A      0.073534    60A      0.084398  
      61A      0.095226    62A      0.096170    63A      0.102890  
      64A      0.108359    65A      0.108711    66A      0.118777  
      67A      0.119763    68A      0.120678    69A      0.127294  
      70A      0.127927    71A      0.132742    72A      0.134831  
      73A      0.137464    74A      0.148634    75A      0.149602  
      76A      0.151226    77A      0.157116    78A      0.162293  
      79A      0.164685    80A      0.164741    81A      0.170580  
      82A      0.172531    83A      0.180177    84A      0.182781  
      85A      0.183936    86A      0.188969    87A      0.195509  
      88A      0.198036    89A      0.205484    90A      0.211070  
      91A      0.214057    92A      0.216323    93A      0.224338  
      94A      0.225526    95A      0.229090    96A      0.234019  
      97A      0.236500    98A      0.249164    99A      0.250140  
     100A      0.254748   101A      0.256222   102A      0.258439  
     103A      0.269709   104A      0.270795   105A      0.272490  
     106A      0.284585   107A      0.290071   108A      0.290450  
     109A      0.294337   110A      0.297660   111A      0.300529  
     112A      0.301979   113A      0.307093   114A      0.311206  
     115A      0.319124   116A      0.322781   117A      0.328098  
     118A      0.330565   119A      0.331929   120A      0.339967  
     121A      0.341428   122A      0.345393   123A      0.347199  
     124A      0.350790   125A      0.357181   126A      0.357896  
     127A      0.362586   128A      0.370613   129A      0.373621  
     130A      0.375988   131A      0.384330   132A      0.390788  
     133A      0.395306   134A      0.400038   135A      0.400841  
     136A      0.402664   137A      0.417637   138A      0.418739  
     139A      0.421007   140A      0.429447   141A      0.434555  
     142A      0.435188   143A      0.440481   144A      0.444362  
     145A      0.449754   146A      0.454193   147A      0.456587  
     148A      0.459600   149A      0.463204   150A      0.467090  
     151A      0.468816   152A      0.476098   153A      0.480655  
     154A      0.481915   155A      0.485379   156A      0.486239  
     157A      0.491609   158A      0.493328   159A      0.495447  
     160A      0.500481   161A      0.501760   162A      0.513005  
     163A      0.514190   164A      0.514945   165A      0.518799  
     166A      0.524307   167A      0.524500   168A      0.527435  
     169A      0.532508   170A      0.537972   171A      0.543477  
     172A      0.546592   173A      0.552152   174A      0.554503  
     175A      0.563276   176A      0.566283   177A      0.568335  
     178A      0.574122   179A      0.582506   180A      0.589523  
     181A      0.592796   182A      0.601351   183A      0.607502  
     184A      0.612903   185A      0.621177   186A      0.626214  
     187A      0.630892   188A      0.640807   189A      0.644417  
     190A      0.652820   191A      0.653889   192A      0.663531  
     193A      0.670061   194A      0.675197   195A      0.681490  
     196A      0.682585   197A      0.692446   198A      0.693169  
     199A      0.704189   200A      0.705194   201A      0.706395  
     202A      0.711476   203A      0.721193   204A      0.725794  
     205A      0.726190   206A      0.734954   207A      0.740463  
     208A      0.747069   209A      0.748596   210A      0.759155  
     211A      0.767983   212A      0.770391   213A      0.777722  
     214A      0.779666   215A      0.785265   216A      0.790314  
     217A      0.793531   218A      0.801158   219A      0.815412  
     220A      0.818163   221A      0.826518   222A      0.831465  
     223A      0.839982   224A      0.843917   225A      0.844049  
     226A      0.856769   227A      0.857912   228A      0.871348  
     229A      0.872115   230A      0.875892   231A      0.876647  
     232A      0.882635   233A      0.888385   234A      0.890805  
     235A      0.899234   236A      0.909467   237A      0.912175  
     238A      0.913106   239A      0.918241   240A      0.921950  
     241A      0.926593   242A      0.930675   243A      0.931028  
     244A      0.941687   245A      0.942842   246A      0.954521  
     247A      0.957899   248A      0.965376   249A      0.967882  
     250A      0.968368   251A      0.974418   252A      0.977740  
     253A      0.979242   254A      0.988257   255A      0.994155  
     256A      0.997484   257A      0.999489   258A      1.005220  
     259A      1.011652   260A      1.012288   261A      1.017418  
     262A      1.026506   263A      1.029187   264A      1.032149  
     265A      1.037906   266A      1.039384   267A      1.043279  
     268A      1.044736   269A      1.053951   270A      1.058453  
     271A      1.060762   272A      1.065369   273A      1.076097  
     274A      1.079305   275A      1.080780   276A      1.090649  
     277A      1.092593   278A      1.096002   279A      1.096454  
     280A      1.108071   281A      1.114765   282A      1.115196  
     283A      1.121269   284A      1.124684   285A      1.129974  
     286A      1.133239   287A      1.140648   288A      1.149231  
     289A      1.150943   290A      1.160407   291A      1.160638  
     292A      1.170846   293A      1.173772   294A      1.178662  
     295A      1.183227   296A      1.186967   297A      1.192375  
     298A      1.199968   299A      1.200507   300A      1.200683  
     301A      1.205877   302A      1.206625   303A      1.213841  
     304A      1.215310   305A      1.224710   306A      1.230858  
     307A      1.236146   308A      1.243908   309A      1.244359  
     310A      1.251301   311A      1.254253   312A      1.267564  
     313A      1.273749   314A      1.274636   315A      1.278837  
     316A      1.288356   317A      1.295378   318A      1.306588  
     319A      1.308592   320A      1.313342   321A      1.321200  
[...]
	 B(8,6,10)        =         2.127402	     121.891142
	 B(8,6,19)        =         2.052729	     117.612694
	 B(8,12,22)       =         2.091595	     119.839579
	 B(9,1,14)        =         2.079382	     119.139841
	 B(9,2,15)        =         2.082290	     119.306404
	 B(10,5,18)       =         2.099561	     120.295976
	 B(10,6,19)       =         2.101941	     120.432340
	 B(11,3,16)       =         2.041205	     116.952424
	 B(11,4,17)       =         2.039741	     116.868533
	 B(12,7,20)       =         2.032760	     116.468551
	 B(12,8,21)       =         2.031987	     116.424261
	 D(1,3,11,4)      =        -0.031717	      -1.817252
	 D(1,3,11,13)     =         3.116520	     178.563445
	 D(1,9,2,4)       =        -0.063951	      -3.664124
	 D(1,9,2,15)      =        -3.131436	    -179.418055
	 D(1,9,10,5)      =         0.513353	      29.412976
	 D(1,9,10,6)      =        -2.742339	    -157.124434
	 D(2,4,11,3)      =        -0.002611	      -0.149585
	 D(2,4,11,13)     =         3.132347	     179.470244
	 D(2,9,1,3)       =         0.029513	       1.690974
	 D(2,9,1,14)      =        -3.060012	    -175.325757
	 D(2,9,10,5)      =        -2.774269	    -158.953906
	 D(2,9,10,6)      =         0.253224	      14.508683
	 D(3,1,9,10)      =         3.031639	     173.700141
	 D(3,11,4,17)     =         3.133193	     179.518713
	 D(4,2,9,10)      =        -3.064932	    -175.607667
	 D(4,11,3,16)     =         3.088302	     176.946668
	 D(5,7,12,8)      =        -0.017231	      -0.987287
	 D(5,7,12,22)     =        -3.139881	    -179.901918
	 D(5,10,6,8)      =        -0.047415	      -2.716655
	 D(5,10,6,19)     =        -3.137080	    -179.741434
	 D(6,8,12,7)      =         0.009910	       0.567827
	 D(6,8,12,22)     =         3.132567	     179.482856
	 D(6,10,5,7)      =         0.040152	       2.300569
	 D(6,10,5,18)     =        -3.069371	    -175.862010
	 D(7,5,10,9)      =         3.076665	     176.279902
	 D(7,12,8,21)     =         3.140701	     179.948932
	 D(8,6,10,9)      =        -3.083243	    -176.656838
	 D(8,12,7,20)     =         3.096034	     177.389679
	 D(9,1,3,11)      =         0.017890	       1.025010
	 D(9,1,3,16)      =        -3.101272	    -177.689821
	 D(9,2,4,11)      =         0.051081	       2.926743
	 D(9,2,4,17)      =        -3.084488	    -176.728163
	 D(9,10,5,18)     =        -0.032859	      -1.882677
	 D(9,10,6,19)     =         0.110277	       6.318383
	 D(10,5,7,12)     =        -0.009611	      -0.550670
	 D(10,5,7,20)     =        -3.121016	    -178.821037
	 D(10,6,8,12)     =         0.024317	       1.393278
	 D(10,6,8,21)     =        -3.105765	    -177.947228
	 D(10,9,1,14)     =        -0.057885	      -3.316591
	 D(10,9,2,15)     =         0.150769	       8.638402
	 D(11,3,1,14)     =         3.107546	     178.049261
	 D(11,4,2,15)     =         3.118941	     178.702156
	 D(12,7,5,18)     =         3.100711	     177.657662
	 D(12,8,6,19)     =         3.115383	     178.498283
	 D(13,11,3,16)    =        -0.046646	      -2.672635
	 D(13,11,4,17)    =        -0.015035	      -0.861459
	 D(14,1,3,16)     =        -0.011616	      -0.665570
	 D(15,2,4,17)     =        -0.016629	      -0.952750
	 D(18,5,7,20)     =        -0.010694	      -0.612705
	 D(19,6,8,21)     =        -0.014700	      -0.842222
	 D(20,7,12,22)    =        -0.026615	      -1.524951
	 D(21,8,12,22)    =        -0.019828	      -1.136039

	Current energy   :      -553.6796004282

	Energy change for the previous step:
		Projected    :        -0.0000006886
		Actual       :        -0.0000005197

	Performing BFGS update.
	Previous computed or guess Hessian on step 1.
	Steps to be used in Hessian update: 13 12
	Adding user-defined constraint: Fragment 1; Coordinate 64:
		Value =     0.513353; Fixed value    =     0.523600
		Force =     0.008454; Force constant =     0.825000
	Removing off-diagonal coupling between coordinate 64 and others.
	Taking RFO optimization step.
	Going to follow RFO solution 1.
	Rejecting RFO root 1 because normalization gives large value.
	Rejecting RFO root 2 because normalization gives large value.
	Rejecting RFO root 3 because normalization gives large value.
	Rejecting RFO root 4 because normalization gives large value.
	Using RFO vector 5.
	Norm of target step-size    0.03902
	Projected energy change by RFO approximation:         0.0000059480

	Back-transformation to cartesian coordinates...
	Could not converge backtransformation.
	Using first guess instead.

	--- Internal Coordinate Step in ANG or DEG, aJ/ANG or AJ/DEG ---
	 ---------------------------------------------------------------------------
	   Coordinate                Previous        Force       Change         New 
	   ----------                --------       ------       ------       ------
	    1 R(1,3)          =      1.357578     0.000381     0.000056     1.357634
	    2 R(1,9)          =      1.424557     0.000675     0.000049     1.424606
	    3 R(1,14)         =      1.081186     0.000503     0.000152     1.081338
	    4 R(2,4)          =      1.357737     0.000727     0.000191     1.357928
	    5 R(2,9)          =      1.423639     0.001005     0.000379     1.424017
	    6 R(2,15)         =      1.080832     0.000108     0.000019     1.080850
	    7 R(3,11)         =      1.449698     0.000724     0.001011     1.450709
	    8 R(3,16)         =      1.079888     0.000151     0.000026     1.079914
	    9 R(4,11)         =      1.450499     0.000523     0.000239     1.450739
	   10 R(4,17)         =      1.079872     0.001030     0.000788     1.080660
	   11 R(5,7)          =      1.356803     0.000097     0.000017     1.356820
	   12 R(5,10)         =      1.427701     0.001019     0.000231     1.427932
	   13 R(5,18)         =      1.077483     0.000077     0.000042     1.077525
	   14 R(6,8)          =      1.357105     0.000325     0.000025     1.357130
	   15 R(6,10)         =      1.427711     0.000782     0.000264     1.427975
	   16 R(6,19)         =      1.076961     0.000573     0.000185     1.077146
	   17 R(7,12)         =      1.361078     0.000617     0.000138     1.361217
	   18 R(7,20)         =      1.077370     0.000456     0.000105     1.077475
	   19 R(8,12)         =      1.360139     0.000770     0.000837     1.360976
	   20 R(8,21)         =      1.077449     0.000490     0.000109     1.077558
	   21 R(9,10)         =      1.396120     0.001149     0.001789     1.397909
	   22 R(11,13)        =      1.240113    -0.000065    -0.000032     1.240081
	   23 R(12,22)        =      1.004507    -0.000014    -0.000003     1.004504
	   24 B(1,3,11)       =    122.055058     0.000003     0.020022   122.075080
	   25 B(1,3,16)       =    120.980769    -0.000002    -0.008338   120.972430
	   26 B(1,9,2)        =    116.983572    -0.000001     0.044828   117.028400
	   27 B(1,9,10)       =    120.874159     0.000005     0.026549   120.900708
	   28 B(2,4,11)       =    122.159886    -0.000003    -0.016946   122.142940
	   29 B(2,4,17)       =    120.970736     0.000003     0.010265   120.981001
	   30 B(2,9,10)       =    121.641107    -0.000003    -0.031605   121.609502
	   31 B(3,1,9)        =    121.915088    -0.000002    -0.035690   121.879398
	   32 B(3,1,14)       =    118.879306     0.000002     0.017460   118.896766
	   33 B(3,11,4)       =    115.006416     0.000001    -0.003780   115.002637
	   34 B(3,11,13)      =    122.558369     0.000002     0.006773   122.565142
	   35 B(4,2,9)        =    121.776438     0.000003     0.022115   121.798553
	   36 B(4,2,15)       =    118.784058    -0.000002     0.031730   118.815788
	   37 B(4,11,13)      =    122.434070    -0.000003    -0.004720   122.429350
	   38 B(5,7,12)       =    120.652971    -0.000002    -0.007676   120.645295
	   39 B(5,7,20)       =    122.857402     0.000000     0.009751   122.867153
	   40 B(5,10,6)       =    114.379649    -0.000000     0.021760   114.401409
	   41 B(5,10,9)       =    122.376538     0.000007    -0.001265   122.375273
	   42 B(6,8,12)       =    120.754557    -0.000000    -0.006633   120.747924
	   43 B(6,8,21)       =    122.818121    -0.000002    -0.007216   122.810905
	   44 B(6,10,9)       =    122.953615    -0.000005    -0.061514   122.892101
	   45 B(7,5,10)       =    121.989387     0.000001    -0.006930   121.982457
	   46 B(7,5,18)       =    117.690270    -0.000002    -0.001775   117.688495
	   47 B(7,12,8)       =    120.275314     0.000002     0.006537   120.281851
	   48 B(7,12,22)      =    119.876232    -0.000002    -0.007179   119.869053
	   49 B(8,6,10)       =    121.891142    -0.000001    -0.027091   121.864051
	   50 B(8,6,19)       =    117.612694     0.000001     0.026121   117.638815
	   51 B(8,12,22)      =    119.839579     0.000000     0.001257   119.840835
	   52 B(9,1,14)       =    119.139841     0.000000     0.022459   119.162300
	   53 B(9,2,15)       =    119.306404    -0.000001    -0.003211   119.303193
	   54 B(10,5,18)      =    120.295976     0.000000     0.009900   120.305876
	   55 B(10,6,19)      =    120.432340    -0.000000    -0.007608   120.424732
	   56 B(11,3,16)      =    116.952424    -0.000001    -0.010490   116.941933
	   57 B(11,4,17)      =    116.868533     0.000000     0.006239   116.874772
	   58 B(12,7,20)      =    116.468551     0.000002    -0.006425   116.462126
	   59 B(12,8,21)      =    116.424261     0.000003     0.014489   116.438750
	   60 D(1,3,11,4)     =     -1.817252     0.000000    -0.105180    -1.922432
	   61 D(1,3,11,13)    =    178.563445     0.000000     0.117093   178.680538
	   62 D(1,9,2,4)      =     -3.664124     0.000001     0.779557    -2.884568
	   63 D(1,9,2,15)     =   -179.418055     0.000001    -0.124339  -179.542394
	   64 D(1,9,10,5)     =     29.412976    -0.000004     0.096698    29.509674
	   65 D(1,9,10,6)     =   -157.124434    -0.000003    -0.346950  -157.471384
	   66 D(2,4,11,3)     =     -0.149585     0.000000     0.357341     0.207756
	   67 D(2,4,11,13)    =    179.470244    -0.000000     0.135452   179.605696
	   68 D(2,9,1,3)      =      1.690974    -0.000001    -0.527883     1.163091
	   69 D(2,9,1,14)     =   -175.325757    -0.000001    -0.625878  -175.951635
	   70 D(2,9,10,5)     =   -158.953906    -0.000002     0.437277  -158.516630
	   71 D(2,9,10,6)     =     14.508683    -0.000001    -0.006371    14.502312
	   72 D(3,1,9,10)     =    173.700141     0.000001    -0.208501   173.491640
	   73 D(3,11,4,17)    =    179.518713    -0.000000     0.279828   179.798541
	   74 D(4,2,9,10)     =   -175.607667    -0.000001     0.452720  -175.154947
	   75 D(4,11,3,16)    =    176.946668     0.000000    -0.040855   176.905813
	   76 D(5,7,12,8)     =     -0.987287     0.000000     0.118540    -0.868747
	   77 D(5,7,12,22)    =   -179.901918     0.000000     0.080294  -179.821624
	   78 D(5,10,6,8)     =     -2.716655     0.000001    -0.468555    -3.185209
	   79 D(5,10,6,19)    =   -179.741434     0.000000    -0.275909  -180.017343
	   80 D(6,8,12,7)     =      0.567827    -0.000000    -0.085259     0.482567
	   81 D(6,8,12,22)    =    179.482856     0.000000    -0.047116   179.435740
	   82 D(6,10,5,7)     =      2.300569    -0.000000     0.502982     2.803551
	   83 D(6,10,5,18)    =   -175.862010    -0.000001     0.457423  -175.404587
	   84 D(7,5,10,9)     =    176.279902     0.000001     0.089099   176.369001
	   85 D(7,12,8,21)    =    179.948932    -0.000000    -0.016789   179.932143
	   86 D(8,6,10,9)     =   -176.656838    -0.000001    -0.056387  -176.713225
	   87 D(8,12,7,20)    =    177.389679     0.000000    -0.040882   177.348798
	   88 D(9,1,3,11)     =      1.025010     0.000000     0.212626     1.237636
	   89 D(9,1,3,16)     =   -177.689821     0.000000     0.145752  -177.544068
	   90 D(9,2,4,11)     =      2.926743    -0.000001    -0.719928     2.206815
	   91 D(9,2,4,17)     =   -176.728163    -0.000000    -0.639263  -177.367426
	   92 D(9,10,5,18)    =     -1.882677     0.000001     0.043539    -1.839137
	   93 D(9,10,6,19)    =      6.318383    -0.000001     0.136259     6.454641
	   94 D(10,5,7,12)    =     -0.550670     0.000000    -0.347151    -0.897822
	   95 D(10,5,7,20)    =   -178.821037    -0.000000    -0.176937  -178.997974
	   96 D(10,6,8,12)    =      1.393278    -0.000000     0.279444     1.672722
	   97 D(10,6,8,21)    =   -177.947228    -0.000000     0.206361  -177.740867
	   98 D(10,9,1,14)    =     -3.316591     0.000001    -0.306496    -3.623087
	   99 D(10,9,2,15)    =      8.638402    -0.000001    -0.451175     8.187227
	  100 D(11,3,1,14)    =    178.049261     0.000001     0.310519   178.359780
	  101 D(11,4,2,15)    =    178.702156    -0.000000     0.178264   178.880420
	  102 D(12,7,5,18)    =    177.657662     0.000000    -0.302522   177.355139
	  103 D(12,8,6,19)    =    178.498283     0.000000     0.091027   178.589310
	  104 D(13,11,3,16)   =     -2.672635     0.000000     0.181418    -2.491216
	  105 D(13,11,4,17)   =     -0.861459    -0.000000     0.057939    -0.803520
	  106 D(14,1,3,16)    =     -0.665570     0.000000     0.243645    -0.421924
	  107 D(15,2,4,17)    =     -0.952750    -0.000000     0.258929    -0.693822
	  108 D(18,5,7,20)    =     -0.612705     0.000000    -0.132308    -0.745013
	  109 D(19,6,8,21)    =     -0.842222     0.000000     0.017943    -0.824279
	  110 D(20,7,12,22)   =     -1.524951     0.000000    -0.079128    -1.604079
	  111 D(21,8,12,22)   =     -1.136039     0.000000     0.021354    -1.114684
	 ---------------------------------------------------------------------------
	Successfully symmetrized geometry.
	 Forces used to impose fixed constraints are not included.
	  Forces zeroed: 64 

  ==> Convergence Check <==

  Measures of convergence in internal coordinates in au.
  Criteria marked as inactive (o), active & met (*), and active & unmet ( ).
  ---------------------------------------------------------------------------------------------
   Step     Total Energy     Delta E     MAX Force     RMS Force      MAX Disp      RMS Disp   
  ---------------------------------------------------------------------------------------------
    Convergence Criteria    1.00e-06 *    3.00e-04 *             o    1.20e-03 *             o
  ---------------------------------------------------------------------------------------------
     14    -553.67960043   -5.20e-07 *    1.56e-04 *    4.85e-05 o    1.36e-02      3.70e-03 o  ~
  ---------------------------------------------------------------------------------------------


  **** Optimization is complete! (in 14 steps) ****

  ==> Optimization Summary <==

  Measures of convergence in internal coordinates in au.
  --------------------------------------------------------------------------------------------------------------- ~
   Step         Total Energy             Delta E       MAX Force       RMS Force        MAX Disp        RMS Disp  ~
  --------------------------------------------------------------------------------------------------------------- ~
      1    -553.661264696304   -553.661264696304      0.03321443      0.00926345      0.03301923      0.00948664  ~
      2    -553.669399063091     -0.008134366787      0.02073707      0.00628541      0.02860110      0.00948552  ~
      3    -553.674642735468     -0.005243672378      0.01185051      0.00368635      0.02419363      0.00948917  ~
      4    -553.677451593366     -0.002808857898      0.00506402      0.00172176      0.04524857      0.00950479  ~
      5    -553.678661447791     -0.001209854425      0.00323552      0.00076025      0.05533142      0.00950396  ~
      6    -553.679241635916     -0.000580188124      0.00213310      0.00045299      0.05750929      0.00950573  ~
      7    -553.679599347604     -0.000357711688      0.00164988      0.00033406      0.05692069      0.00950198  ~
      8    -553.679752348687     -0.000153001082      0.00218031      0.00032994      0.00745527      0.00166833  ~
      9    -553.679702815901      0.000049532785      0.00127075      0.00019015      0.00778038      0.00155808  ~
     10    -553.679689527880      0.000013288022      0.00112701      0.00016604      0.05622671      0.00949178  ~
     11    -553.679549619582      0.000139908298      0.00099772      0.00017493      0.05696064      0.00948289  ~
     12    -553.679575586008     -0.000025966426      0.00105793      0.00024471      0.00389198      0.00120262  ~
     13    -553.679599908448     -0.000024322440      0.00035953      0.00006498      0.00175290      0.00051178  ~
     14    -553.679600428159     -0.000000519711      0.00023986      0.00005353      0.01360583      0.00370395  ~
  --------------------------------------------------------------------------------------------------------------- ~

	Writing optimization data to binary file.
	Final energy is   -553.6796004281591
	Final (previous) structure:
	Cartesian Geometry (in Angstrom)
	    C    -1.2684640091   0.8451577223  -0.5405295642
	    C    -0.3514347250   0.0675074846   1.5691684477
	    C    -2.3436332994   1.3635809585   0.1062057228
	    C    -1.4004099841   0.6147056387   2.2352581199
	    C     1.2489885014  -0.0202933902  -1.8271463792
	    C     1.6087465674  -1.4894391859   0.0360908858
	    C     2.2986445449  -0.5997122143  -2.4622922404
	    C     2.6473929347  -2.0501202099  -0.6336743574
	    C    -0.2135514616   0.1899942475   0.1575265044
	    C     0.8160035080  -0.4489307902  -0.5359745346
	    C    -2.4766903078   1.3031515524   1.5485188269
	    N     2.9895802174  -1.6154195779  -1.8762202450
	    O    -3.4419208221   1.7964115957   2.1509344792
	    H    -1.2368985255   0.8902513920  -1.6203135582
	    H     0.4314101186  -0.4147170110   2.1373329288
	    H    -3.1524714831   1.8244834721  -0.4410664723
	    H    -1.4651837734   0.5589942652   3.3117454529
	    H     0.7603489842   0.8050706975  -2.3180375779
	    H     1.3663135020  -1.8892529385   1.0062559203
	    H     2.6487299793  -0.2754452344  -3.4282204562
	    H     3.2350963666  -2.8576677004  -0.2294855781
	    H     3.7657510658  -2.0349963821  -2.3563739915
	Saving final (previous) structure.
			--------------------------
			 OPTKING Finished Execution 
			--------------------------

    Final optimized geometry and variables:
    Molecular point group: c1
    Full point group: C1

    Geometry (in Angstrom), charge = 0, multiplicity = 1:

    C           -1.268464009122     0.845157722337    -0.540529564201
    C           -0.351434725014     0.067507484568     1.569168447676
    C           -2.343633299385     1.363580958549     0.106205722820
    C           -1.400409984127     0.614705638744     2.235258119911
    C            1.248988501447    -0.020293390232    -1.827146379204
    C            1.608746567432    -1.489439185911     0.036090885751
    C            2.298644544898    -0.599712214283    -2.462292240397
    C            2.647392934669    -2.050120209921    -0.633674357391
    C           -0.213551461612     0.189994247528     0.157526504425
    C            0.816003508022    -0.448930790174    -0.535974534573
    C           -2.476690307836     1.303151552380     1.548518826876
    N            2.989580217446    -1.615419577898    -1.876220245001
    O           -3.441920822108     1.796411595723     2.150934479161
    H           -1.236898525522     0.890251391995    -1.620313558248
    H            0.431410118579    -0.414717011026     2.137332928754
    H           -3.152471483074     1.824483472141    -0.441066472303
    H           -1.465183773360     0.558994265239     3.311745452888
    H            0.760348984175     0.805070697492    -2.318037577903
    H            1.366313502021    -1.889252938524     1.006255920262
    H            2.648729979277    -0.275445234441    -3.428220456160
    H            3.235096366637    -2.857667700443    -0.229485578130
    H            3.765751065817    -2.034996382125    -2.356373991542

	Cleaning optimization helper files.

*** Psi4 exiting successfully. Buy a developer a beer!
