
    -----------------------------------------------------------------------
          Psi4: An Open-Source Ab Initio Electronic Structure Package
                               Psi4 1.1 release

                         Git: Rev {HEAD} add49b9 


    R. M. Parrish, L. A. Burns, D. G. A. Smith, A. C. Simmonett,
    A. E. DePrince III, E. G. Hohenstein, U. Bozkaya, A. Yu. Sokolov,
    R. Di Remigio, R. M. Richard, J. F. Gonthier, A. M. James,
    H. R. McAlexander, A. Kumar, M. Saitow, X. Wang, B. P. Pritchard,
    P. Verma, H. F. Schaefer III, K. Patkowski, R. A. King, E. F. Valeev,
    F. A. Evangelista, J. M. Turney, T. D. Crawford, and C. D. Sherrill,
    J. Chem. Theory Comput. in press (2017).
    (doi: 10.1021/acs.jctc.7b00174)

    -----------------------------------------------------------------------


    Psi4 started on: Sunday, 12 November 2017 01:09PM

    Process ID:  14798
    PSIDATADIR: /cbio/jclab/home/chayas/anaconda/envs/py35/share/psi4
    Memory:     500.0 MiB
    Threads:    8
    
  ==> Input File <==

--------------------------------------------------------------------------

memory 5 Gb

molecule phepyrOH_neutral {
  symmetry C1
  0 1 
  C      1.885   -1.036   -0.112
  C      2.878   -1.652   2.002
  C      0.807   -0.463   0.561
  C      1.800   -1.079   2.676
  C      3.862   -2.773   -1.356
  C      5.298   -2.250   0.501
  C      4.965   -3.329   -1.983
  C      6.337   -2.829   -0.209
  C      2.921   -1.631   0.608
  C      4.040   -2.225   -0.090
  C      0.764   -0.484   1.955
  N      6.202   -3.372   -1.440
  O      -0.288   0.076   2.612
  H      1.904   -1.012   -1.199
  H      3.678   -2.112   2.578
  H      0.003   -0.001   -0.006
  H      1.772   -1.098   3.762
  H      2.895   -2.772   -1.850
  H      5.475   -1.833   1.487
  H      4.879   -3.768   -2.972
  H      7.337   -2.875   0.208
  H      -0.742   -0.592   3.151
  units Angstrom
}

dih_string = "3 11 13 22 120"
set optking fixed_dihedral = $dih_string

optimize('MP2/aug-cc-PVTZ')
--------------------------------------------------------------------------

  Memory set to   4.657 GiB by Python driver.
gradient() will perform analytic gradient computation.

*** tstart() called on gpu-1-12.local
*** at Sun Nov 12 13:09:12 2017

    SCF Algorithm Type (re)set to DF.

*** tstart() called on gpu-1-12.local
*** at Sun Nov 12 13:09:12 2017

   => Loading Basis Set <=

    Name: AUG-CC-PVTZ
    Role: ORBITAL
    Keyword: BASIS
    atoms 1-11  entry C          line   221 file /cbio/jclab/home/chayas/anaconda/envs/py35/share/psi4/basis/aug-cc-pvtz.gbs 
    atoms 12    entry N          line   267 file /cbio/jclab/home/chayas/anaconda/envs/py35/share/psi4/basis/aug-cc-pvtz.gbs 
    atoms 13    entry O          line   313 file /cbio/jclab/home/chayas/anaconda/envs/py35/share/psi4/basis/aug-cc-pvtz.gbs 
    atoms 14-22 entry H          line    34 file /cbio/jclab/home/chayas/anaconda/envs/py35/share/psi4/basis/aug-cc-pvtz.gbs 


         ---------------------------------------------------------
                                   SCF
            by Justin Turney, Rob Parrish, and Andy Simmonett
                              RHF Reference
                        8 Threads,   4768 MiB Core
         ---------------------------------------------------------

  ==> Geometry <==

    Molecular point group: c1
    Full point group: C1

    Geometry (in Angstrom), charge = 0, multiplicity = 1:

       Center              X                  Y                   Z               Mass       
    ------------   -----------------  -----------------  -----------------  -----------------
           C         -1.250227398188     0.713027998093    -0.588123311702    12.000000000000
           C         -0.257227398188     0.097027998093     1.525876688298    12.000000000000
           C         -2.328227398188     1.286027998093     0.084876688298    12.000000000000
           C         -1.335227398188     0.670027998093     2.199876688298    12.000000000000
           C          0.726772601812    -1.023972001907    -1.832123311702    12.000000000000
           C          2.162772601812    -0.500972001907     0.024876688298    12.000000000000
           C          1.829772601812    -1.579972001907    -2.459123311702    12.000000000000
           C          3.201772601812    -1.079972001907    -0.685123311702    12.000000000000
           C         -0.214227398188     0.118027998093     0.131876688298    12.000000000000
           C          0.904772601812    -0.475972001907    -0.566123311702    12.000000000000
           C         -2.371227398188     1.265027998093     1.478876688298    12.000000000000
           N          3.066772601812    -1.622972001907    -1.916123311702    14.003074004780
           O         -3.423227398188     1.825027998093     2.135876688298    15.994914619560
           H         -1.231227398188     0.737027998093    -1.675123311702     1.007825032070
           H          0.542772601812    -0.362972001907     2.101876688298     1.007825032070
           H         -3.132227398188     1.748027998093    -0.482123311702     1.007825032070
           H         -1.363227398188     0.651027998093     3.285876688298     1.007825032070
           H         -0.240227398188    -1.022972001907    -2.326123311702     1.007825032070
           H          2.339772601812    -0.083972001907     1.010876688298     1.007825032070
           H          1.743772601812    -2.018972001907    -3.448123311702     1.007825032070
           H          4.201772601812    -1.125972001907    -0.268123311702     1.007825032070
           H         -3.877227398188     1.157027998093     2.674876688298     1.007825032070

  Running in c1 symmetry.

  Rotational constants: A =      0.09693  B =      0.01354  C =      0.01209 [cm^-1]
  Rotational constants: A =   2906.02100  B =    405.91042  C =    362.47779 [MHz]
  Nuclear repulsion =  698.501821660498763

  Charge       = 0
  Multiplicity = 1
  Electrons    = 90
  Nalpha       = 45
  Nbeta        = 45

  ==> Algorithm <==

  SCF Algorithm Type is DF.
  DIIS enabled.
  MOM disabled.
  Fractional occupation disabled.
  Guess Type is SAD.
  Energy threshold   = 1.00e-10
  Density threshold  = 1.00e-10
  Integral threshold = 0.00e+00

  ==> Primary Basis <==

  Basis Set: AUG-CC-PVTZ
    Blend: AUG-CC-PVTZ
    Number of shells: 263
    Number of basis function: 805
    Number of Cartesian functions: 940
    Spherical Harmonics?: true
    Max angular momentum: 3

   => Loading Basis Set <=

    Name: (AUG-CC-PVTZ AUX)
    Role: JKFIT
    Keyword: DF_BASIS_SCF
    atoms 1-11  entry C          line   161 file /cbio/jclab/home/chayas/anaconda/envs/py35/share/psi4/basis/aug-cc-pvtz-jkfit.gbs 
    atoms 12    entry N          line   223 file /cbio/jclab/home/chayas/anaconda/envs/py35/share/psi4/basis/aug-cc-pvtz-jkfit.gbs 
    atoms 13    entry O          line   285 file /cbio/jclab/home/chayas/anaconda/envs/py35/share/psi4/basis/aug-cc-pvtz-jkfit.gbs 
    atoms 14-22 entry H          line    69 file /cbio/jclab/home/chayas/anaconda/envs/py35/share/psi4/basis/aug-cc-pvtz-jkfit.gbs 

  ==> Pre-Iterations <==

   -------------------------------------------------------
    Irrep   Nso     Nmo     Nalpha   Nbeta   Ndocc  Nsocc
   -------------------------------------------------------
     A        805     805       0       0       0       0
   -------------------------------------------------------
    Total     805     805      45      45      45       0
   -------------------------------------------------------

  ==> Integral Setup <==

  ==> DFJK: Density-Fitted J/K Matrices <==

    J tasked:                  Yes
    K tasked:                  Yes
    wK tasked:                  No
    OpenMP threads:              8
    Integrals threads:           8
    Memory (MB):              3576
    Algorithm:                Disk
    Integral Cache:           NONE
    Schwarz Cutoff:          1E-12
    Fitting Condition:       1E-12

   => Auxiliary Basis Set <=

  Basis Set: (AUG-CC-PVTZ AUX)
    Blend: AUG-CC-PVTZ-JKFIT
    Number of shells: 516
    Number of basis function: 1766
    Number of Cartesian functions: 2198
    Spherical Harmonics?: true
    Max angular momentum: 4

  Minimum eigenvalue in the overlap matrix is 6.2841179728E-07.
  Using Symmetric Orthogonalization.

  SCF Guess: Superposition of Atomic Densities via on-the-fly atomic UHF.

  ==> Iterations <==

                           Total Energy        Delta E     RMS |[F,P]|

   @DF-RHF iter   0:  -556.41430957533225   -5.56414e+02   1.69863e-02 
   @DF-RHF iter   1:  -550.94662177240946    5.46769e+00   2.11847e-03 
   @DF-RHF iter   2:  -551.23658553397570   -2.89964e-01   7.81470e-04 DIIS
   @DF-RHF iter   3:  -551.27246382544604   -3.58783e-02   3.12373e-04 DIIS
   @DF-RHF iter   4:  -551.28155969073691   -9.09587e-03   5.54224e-05 DIIS
   @DF-RHF iter   5:  -551.28229150029404   -7.31810e-04   3.56764e-05 DIIS
   @DF-RHF iter   6:  -551.28243802086286   -1.46521e-04   1.19301e-05 DIIS
   @DF-RHF iter   7:  -551.28246166532631   -2.36445e-05   3.61318e-06 DIIS
   @DF-RHF iter   8:  -551.28246399339844   -2.32807e-06   1.42883e-06 DIIS
   @DF-RHF iter   9:  -551.28246480323423   -8.09836e-07   9.73055e-07 DIIS
   @DF-RHF iter  10:  -551.28246507608617   -2.72852e-07   5.60422e-07 DIIS
   @DF-RHF iter  11:  -551.28246515617877   -8.00926e-08   1.65920e-07 DIIS
   @DF-RHF iter  12:  -551.28246516589127   -9.71249e-09   5.48785e-08 DIIS
   @DF-RHF iter  13:  -551.28246516663467   -7.43398e-10   2.70010e-08 DIIS
   @DF-RHF iter  14:  -551.28246516675995   -1.25283e-10   7.91247e-09 DIIS
   @DF-RHF iter  15:  -551.28246516677370   -1.37561e-11   3.50078e-09 DIIS
   @DF-RHF iter  16:  -551.28246516676552    8.18545e-12   1.93051e-09 DIIS
   @DF-RHF iter  17:  -551.28246516677757   -1.20508e-11   1.03994e-09 DIIS
   @DF-RHF iter  18:  -551.28246516678018   -2.61480e-12   2.97403e-10 DIIS
   @DF-RHF iter  19:  -551.28246516676131    1.88720e-11   9.64612e-11 DIIS

  ==> Post-Iterations <==

    Orbital Energies (a.u.)
    -----------------------

    Doubly Occupied:                                                      

       1A    -20.591559     2A    -15.562516     3A    -11.308885  
       4A    -11.274610     5A    -11.274593     6A    -11.263851  
       7A    -11.252792     8A    -11.252076     9A    -11.247570  
      10A    -11.244949    11A    -11.243625    12A    -11.237045  
      13A    -11.236890    14A     -1.409152    15A     -1.249202  
      16A     -1.174039    17A     -1.104017    18A     -1.039569  
      19A     -1.028195    20A     -1.008779    21A     -0.880241  
      22A     -0.872852    23A     -0.835930    24A     -0.810530  
      25A     -0.747711    26A     -0.723672    27A     -0.683193  
      28A     -0.665621    29A     -0.649065    30A     -0.635330  
      31A     -0.631014    32A     -0.610451    33A     -0.596187  
      34A     -0.591732    35A     -0.555085    36A     -0.541586  
      37A     -0.528280    38A     -0.518871    39A     -0.500824  
      40A     -0.487124    41A     -0.418220    42A     -0.399761  
      43A     -0.354248    44A     -0.349346    45A     -0.312218  

    Virtual:                                                              

      46A      0.022747    47A      0.028779    48A      0.031880  
      49A      0.038887    50A      0.041983    51A      0.044721  
      52A      0.054516    53A      0.056128    54A      0.060602  
      55A      0.074683    56A      0.078682    57A      0.083110  
      58A      0.087264    59A      0.093114    60A      0.095021  
      61A      0.102213    62A      0.106512    63A      0.108128  
      64A      0.111712    65A      0.113149    66A      0.116206  
      67A      0.119116    68A      0.120531    69A      0.126378  
      70A      0.128776    71A      0.132648    72A      0.133867  
      73A      0.137159    74A      0.141927    75A      0.147726  
      76A      0.148334    77A      0.151881    78A      0.153222  
      79A      0.157243    80A      0.160406    81A      0.168208  
      82A      0.171338    83A      0.175820    84A      0.182685  
      85A      0.184418    86A      0.186604    87A      0.201518  
      88A      0.204323    89A      0.210765    90A      0.216324  
      91A      0.221594    92A      0.225074    93A      0.228885  
      94A      0.233765    95A      0.240558    96A      0.242417  
      97A      0.244912    98A      0.249838    99A      0.253365  
     100A      0.259367   101A      0.259577   102A      0.263426  
     103A      0.265966   104A      0.272356   105A      0.274295  
     106A      0.275248   107A      0.286723   108A      0.288816  
     109A      0.293463   110A      0.293919   111A      0.299768  
     112A      0.301149   113A      0.304553   114A      0.314008  
     115A      0.317823   116A      0.319093   117A      0.324113  
     118A      0.327687   119A      0.330211   120A      0.336184  
     121A      0.339549   122A      0.341885   123A      0.348481  
     124A      0.356472   125A      0.359907   126A      0.362990  
     127A      0.369405   128A      0.372254   129A      0.380048  
     130A      0.384887   131A      0.393319   132A      0.396871  
     133A      0.397735   134A      0.409476   135A      0.419525  
     136A      0.420443   137A      0.425833   138A      0.428091  
     139A      0.430705   140A      0.435540   141A      0.435973  
     142A      0.439763   143A      0.443611   144A      0.448591  
     145A      0.451676   146A      0.454303   147A      0.460185  
     148A      0.462103   149A      0.467471   150A      0.470085  
     151A      0.475064   152A      0.477460   153A      0.485038  
     154A      0.488049   155A      0.489704   156A      0.491096  
     157A      0.499264   158A      0.501710   159A      0.503971  
     160A      0.506268   161A      0.508422   162A      0.513661  
     163A      0.515814   164A      0.518510   165A      0.521751  
     166A      0.525220   167A      0.527625   168A      0.530497  
     169A      0.534487   170A      0.539540   171A      0.542754  
     172A      0.547588   173A      0.551468   174A      0.557626  
     175A      0.560542   176A      0.562823   177A      0.571304  
     178A      0.577332   179A      0.582012   180A      0.588446  
     181A      0.592832   182A      0.598757   183A      0.607593  
     184A      0.613487   185A      0.614073   186A      0.624260  
     187A      0.625334   188A      0.631740   189A      0.636839  
     190A      0.637438   191A      0.651252   192A      0.657450  
     193A      0.661300   194A      0.674793   195A      0.680380  
     196A      0.685981   197A      0.690683   198A      0.699121  
     199A      0.704971   200A      0.708085   201A      0.709481  
     202A      0.719298   203A      0.721764   204A      0.726810  
     205A      0.730904   206A      0.736096   207A      0.740644  
     208A      0.750499   209A      0.757788   210A      0.764837  
     211A      0.767441   212A      0.769427   213A      0.773460  
     214A      0.777621   215A      0.789604   216A      0.798583  
     217A      0.802571   218A      0.810475   219A      0.817470  
     220A      0.822770   221A      0.829683   222A      0.840769  
     223A      0.842515   224A      0.844694   225A      0.853055  
     226A      0.856550   227A      0.860311   228A      0.870184  
     229A      0.871604   230A      0.879594   231A      0.881008  
     232A      0.881274   233A      0.887985   234A      0.894550  
     235A      0.897823   236A      0.903168   237A      0.906061  
     238A      0.911672   239A      0.918956   240A      0.920793  
     241A      0.929374   242A      0.932932   243A      0.940261  
     244A      0.947975   245A      0.950015   246A      0.954201  
     247A      0.960592   248A      0.962795   249A      0.965526  
     250A      0.973928   251A      0.975757   252A      0.980689  
     253A      0.983351   254A      0.988988   255A      0.992538  
     256A      0.998699   257A      1.001414   258A      1.005575  
     259A      1.011724   260A      1.013350   261A      1.014878  
     262A      1.023526   263A      1.024598   264A      1.030460  
     265A      1.035773   266A      1.037182   267A      1.039371  
     268A      1.044073   269A      1.050802   270A      1.054160  
     271A      1.058962   272A      1.063188   273A      1.071772  
     274A      1.084593   275A      1.086335   276A      1.089170  
     277A      1.093507   278A      1.096121   279A      1.098087  
     280A      1.098957   281A      1.104632   282A      1.107621  
     283A      1.115424   284A      1.119250   285A      1.121943  
     286A      1.124318   287A      1.130260   288A      1.140630  
     289A      1.152329   290A      1.154002   291A      1.158557  
     292A      1.161107   293A      1.166066   294A      1.173733  
     295A      1.175595   296A      1.180553   297A      1.183848  
     298A      1.188039   299A      1.190626   300A      1.193654  
     301A      1.201171   302A      1.209568   303A      1.213887  
     304A      1.216683   305A      1.219805   306A      1.221684  
     307A      1.228596   308A      1.232308   309A      1.236617  
     310A      1.251937   311A      1.263668   312A      1.273515  
     313A      1.275489   314A      1.277769   315A      1.279691  
     316A      1.289840   317A      1.293162   318A      1.302018  
     319A      1.305300   320A      1.313047   321A      1.316088  
     322A      1.320633   323A      1.327591   324A      1.333394  
     325A      1.338058   326A      1.346601   327A      1.353003  
     328A      1.363295   329A      1.372372   330A      1.382739  
     331A      1.387031   332A      1.395368   333A      1.409234  
     334A      1.415869   335A      1.420704   336A      1.427450  
     337A      1.444086   338A      1.451039   339A      1.456381  
     340A      1.461610   341A      1.464501   342A      1.480480  
     343A      1.487668   344A      1.497547   345A      1.504982  
     346A      1.508215   347A      1.513784   348A      1.520679  
     349A      1.530054   350A      1.536474   351A      1.544821  
     352A      1.548863   353A      1.556864   354A      1.575384  
     355A      1.578371   356A      1.588319   357A      1.594767  
     358A      1.606803   359A      1.611510   360A      1.617960  
     361A      1.625539   362A      1.632350   363A      1.643093  
     364A      1.657199   365A      1.660352   366A      1.669784  
     367A      1.675349   368A      1.676979   369A      1.689067  
     370A      1.693564   371A      1.703099   372A      1.711289  
     373A      1.719959   374A      1.722836   375A      1.734455  
     376A      1.738804   377A      1.741232   378A      1.746566  
     379A      1.767279   380A      1.772249   381A      1.783324  
     382A      1.786249   383A      1.792117   384A      1.801810  
     385A      1.811984   386A      1.819493   387A      1.827218  
     388A      1.829175   389A      1.835946   390A      1.845560  
     391A      1.854503   392A      1.858470   393A      1.866647  
     394A      1.874923   395A      1.889554   396A      1.902265  
     397A      1.908914   398A      1.913529   399A      1.915267  
     400A      1.929032   401A      1.934090   402A      1.941769  
     403A      1.952648   404A      1.963477   405A      1.966986  
     406A      1.971153   407A      1.979569   408A      1.996495  
     409A      1.999604   410A      2.009078   411A      2.012326  
     412A      2.015868   413A      2.023323   414A      2.029251  
     415A      2.041344   416A      2.045659   417A      2.050422  
     418A      2.058205   419A      2.067970   420A      2.075080  
     421A      2.081156   422A      2.095996   423A      2.098114  
     424A      2.103759   425A      2.110702   426A      2.119874  
     427A      2.124847   428A      2.132429   429A      2.137870  
     430A      2.142910   431A      2.145690   432A      2.150644  
     433A      2.160635   434A      2.185886   435A      2.192244  
     436A      2.195235   437A      2.197591   438A      2.205728  
     439A      2.219347   440A      2.227997   441A      2.236344  
     442A      2.241271   443A      2.247922   444A      2.263206  
     445A      2.272050   446A      2.296809   447A      2.301065  
     448A      2.308535   449A      2.313331   450A      2.325469  
     451A      2.346695   452A      2.349581   453A      2.365154  
     454A      2.366893   455A      2.372234   456A      2.379055  
     457A      2.391030   458A      2.401557   459A      2.405082  
     460A      2.412573   461A      2.415868   462A      2.425166  
     463A      2.437261   464A      2.462344   465A      2.473492  
     466A      2.483265   467A      2.499807   468A      2.515859  
     469A      2.533455   470A      2.536898   471A      2.552283  
     472A      2.555920   473A      2.566619   474A      2.572747  
     475A      2.583556   476A      2.594388   477A      2.594923  
     478A      2.618778   479A      2.625807   480A      2.643128  
     481A      2.668223   482A      2.682221   483A      2.692839  
     484A      2.718807   485A      2.728559   486A      2.745051  
     487A      2.752982   488A      2.776978   489A      2.788860  
     490A      2.802370   491A      2.819810   492A      2.826392  
     493A      2.857037   494A      2.863631   495A      2.870548  
     496A      2.892974   497A      2.903065   498A      2.918466  
     499A      2.949274   500A      2.953838   501A      2.990738  
     502A      3.005223   503A      3.027226   504A      3.042396  
     505A      3.050787   506A      3.068822   507A      3.096500  
     508A      3.109512   509A      3.135164   510A      3.163941  
     511A      3.193440   512A      3.208519   513A      3.212961  
     514A      3.215315   515A      3.242761   516A      3.247514  
     517A      3.256289   518A      3.301021   519A      3.309804  
     520A      3.313725   521A      3.319882   522A      3.340024  
     523A      3.345571   524A      3.359382   525A      3.366805  
     526A      3.372723   527A      3.386216   528A      3.404180  
     529A      3.418766   530A      3.423386   531A      3.429481  
     532A      3.436740   533A      3.446970   534A      3.451882  
     535A      3.461369   536A      3.478163   537A      3.482204  
     538A      3.494719   539A      3.502091   540A      3.515110  
     541A      3.521124   542A      3.532701   543A      3.542008  
     544A      3.544226   545A      3.557007   546A      3.561657  
     547A      3.566647   548A      3.577372   549A      3.582802  
     550A      3.583845   551A      3.595011   552A      3.602462  
     553A      3.610737   554A      3.630608   555A      3.637105  
     556A      3.638887   557A      3.649532   558A      3.655582  
     559A      3.679727   560A      3.687228   561A      3.694178  
     562A      3.701902   563A      3.724020   564A      3.730162  
     565A      3.740368   566A      3.755328   567A      3.771697  
     568A      3.779457   569A      3.783620   570A      3.786899  
     571A      3.794366   572A      3.807342   573A      3.817125  
     574A      3.831362   575A      3.834966   576A      3.848927  
     577A      3.854673   578A      3.864462   579A      3.868607  
     580A      3.877629   581A      3.883741   582A      3.892664  
     583A      3.900664   584A      3.923027   585A      3.932882  
     586A      3.935631   587A      3.939063   588A      3.942244  
     589A      3.950016   590A      3.960810   591A      3.965811  
     592A      3.979485   593A      3.987290   594A      3.995225  
     595A      4.000298   596A      4.014790   597A      4.018388  
     598A      4.025443   599A      4.033054   600A      4.037900  
     601A      4.039344   602A      4.042469   603A      4.072235  
     604A      4.091566   605A      4.106646   606A      4.114612  
     607A      4.115288   608A      4.125839   609A      4.133577  
     610A      4.140187   611A      4.147233   612A      4.160707  
     613A      4.165766   614A      4.173217   615A      4.184297  
     616A      4.197328   617A      4.204150   618A      4.211931  
     619A      4.230604   620A      4.240630   621A      4.256818  
     622A      4.259345   623A      4.263781   624A      4.268925  
     625A      4.276899   626A      4.288074   627A      4.295895  
     628A      4.308061   629A      4.314695   630A      4.332309  
     631A      4.335912   632A      4.341057   633A      4.352510  
     634A      4.370483   635A      4.379853   636A      4.391377  
     637A      4.393280   638A      4.397545   639A      4.404064  
     640A      4.407478   641A      4.419730   642A      4.429271  
     643A      4.443063   644A      4.449395   645A      4.458600  
     646A      4.463705   647A      4.479994   648A      4.483914  
     649A      4.501551   650A      4.510959   651A      4.513054  
     652A      4.517812   653A      4.518915   654A      4.548719  
     655A      4.563509   656A      4.570261   657A      4.588893  
     658A      4.599747   659A      4.622804   660A      4.636343  
     661A      4.640370   662A      4.651769   663A      4.667760  
     664A      4.689833   665A      4.695102   666A      4.698670  
     667A      4.721031   668A      4.726428   669A      4.745991  
     670A      4.754610   671A      4.762438   672A      4.789755  
     673A      4.798629   674A      4.820047   675A      4.839101  
     676A      4.847918   677A      4.861124   678A      4.869507  
     679A      4.877753   680A      4.893822   681A      4.914410  
     682A      4.933801   683A      4.940971   684A      4.951242  
     685A      4.962934   686A      4.977664   687A      4.992422  
     688A      4.999945   689A      5.013991   690A      5.018376  
     691A      5.028724   692A      5.042267   693A      5.054322  
     694A      5.061423   695A      5.084338   696A      5.098186  
     697A      5.116624   698A      5.120716   699A      5.128823  
     700A      5.139710   701A      5.145210   702A      5.157141  
     703A      5.161294   704A      5.164715   705A      5.165273  
     706A      5.180538   707A      5.204279   708A      5.212095  
     709A      5.233168   710A      5.236991   711A      5.265759  
     712A      5.279457   713A      5.293891   714A      5.307639  
     715A      5.313269   716A      5.315131   717A      5.356050  
     718A      5.361481   719A      5.366423   720A      5.391162  
     721A      5.422852   722A      5.430619   723A      5.441881  
     724A      5.452513   725A      5.467678   726A      5.476977  
     727A      5.498049   728A      5.514361   729A      5.554083  
     730A      5.564645   731A      5.570603   732A      5.609507  
     733A      5.620978   734A      5.638920   735A      5.685756  
     736A      5.702085   737A      5.710424   738A      5.744109  
     739A      5.756566   740A      5.763617   741A      5.800080  
     742A      5.822297   743A      5.826829   744A      5.848686  
     745A      5.875570   746A      5.881840   747A      5.915087  
     748A      5.943295   749A      5.986231   750A      6.047605  
     751A      6.085514   752A      6.112216   753A      6.158058  
     754A      6.186464   755A      6.225459   756A      6.244088  
     757A      6.272986   758A      6.285475   759A      6.374386  
     760A      6.402447   761A      6.424895   762A      6.466480  
     763A      6.482065   764A      6.521792   765A      6.529075  
     766A      6.597172   767A      6.622384   768A      6.710069  
     769A      6.713332   770A      6.736657   771A      6.741845  
     772A      6.882806   773A      6.886689   774A      6.907864  
     775A      6.909686   776A      6.927942   777A      6.944124  
     778A      6.974521   779A      7.091253   780A      7.104496  
     781A      7.145396   782A      7.285973   783A      7.323973  
     784A      7.418312   785A      7.431320   786A      7.544307  
     787A      7.627668   788A      7.652082   789A      7.824862  
     790A      7.943859   791A      8.224674   792A      8.607575  
     793A     15.622103   794A     16.365178   795A     16.751661  
     796A     16.810157   797A     16.935354   798A     18.435096  
     799A     18.826939   800A     19.179732   801A     19.824735  
     802A     20.062897   803A     20.148446   804A     20.601546  
     805A     21.770684  

    Final Occupation by Irrep:
              A 
    DOCC [    45 ]

  Energy converged.

  @DF-RHF Final Energy:  -551.28246516676131

   => Energetics <=

    Nuclear Repulsion Energy =            698.5018216604987629
    One-Electron Energy =               -2133.7625599093985329
    Two-Electron Energy =                 883.9782730821384575
    DFT Exchange-Correlation Energy =       0.0000000000000000
    Empirical Dispersion Energy =           0.0000000000000000
    PCM Polarization Energy =               0.0000000000000000
    EFP Energy =                            0.0000000000000000
    Total Energy =                       -551.2824651667613125



Properties will be evaluated at   0.000000,   0.000000,   0.000000 Bohr

Properties computed using the SCF density matrix

  Nuclear Dipole Moment: (a.u.)
     X:    -0.9779      Y:    -0.2881      Z:     0.8351

  Electronic Dipole Moment: (a.u.)
     X:     0.0495      Y:     0.2080      Z:    -0.1156

  Dipole Moment: (a.u.)
     X:    -0.9284      Y:    -0.0801      Z:     0.7195     Total:     1.1773

  Dipole Moment: (Debye)
     X:    -2.3597      Y:    -0.2036      Z:     1.8288     Total:     2.9924


*** tstop() called on gpu-1-12.local at Sun Nov 12 13:16:16 2017
Module time:
	user time   =     994.29 seconds =      16.57 minutes
	system time =      46.74 seconds =       0.78 minutes
	total time  =        424 seconds =       7.07 minutes
Total time:
	user time   =     994.29 seconds =      16.57 minutes
	system time =      46.74 seconds =       0.78 minutes
	total time  =        424 seconds =       7.07 minutes

  //>>>>>>>>>>>>>>>>>>>>>>>>>>>>>>>>>>>//
  //               DFMP2               //
  //<<<<<<<<<<<<<<<<<<<<<<<<<<<<<<<<<<<//

   => Loading Basis Set <=

    Name: (AUG-CC-PVTZ AUX)
    Role: RIFIT
    Keyword: DF_BASIS_MP2
    atoms 1-11  entry C          line   147 file /cbio/jclab/home/chayas/anaconda/envs/py35/share/psi4/basis/aug-cc-pvtz-ri.gbs 
    atoms 12    entry N          line   205 file /cbio/jclab/home/chayas/anaconda/envs/py35/share/psi4/basis/aug-cc-pvtz-ri.gbs 
    atoms 13    entry O          line   263 file /cbio/jclab/home/chayas/anaconda/envs/py35/share/psi4/basis/aug-cc-pvtz-ri.gbs 
    atoms 14-22 entry H          line    29 file /cbio/jclab/home/chayas/anaconda/envs/py35/share/psi4/basis/aug-cc-pvtz-ri.gbs 

	 --------------------------------------------------------
	                          DF-MP2                         
	      2nd-Order Density-Fitted Moller-Plesset Theory     
	              RMP2 Wavefunction,   8 Threads             
	                                                         
	        Rob Parrish, Justin Turney, Andy Simmonett,      
	           Ed Hohenstein, and C. David Sherrill          
	 --------------------------------------------------------

   => Auxiliary Basis Set <=

  Basis Set: (AUG-CC-PVTZ AUX)
    Blend: AUG-CC-PVTZ-RI
    Number of shells: 490
    Number of basis function: 1792
    Number of Cartesian functions: 2263
    Spherical Harmonics?: true
    Max angular momentum: 4

	 --------------------------------------------------------
	                 NBF =   805, NAUX =  1792
	 --------------------------------------------------------
	   CLASS    FOCC     OCC    AOCC    AVIR     VIR    FVIR
	   PAIRS       0      45      45     760     760       0
	 --------------------------------------------------------


         ------------------------------------------------------------
                                     CPHF                           
                                  Rob Parrish                       
         ------------------------------------------------------------

  ==> Geometry <==

    Molecular point group: c1
    Full point group: C1

    Geometry (in Angstrom), charge = 0, multiplicity = 1:

       Center              X                  Y                   Z               Mass       
    ------------   -----------------  -----------------  -----------------  -----------------
           C         -1.250227398188     0.713027998093    -0.588123311702    12.000000000000
           C         -0.257227398188     0.097027998093     1.525876688298    12.000000000000
           C         -2.328227398188     1.286027998093     0.084876688298    12.000000000000
           C         -1.335227398188     0.670027998093     2.199876688298    12.000000000000
           C          0.726772601812    -1.023972001907    -1.832123311702    12.000000000000
           C          2.162772601812    -0.500972001907     0.024876688298    12.000000000000
           C          1.829772601812    -1.579972001907    -2.459123311702    12.000000000000
           C          3.201772601812    -1.079972001907    -0.685123311702    12.000000000000
           C         -0.214227398188     0.118027998093     0.131876688298    12.000000000000
           C          0.904772601812    -0.475972001907    -0.566123311702    12.000000000000
           C         -2.371227398188     1.265027998093     1.478876688298    12.000000000000
           N          3.066772601812    -1.622972001907    -1.916123311702    14.003074004780
           O         -3.423227398188     1.825027998093     2.135876688298    15.994914619560
           H         -1.231227398188     0.737027998093    -1.675123311702     1.007825032070
           H          0.542772601812    -0.362972001907     2.101876688298     1.007825032070
           H         -3.132227398188     1.748027998093    -0.482123311702     1.007825032070
           H         -1.363227398188     0.651027998093     3.285876688298     1.007825032070
           H         -0.240227398188    -1.022972001907    -2.326123311702     1.007825032070
           H          2.339772601812    -0.083972001907     1.010876688298     1.007825032070
           H          1.743772601812    -2.018972001907    -3.448123311702     1.007825032070
           H          4.201772601812    -1.125972001907    -0.268123311702     1.007825032070
           H         -3.877227398188     1.157027998093     2.674876688298     1.007825032070

  Nuclear repulsion =  698.501821660498877
  Reference energy  = -551.282465166761313

  ==> Basis Set <==

  Basis Set: AUG-CC-PVTZ
    Blend: AUG-CC-PVTZ
    Number of shells: 263
    Number of basis function: 805
    Number of Cartesian functions: 940
    Spherical Harmonics?: true
    Max angular momentum: 3

  ==> CGRSolver (by Rob Parrish) <==

   Number of roots    =         1
   Preconditioning    =    JACOBI
   Convergence cutoff =     1E-06
   Maximum iterations =       100

  ==> CPHFRHamiltonian (by Rob Parrish) <== 

  ==> DFJK: Density-Fitted J/K Matrices <==

    J tasked:                  Yes
    K tasked:                  Yes
    wK tasked:                  No
    OpenMP threads:              8
    Integrals threads:           8
    Memory (MB):              3576
    Algorithm:                Disk
    Integral Cache:           NONE
    Schwarz Cutoff:          1E-12
    Fitting Condition:       1E-12

   => Auxiliary Basis Set <=

  Basis Set: (AUG-CC-PVTZ AUX)
    Blend: AUG-CC-PVTZ-JKFIT
    Number of shells: 516
    Number of basis function: 1766
    Number of Cartesian functions: 2198
    Spherical Harmonics?: true
    Max angular momentum: 4

  ==> CPHF Iterations <==

  => Iterations <=

             Iter  Converged  Remaining    Residual
  CGR           1          0          1   8.634E-02
  CGR           2          0          1   3.477E-02
  CGR           3          0          1   2.443E-02
  CGR           4          0          1   1.006E-02
  CGR           5          0          1   3.880E-03
  CGR           6          0          1   1.610E-03
  CGR           7          0          1   4.827E-04
  CGR           8          0          1   1.788E-04
  CGR           9          0          1   9.118E-05
  CGR          10          0          1   3.936E-05
  CGR          11          0          1   1.325E-05
  CGR          12          0          1   4.886E-06
  CGR          13          0          1   1.392E-06
  CGR          14          1          0   4.403E-07

    CGRSolver converged.

  ==> DFCorrGrad: Density-Fitted Correlated Gradients <==

    OpenMP threads:              8
    Integrals threads:           8
    Memory (MB):              3576
    Schwarz Cutoff:          0E+00
    Fitting Condition:       1E-12

   => Auxiliary Basis Set <=

  Basis Set: (AUG-CC-PVTZ AUX)
    Blend: AUG-CC-PVTZ-JKFIT
    Number of shells: 516
    Number of basis function: 1766
    Number of Cartesian functions: 2198
    Spherical Harmonics?: true
    Max angular momentum: 4

	-----------------------------------------------------------
	 ==================> DF-MP2 Energies <==================== 
	-----------------------------------------------------------
	 Reference Energy          =    -551.2824651667613125 [Eh]
	 Singles Energy            =      -0.0000000000000013 [Eh]
	 Same-Spin Energy          =      -0.6048259460983407 [Eh]
	 Opposite-Spin Energy      =      -1.8304807648289216 [Eh]
	 Correlation Energy        =      -2.4353067109272639 [Eh]
	 Total Energy              =    -553.7177718776886195 [Eh]
	-----------------------------------------------------------
	 ================> DF-SCS-MP2 Energies <================== 
	-----------------------------------------------------------
	 SCS Same-Spin Scale       =       0.3333333333333333 [-]
	 SCS Opposite-Spin Scale   =       1.2000000000000000 [-]
	 SCS Same-Spin Energy      =      -0.2016086486994469 [Eh]
	 SCS Opposite-Spin Energy  =      -2.1965769177947059 [Eh]
	 SCS Correlation Energy    =      -2.3981855664941540 [Eh]
	 SCS Total Energy          =    -553.6806507332554474 [Eh]
	-----------------------------------------------------------


  -Total Gradient:
     Atom            X                  Y                   Z
    ------   -----------------  -----------------  -----------------
       1        0.007958190201    -0.003721572700    -0.007612100300
       2        0.008619862458    -0.006129154102    -0.005068497113
       3       -0.001674135135    -0.000877472011     0.002155442485
       4       -0.006083360233     0.002373916861     0.004251982091
       5       -0.009832215594     0.001541362019     0.002134894609
       6       -0.004870864755     0.006203997786     0.007022478065
       7       -0.012654735654     0.002198585789    -0.000256057279
       8       -0.003111073938     0.006938108876     0.011059783888
       9        0.003180755477    -0.001744155935    -0.001950143049
      10        0.004015110610    -0.001769450341    -0.001831250052
      11       -0.009145478850     0.012587618627     0.002244840744
      12        0.012463380526    -0.006985085019    -0.008166198835
      13        0.016256729904    -0.002097171139    -0.004775369168
      14       -0.001305096938    -0.000951568858    -0.006481093202
      15        0.005171423836    -0.001043543717     0.004323422666
      16       -0.002594095914     0.001662174018    -0.005439232912
      17        0.001831303989    -0.001303931290     0.004745772778
      18       -0.004514231413     0.001160086081    -0.003915886032
      19        0.001092236230     0.000269408287     0.005498496036
      20        0.000492045665    -0.001048171692    -0.002865780159
      21        0.002316229462    -0.000744848653     0.000450237381
      22       -0.007611979941    -0.006519132881     0.004474257365


*** tstop() called on gpu-1-12.local at Sun Nov 12 13:49:09 2017
Module time:
	user time   =    5127.01 seconds =      85.45 minutes
	system time =     116.29 seconds =       1.94 minutes
	total time  =       2397 seconds =      39.95 minutes
Total time:
	user time   =    5127.01 seconds =      85.45 minutes
	system time =     116.29 seconds =       1.94 minutes
	total time  =       2397 seconds =      39.95 minutes

			-----------------------------------------
			 OPTKING 2.0: for geometry optimizations 
			  - R.A. King,  Bethel University        
			-----------------------------------------

	Internal coordinates to be generated automatically.
	Detected frag 1 with atoms:  1 2 3 4 5 6 7 8 9 10 11 12 13 14 15 16 17 18 19 20
	 21 22
	---Fragment 1 Bond Connectivity---
	 1 : 3 9 14
	 2 : 4 9 15
	 3 : 1 11 16
	 4 : 2 11 17
	 5 : 7 10 18
	 6 : 8 10 19
	 7 : 5 12 20
	 8 : 6 12 21
	 9 : 1 2 10
	 10 : 5 6 9
	 11 : 3 4 13
	 12 : 7 8
	 13 : 11 22
	 14 : 1
	 15 : 2
	 16 : 3
	 17 : 4
	 18 : 5
	 19 : 6
	 20 : 7
	 21 : 8
	 22 : 13

	Assuming in current code that numbering for constraints corresponds to unified fragment.
	Fixed dihedral atom list: 
	     3    11    13    22
	---Fragment 1 Geometry and Gradient---
	 C          -2.3625873864        1.3474276415       -1.1113919915
	 C          -0.4860893365        0.1833563436        2.8834890534
	 C          -4.3997121577        2.4302407156        0.1603936959
	 C          -2.5232141077        1.2661694178        4.1571644670
	 C           1.3734011783       -1.9350266513       -3.4622113008
	 C           4.0870479051       -0.9466998838        0.0470101280
	 C           3.4577691029       -2.9857143812       -4.6470695861
	 C           6.0504733572       -2.0408513148       -1.2946954264
	 C          -0.4048311127        0.2230405924        0.2492108242
	 C           1.7097724300       -0.8994567305       -1.0698180166
	 C          -4.4809703814        2.3905564668        2.7946719252
	 N           5.7953603293       -3.0669726049       -3.6209482960
	 O          -6.4689622732        3.4488031012        4.0362219945
	 H          -2.3266825899        1.3927810687       -3.1655242979
	 H           1.0256915699       -0.6859176775        3.9719713060
	 H          -5.9190519685        3.3032941890       -0.9110810214
	 H          -2.5761264394        1.2302646212        6.2094070473
	 H          -0.4539639922       -1.9331369252       -4.3957360104
	 H           4.4215294307       -0.1586840864        1.9102800950
	 H           3.2952526555       -3.8153041536       -6.5160087315
	 H           7.9401994901       -2.1277787169       -0.5066796290
	 H          -7.3268979375        2.1864660445        5.0547843801
	             0.0079581902       -0.0037215727       -0.0076121003
	             0.0086198625       -0.0061291541       -0.0050684971
	            -0.0016741351       -0.0008774720        0.0021554425
	            -0.0060833602        0.0023739169        0.0042519821
	            -0.0098322156        0.0015413620        0.0021348946
	            -0.0048708648        0.0062039978        0.0070224781
	            -0.0126547357        0.0021985858       -0.0002560573
	            -0.0031110739        0.0069381089        0.0110597839
	             0.0031807555       -0.0017441559       -0.0019501430
	             0.0040151106       -0.0017694503       -0.0018312501
	            -0.0091454788        0.0125876186        0.0022448407
	             0.0124633805       -0.0069850850       -0.0081661988
	             0.0162567299       -0.0020971711       -0.0047753692
	            -0.0013050969       -0.0009515689       -0.0064810932
	             0.0051714238       -0.0010435437        0.0043234227
	            -0.0025940959        0.0016621740       -0.0054392329
	             0.0018313040       -0.0013039313        0.0047457728
	            -0.0045142314        0.0011600861       -0.0039158860
	             0.0010922362        0.0002694083        0.0054984960
	             0.0004920457       -0.0010481717       -0.0028657802
	             0.0023162295       -0.0007448487        0.0004502374
	            -0.0076119799       -0.0065191329        0.0044742574

	Previous optimization step data not found.  Starting new optimization.

	---Fragment 1 Intrafragment Coordinates---
	 - Coordinate -           - BOHR/RAD -       - ANG/DEG -
	 R(1,3)           =         2.634350	       1.394038
	 R(1,9)           =         2.635962	       1.394891
	 R(1,14)          =         2.054947	       1.087431
	 R(2,4)           =         2.635263	       1.394521
	 R(2,9)           =         2.635830	       1.394821
	 R(2,15)          =         2.055702	       1.087831
	 R(3,11)          =         2.635830	       1.394821
	 R(3,16)          =         2.053941	       1.086899
	 R(4,11)          =         2.636938	       1.395407
	 R(4,17)          =         2.053239	       1.086527
	 R(5,7)           =         2.617713	       1.385234
	 R(5,10)          =         2.628516	       1.390951
	 R(5,18)          =         2.052008	       1.085876
	 R(6,8)           =         2.617705	       1.385230
	 R(6,10)          =         2.626971	       1.390133
	 R(6,19)          =         2.050517	       1.085087
	 R(7,12)          =         2.554185	       1.351616
	 R(7,20)          =         2.051235	       1.085467
	 R(8,12)          =         2.555281	       1.352196
	 R(8,21)          =         2.049290	       1.084438
	 R(9,10)          =         2.733384	       1.446444
	 R(11,13)         =         2.571662	       1.360865
	 R(13,22)         =         1.834944	       0.971010
	 B(1,3,11)        =         2.094553	     120.009056
	 B(1,3,16)        =         2.088505	     119.662516
	 B(1,9,2)         =         2.093692	     119.959722
	 B(1,9,10)        =         2.095161	     120.043881
	 B(2,4,11)        =         2.093699	     119.960108
	 B(2,4,17)        =         2.089577	     119.723926
	 B(2,9,10)        =         2.094332	     119.996376
	 B(3,1,9)         =         2.094940	     120.031219
	 B(3,1,14)        =         2.079469	     119.144799
	 B(3,11,4)        =         2.094306	     119.994870
	 B(3,11,13)       =         2.094549	     120.008801
	 B(4,2,9)         =         2.095181	     120.045019
	 B(4,2,15)        =         2.078675	     119.099297
	 B(4,11,13)       =         2.094331	     119.996326
	 B(5,7,12)        =         2.164774	     124.032419
	 B(5,7,20)        =         2.107900	     120.773750
	 B(5,10,6)        =         2.089402	     119.713913
	 B(5,10,9)        =         2.096711	     120.132663
	 B(6,8,12)        =         2.164670	     124.026428
	 B(6,8,21)        =         2.108649	     120.816676
	 B(6,10,9)        =         2.097073	     120.153413
	 B(7,5,10)        =         2.058056	     117.917911
	 B(7,5,18)        =         2.098486	     120.234396
	 B(7,12,8)        =         2.031222	     116.380442
	 B(8,6,10)        =         2.058246	     117.928826
	 B(8,6,19)        =         2.099051	     120.266760
	 B(9,1,14)        =         2.108776	     120.823969
	 B(9,2,15)        =         2.109330	     120.855683
	 B(10,5,18)       =         2.126643	     121.847689
	 B(10,6,19)       =         2.125888	     121.804412
	 B(11,3,16)       =         2.100127	     120.328425
	 B(11,4,17)       =         2.099910	     120.315955
	 B(11,13,22)      =         1.924457	     110.263272
	 B(12,7,20)       =         2.010511	     115.193804
	 B(12,8,21)       =         2.009864	     115.156734
	 D(1,3,11,4)      =        -0.000325	      -0.018609
	 D(1,3,11,13)     =         3.140978	     179.964785
	 D(1,9,2,4)       =         0.000325	       0.018608
	 D(1,9,2,15)      =        -3.141497	    -179.994534
	 D(1,9,10,5)      =        -0.524224	     -30.035797
	 D(1,9,10,6)      =         2.616694	     149.925506
	 D(2,4,11,3)      =         0.000301	       0.017261
	 D(2,4,11,13)     =        -3.141002	    -179.966135
	 D(2,9,1,3)       =        -0.000348	      -0.019945
	 D(2,9,1,14)      =        -3.141221	    -179.978731
	 D(2,9,10,5)      =         2.618285	     150.016707
	 D(2,9,10,6)      =        -0.523983	     -30.021991
	 D(3,1,9,10)      =        -3.141025	    -179.967461
	 D(3,11,4,17)     =         3.141223	     179.978848
	 D(3,11,13,22)    =         2.094602	     120.011832
	 D(4,2,9,10)      =         3.141002	     179.966149
	 D(4,11,3,16)     =         3.141593	     180.000000
	 D(4,11,13,22)    =        -1.047281	     -60.004774
	 D(5,7,12,8)      =        -0.001332	      -0.076323
	 D(5,10,6,8)      =         0.000381	       0.021838
	 D(5,10,6,19)     =        -3.140989	    -179.965395
	 D(6,8,12,7)      =         0.001671	       0.095732
	 D(6,10,5,7)      =        -0.000077	      -0.004437
	 D(6,10,5,18)     =        -3.141299	    -179.983151
	 D(7,5,10,9)      =         3.140843	     179.957036
	 D(7,12,8,21)     =         3.140716	     179.949799
	 D(8,6,10,9)      =        -3.140539	    -179.939628
	 D(8,12,7,20)     =         3.139212	     179.863574
	 D(9,1,3,11)      =         0.000348	       0.019955
	 D(9,1,3,16)      =        -3.141571	    -179.998735
	 D(9,2,4,11)      =        -0.000301	      -0.017270
	 D(9,2,4,17)      =        -3.141228	    -179.979086
	 D(9,10,5,18)     =        -0.000378	      -0.021678
	 D(9,10,6,19)     =         0.001277	       0.073140
	 D(10,5,7,12)     =         0.000580	       0.033223
	 D(10,5,7,20)     =        -3.139908	    -179.903478
	 D(10,6,8,12)     =        -0.001235	      -0.070741
	 D(10,6,8,21)     =        -3.140143	    -179.916933
	 D(10,9,1,14)     =         0.001287	       0.073752
	 D(10,9,2,15)     =        -0.000820	      -0.046992
	 D(11,3,1,14)     =         3.141234	     179.979432
	 D(11,4,2,15)     =         3.141517	     179.995641
	 D(12,7,5,18)     =        -3.141378	    -179.987706
	 D(12,8,6,19)     =         3.140139	     179.916697
	 D(13,11,3,16)    =        -0.000286	      -0.016400
	 D(13,11,4,17)    =        -0.000079	      -0.004548
	 D(14,1,3,16)     =        -0.000685	      -0.039257
	 D(15,2,4,17)     =         0.000590	       0.033826
	 D(18,5,7,20)     =         0.001319	       0.075593
	 D(19,6,8,21)     =         0.001231	       0.070505

	Current energy   :      -553.7177718777

	Generating empirical Hessian (Schlegel '84) for each fragment.
	Adding user-defined constraint: Fragment 1; Coordinate 73:
		Value =     2.094602; Fixed value    =     2.094395
		Force =    -0.000103; Force constant =     0.500000
	Removing off-diagonal coupling between coordinate 73 and others.
	Taking RFO optimization step.
	Going to follow RFO solution 1.
	Using RFO vector 1.

	Determining step-restricting scale parameter for RS-RFO.
	Maximum step size allowed    0.10000

	 Iter      |step|        alpha        rfo_root  
	------------------------------------------------
	    0     0.26153       1.00000           1
	    1     0.18403       3.66074           1
	    2     0.14191       9.53897           1
	    3     0.11643      20.41135           1
	    4     0.10357      31.17797           1
	    5     0.10022      34.93780           1
	    6     0.10000      35.20031           1
	------------------------------------------------
	Norm of target step-size    0.10000
	Projected energy change by RFO approximation:        -0.0047218720

	Back-transformation to cartesian coordinates...
	Could not converge backtransformation.
	Using first guess instead.

	--- Internal Coordinate Step in ANG or DEG, aJ/ANG or AJ/DEG ---
	 ---------------------------------------------------------------------------
	   Coordinate                Previous        Force       Change         New 
	   ----------                --------       ------       ------       ------
	    1 R(1,3)          =      1.394038    -0.050918    -0.005208     1.388830
	    2 R(1,9)          =      1.394891    -0.003263    -0.000046     1.394845
	    3 R(1,14)         =      1.087431    -0.053014    -0.006571     1.080860
	    4 R(2,4)          =      1.394521    -0.056731    -0.005779     1.388742
	    5 R(2,9)          =      1.394821    -0.005375    -0.000293     1.394528
	    6 R(2,15)         =      1.087831    -0.053828    -0.006697     1.081134
	    7 R(3,11)         =      1.394821    -0.076545    -0.007977     1.386844
	    8 R(3,16)         =      1.086899    -0.045008    -0.005557     1.081342
	    9 R(4,11)         =      1.395407    -0.051159    -0.005372     1.390036
	   10 R(4,17)         =      1.086527    -0.038879    -0.004823     1.081704
	   11 R(5,7)          =      1.385234     0.001443     0.000128     1.385362
	   12 R(5,10)         =      1.390951     0.003468     0.000941     1.391892
	   13 R(5,18)         =      1.085876    -0.047805    -0.005889     1.079986
	   14 R(6,8)          =      1.385230     0.001816     0.000167     1.385397
	   15 R(6,10)         =      1.390133     0.008964     0.001555     1.391688
	   16 R(6,19)         =      1.085087    -0.043486    -0.005334     1.079753
	   17 R(7,12)         =      1.351616    -0.122635    -0.011409     1.340207
	   18 R(7,20)         =      1.085467    -0.024682    -0.003040     1.082427
	   19 R(8,12)         =      1.352196    -0.126577    -0.011794     1.340403
	   20 R(8,21)         =      1.084438    -0.019285    -0.002361     1.082077
	   21 R(9,10)         =      1.446444     0.155651     0.018160     1.464604
	   22 R(11,13)        =      1.360865     0.085466     0.008050     1.368915
	   23 R(13,22)        =      0.971010    -0.086734    -0.007989     0.963021
	   24 B(1,3,11)       =    120.009056     0.000060     0.063869   120.072925
	   25 B(1,3,16)       =    119.662516     0.000207     0.522776   120.185292
	   26 B(1,9,2)        =    119.959722    -0.000773    -1.375273   118.584448
	   27 B(1,9,10)       =    120.043881     0.000387     0.688454   120.732336
	   28 B(2,4,11)       =    119.960108     0.000123     0.195641   120.155750
	   29 B(2,4,17)       =    119.723926     0.000118     0.321972   120.045898
	   30 B(2,9,10)       =    119.996376     0.000387     0.686813   120.683189
	   31 B(3,1,9)        =    120.031219     0.000408     0.802764   120.833983
	   32 B(3,1,14)       =    119.144799    -0.000148    -0.273823   118.870976
	   33 B(3,11,4)       =    119.994870    -0.000139    -0.328424   119.666447
	   34 B(3,11,13)      =    120.008801    -0.000351    -0.598591   119.410210
	   35 B(4,2,9)        =    120.045019     0.000321     0.641364   120.686383
	   36 B(4,2,15)       =    119.099297    -0.000085    -0.147210   118.952088
	   37 B(4,11,13)      =    119.996326     0.000490     0.926278   120.922604
	   38 B(5,7,12)       =    124.032419     0.000043     0.000167   124.032586
	   39 B(5,7,20)       =    120.773750    -0.000074    -0.123342   120.650407
	   40 B(5,10,6)       =    119.713913    -0.001199    -2.067362   117.646551
	   41 B(5,10,9)       =    120.132663     0.000598     1.029303   121.161967
	   42 B(6,8,12)       =    124.026428     0.000039    -0.007445   124.018983
	   43 B(6,8,21)       =    120.816676    -0.000076    -0.127929   120.688747
	   44 B(6,10,9)       =    120.153413     0.000602     1.038062   121.191475
	   45 B(7,5,10)       =    117.917911     0.000526     1.085932   119.003843
	   46 B(7,5,18)       =    120.234396    -0.000206    -0.412381   119.822016
	   47 B(7,12,8)       =    116.380442     0.000065    -0.097734   116.282708
	   48 B(8,6,10)       =    117.928826     0.000526     1.086452   119.015278
	   49 B(8,6,19)       =    120.266760    -0.000214    -0.432225   119.834536
	   50 B(9,1,14)       =    120.823969    -0.000260    -0.529144   120.294825
	   51 B(9,2,15)       =    120.855683    -0.000236    -0.494506   120.361176
	   52 B(10,5,18)      =    121.847689    -0.000320    -0.674079   121.173610
	   53 B(10,6,19)      =    121.804412    -0.000313    -0.654806   121.149606
	   54 B(11,3,16)      =    120.328425    -0.000268    -0.586874   119.741551
	   55 B(11,4,17)      =    120.315955    -0.000241    -0.517604   119.798350
	   56 B(11,13,22)     =    110.263272    -0.000255    -0.589700   109.673573
	   57 B(12,7,20)      =    115.193804     0.000031     0.123164   115.316968
	   58 B(12,8,21)      =    115.156734     0.000037     0.135535   115.292269
	   59 D(1,3,11,4)     =     -0.018609     0.000001    -0.006047    -0.024656
	   60 D(1,3,11,13)    =    179.964785    -0.000019    -0.299213   179.665572
	   61 D(1,9,2,4)      =      0.018608    -0.000000    -0.009773     0.008834
	   62 D(1,9,2,15)     =   -179.994534    -0.000011    -0.215078  -180.209612
	   63 D(1,9,10,5)     =    -30.035797    -0.000029    -0.541302   -30.577098
	   64 D(1,9,10,6)     =    149.925506    -0.000029    -0.535827   149.389679
	   65 D(2,4,11,3)     =      0.017261    -0.000005    -0.058370    -0.041108
	   66 D(2,4,11,13)    =   -179.966135     0.000015     0.239588  -179.726547
	   67 D(2,9,1,3)      =     -0.019945    -0.000003    -0.055218    -0.075163
	   68 D(2,9,1,14)     =   -179.978731    -0.000015    -0.267282  -180.246013
	   69 D(2,9,10,5)     =    150.016707    -0.000028    -0.533162   149.483545
	   70 D(2,9,10,6)     =    -30.021991    -0.000028    -0.527687   -30.549678
	   71 D(3,1,9,10)     =   -179.967461    -0.000003    -0.048309  -180.015771
	   72 D(3,11,4,17)    =    179.978848    -0.000004    -0.038138   179.940710
	   73 D(3,11,13,22)   =    120.011832     0.000021     0.134632   120.146465
	   74 D(4,2,9,10)     =    179.966149    -0.000001    -0.016677   179.949472
	   75 D(4,11,3,16)    =    180.000000     0.000010     0.150346   180.150346
	   76 D(4,11,13,22)   =    -60.004774     0.000000    -0.162527   -60.167301
	   77 D(5,7,12,8)     =     -0.076323     0.000001     0.022947    -0.053376
	   78 D(5,10,6,8)     =      0.021838     0.000000     0.003879     0.025717
	   79 D(5,10,6,19)    =   -179.965395    -0.000016    -0.286453  -180.251849
	   80 D(6,8,12,7)     =      0.095732    -0.000000    -0.007291     0.088441
	   81 D(6,10,5,7)     =     -0.004437     0.000001     0.010500     0.006063
	   82 D(6,10,5,18)    =   -179.983151    -0.000015    -0.276528  -180.259679
	   83 D(7,5,10,9)     =    179.957036     0.000001     0.016944   179.973980
	   84 D(7,12,8,21)    =    179.949799     0.000008     0.147943   180.097742
	   85 D(8,6,10,9)     =   -179.939628    -0.000000    -0.002563  -179.942190
	   86 D(8,12,7,20)    =    179.863574     0.000009     0.154809   180.018383
	   87 D(9,1,3,11)     =      0.019955     0.000003     0.063766     0.083721
	   88 D(9,1,3,16)     =   -179.998735    -0.000006    -0.093330  -180.092064
	   89 D(9,2,4,11)     =     -0.017270     0.000004     0.066332     0.049062
	   90 D(9,2,4,17)     =   -179.979086     0.000003     0.046375  -179.932711
	   91 D(9,10,5,18)    =     -0.021678    -0.000015    -0.270084    -0.291762
	   92 D(9,10,6,19)    =      0.073140    -0.000017    -0.292895    -0.219756
	   93 D(10,5,7,12)    =      0.033223    -0.000001    -0.025091     0.008132
	   94 D(10,5,7,20)    =   -179.903478    -0.000009    -0.163791  -180.067269
	   95 D(10,6,8,12)    =     -0.070741    -0.000000    -0.006217    -0.076958
	   96 D(10,6,8,21)    =   -179.916933    -0.000010    -0.169803  -180.086736
	   97 D(10,9,1,14)    =      0.073752    -0.000015    -0.260373    -0.186621
	   98 D(10,9,2,15)    =     -0.046992    -0.000012    -0.221981    -0.268974
	   99 D(11,3,1,14)    =    179.979432     0.000015     0.272745   180.252178
	  100 D(11,4,2,15)    =    179.995641     0.000015     0.268829   180.264470
	  101 D(12,7,5,18)    =   -179.987706     0.000014     0.257912  -179.729793
	  102 D(12,8,6,19)    =    179.916697     0.000016     0.280184   180.196881
	  103 D(13,11,3,16)   =     -0.016400    -0.000011    -0.143026    -0.159426
	  104 D(13,11,4,17)   =     -0.004548     0.000017     0.259819     0.255271
	  105 D(14,1,3,16)    =     -0.039257     0.000006     0.115649     0.076392
	  106 D(15,2,4,17)    =      0.033826     0.000014     0.248872     0.282697
	  107 D(18,5,7,20)    =      0.075593     0.000007     0.119212     0.194805
	  108 D(19,6,8,21)    =      0.070505     0.000007     0.116598     0.187103
	 ---------------------------------------------------------------------------
	Successfully symmetrized geometry.
	 Forces used to impose fixed constraints are not included.
	  Forces zeroed: 73 

  ==> Convergence Check <==

  Measures of convergence in internal coordinates in au.
  Criteria marked as inactive (o), active & met (*), and active & unmet ( ).
  --------------------------------------------------------------------------------------------- ~
   Step     Total Energy     Delta E     MAX Force     RMS Force      MAX Disp      RMS Disp    ~
  --------------------------------------------------------------------------------------------- ~
    Convergence Criteria    1.00e-06 *    3.00e-04 *             o    1.20e-03 *             o  ~
  --------------------------------------------------------------------------------------------- ~
      1    -553.71777188   -5.54e+02      1.89e-02      4.66e-03 o    3.61e-02      9.61e-03 o  ~
  ---------------------------------------------------------------------------------------------

	Writing optimization data to binary file.
	Structure for next step:
	Cartesian Geometry (in Angstrom)
	    C    -1.2636424540   0.7246588688  -0.5638789690
	    C    -0.2802480165   0.1018876245   1.5329565436
	    C    -2.3387905689   1.2941473504   0.1058888195
	    C    -1.3536206012   0.6718884126   2.2049503301
	    C     0.7548220496  -1.0376528296  -1.8341844571
	    C     2.1813375731  -0.5109433240  -0.0013013622
	    C     1.8567141094  -1.5929490049  -2.4640330225
	    C     3.2206410326  -1.0888336795  -0.7120866430
	    C    -0.2215700279   0.1209021134   0.1397934810
	    C     0.9110078155  -0.4792854494  -0.5688013407
	    C    -2.3863078145   1.2694049949   1.4916973388
	    N     3.0855210863  -1.6311099604  -1.9304291459
	    O    -3.4490555507   1.8408544581   2.1381799931
	    H    -1.2444316945   0.7585571994  -1.6440365287
	    H     0.5101561810  -0.3614500825   2.1069172101
	    H    -3.1402914310   1.7608045571  -0.4501035689
	    H    -1.3880348770   0.6522328362   3.2859280127
	    H    -0.2066296886  -1.0477213268  -2.3259970329
	    H     2.3672252646  -0.0905685340   0.9757340298
	    H     1.7652973278  -2.0352979505  -3.4477090219
	    H     4.2193383041  -1.1268656864  -0.2973012642
	    H    -3.9024407792   1.1759553706   2.6671037407
			--------------------------
			 OPTKING Finished Execution 
			--------------------------

    Structure for next step:
    Molecular point group: c1
    Full point group: C1

    Geometry (in Angstrom), charge = 0, multiplicity = 1:

    C           -1.263500737503     0.724859701463    -0.563980802001
    C           -0.280106300015     0.102088457113     1.532854710570
    C           -2.338648852390     1.294348183034     0.105786986518
    C           -1.353478884683     0.672089245242     2.204848497161
    C            0.754963766153    -1.037451996945    -1.834286290049
    C            2.181479289675    -0.510742491387    -0.001403195153
    C            1.856855825886    -1.592748172248    -2.464134855469
    C            3.220782749108    -1.088632846914    -0.712188476016
    C           -0.221428311338     0.121102945997     0.139691647987
    C            0.911149532044    -0.479084616756    -0.568903173670
    C           -2.386166098006     1.269605827514     1.491595505814
    N            3.085662802801    -1.630909127812    -1.930530978877
    O           -3.448913834198     1.841055290740     2.138078160072
    H           -1.244289977977     0.758758031988    -1.644138361715
    H            0.510297897515    -0.361249249919     2.106815377139
    H           -3.140149714461     1.761005389754    -0.450205401842
    H           -1.387893160498     0.652433668832     3.285826179759
    H           -0.206487972089    -1.047520494179    -2.326098865875
    H            2.367366981175    -0.090367701420     0.975632196833
    H            1.765439044365    -2.035097117904    -3.447810854865
    H            4.219480020666    -1.126664853737    -0.297403097202
    H           -3.902299062630     1.176156203214     2.667001907694

gradient() will perform analytic gradient computation.

*** tstart() called on gpu-1-12.local
*** at Sun Nov 12 13:49:10 2017

    SCF Algorithm Type (re)set to DF.

*** tstart() called on gpu-1-12.local
*** at Sun Nov 12 13:49:10 2017

   => Loading Basis Set <=

    Name: AUG-CC-PVTZ
    Role: ORBITAL
    Keyword: BASIS
    atoms 1-11  entry C          line   221 file /cbio/jclab/home/chayas/anaconda/envs/py35/share/psi4/basis/aug-cc-pvtz.gbs 
    atoms 12    entry N          line   267 file /cbio/jclab/home/chayas/anaconda/envs/py35/share/psi4/basis/aug-cc-pvtz.gbs 
    atoms 13    entry O          line   313 file /cbio/jclab/home/chayas/anaconda/envs/py35/share/psi4/basis/aug-cc-pvtz.gbs 
    atoms 14-22 entry H          line    34 file /cbio/jclab/home/chayas/anaconda/envs/py35/share/psi4/basis/aug-cc-pvtz.gbs 


         ---------------------------------------------------------
                                   SCF
            by Justin Turney, Rob Parrish, and Andy Simmonett
                              RHF Reference
                        8 Threads,   4768 MiB Core
         ---------------------------------------------------------

  ==> Geometry <==

    Molecular point group: c1
    Full point group: C1

    Geometry (in Angstrom), charge = 0, multiplicity = 1:

       Center              X                  Y                   Z               Mass       
    ------------   -----------------  -----------------  -----------------  -----------------
           C         -1.263500737503     0.724859701463    -0.563980802001    12.000000000000
           C         -0.280106300015     0.102088457113     1.532854710570    12.000000000000
           C         -2.338648852390     1.294348183034     0.105786986518    12.000000000000
           C         -1.353478884683     0.672089245242     2.204848497161    12.000000000000
           C          0.754963766153    -1.037451996945    -1.834286290049    12.000000000000
           C          2.181479289675    -0.510742491387    -0.001403195153    12.000000000000
           C          1.856855825886    -1.592748172248    -2.464134855469    12.000000000000
           C          3.220782749108    -1.088632846914    -0.712188476016    12.000000000000
           C         -0.221428311338     0.121102945997     0.139691647987    12.000000000000
           C          0.911149532044    -0.479084616756    -0.568903173670    12.000000000000
           C         -2.386166098006     1.269605827514     1.491595505814    12.000000000000
           N          3.085662802801    -1.630909127812    -1.930530978877    14.003074004780
           O         -3.448913834198     1.841055290740     2.138078160072    15.994914619560
           H         -1.244289977977     0.758758031988    -1.644138361715     1.007825032070
           H          0.510297897515    -0.361249249919     2.106815377139     1.007825032070
           H         -3.140149714461     1.761005389754    -0.450205401842     1.007825032070
           H         -1.387893160498     0.652433668832     3.285826179759     1.007825032070
           H         -0.206487972089    -1.047520494179    -2.326098865875     1.007825032070
           H          2.367366981175    -0.090367701420     0.975632196833     1.007825032070
           H          1.765439044365    -2.035097117904    -3.447810854865     1.007825032070
           H          4.219480020666    -1.126664853737    -0.297403097202     1.007825032070
           H         -3.902299062630     1.176156203214     2.667001907694     1.007825032070

  Running in c1 symmetry.

  Rotational constants: A =      0.09845  B =      0.01332  C =      0.01194 [cm^-1]
  Rotational constants: A =   2951.38877  B =    399.30608  C =    357.99001 [MHz]
  Nuclear repulsion =  697.357278924385469

  Charge       = 0
  Multiplicity = 1
  Electrons    = 90
  Nalpha       = 45
  Nbeta        = 45

  ==> Algorithm <==

  SCF Algorithm Type is DF.
  DIIS enabled.
  MOM disabled.
  Fractional occupation disabled.
  Guess Type is READ.
  Energy threshold   = 1.00e-10
  Density threshold  = 1.00e-10
  Integral threshold = 0.00e+00

  ==> Primary Basis <==

  Basis Set: AUG-CC-PVTZ
    Blend: AUG-CC-PVTZ
    Number of shells: 263
    Number of basis function: 805
    Number of Cartesian functions: 940
    Spherical Harmonics?: true
    Max angular momentum: 3

   => Loading Basis Set <=

    Name: (AUG-CC-PVTZ AUX)
    Role: JKFIT
    Keyword: DF_BASIS_SCF
    atoms 1-11  entry C          line   161 file /cbio/jclab/home/chayas/anaconda/envs/py35/share/psi4/basis/aug-cc-pvtz-jkfit.gbs 
    atoms 12    entry N          line   223 file /cbio/jclab/home/chayas/anaconda/envs/py35/share/psi4/basis/aug-cc-pvtz-jkfit.gbs 
    atoms 13    entry O          line   285 file /cbio/jclab/home/chayas/anaconda/envs/py35/share/psi4/basis/aug-cc-pvtz-jkfit.gbs 
    atoms 14-22 entry H          line    69 file /cbio/jclab/home/chayas/anaconda/envs/py35/share/psi4/basis/aug-cc-pvtz-jkfit.gbs 

  Reading orbitals from file 180, no projection.

  ==> Pre-Iterations <==

   -------------------------------------------------------
    Irrep   Nso     Nmo     Nalpha   Nbeta   Ndocc  Nsocc
   -------------------------------------------------------
     A        805     805       0       0       0       0
   -------------------------------------------------------
    Total     805     805      45      45      45       0
   -------------------------------------------------------

  ==> Integral Setup <==

  ==> DFJK: Density-Fitted J/K Matrices <==

    J tasked:                  Yes
    K tasked:                  Yes
    wK tasked:                  No
    OpenMP threads:              8
    Integrals threads:           8
    Memory (MB):              3576
    Algorithm:                Disk
    Integral Cache:           NONE
    Schwarz Cutoff:          1E-12
    Fitting Condition:       1E-12

   => Auxiliary Basis Set <=

  Basis Set: (AUG-CC-PVTZ AUX)
    Blend: AUG-CC-PVTZ-JKFIT
    Number of shells: 516
    Number of basis function: 1766
    Number of Cartesian functions: 2198
    Spherical Harmonics?: true
    Max angular momentum: 4

  Minimum eigenvalue in the overlap matrix is 6.1540767971E-07.
  Using Symmetric Orthogonalization.

  SCF Guess: Orbitals guess was supplied from a previous computation.

  ==> Iterations <==

                           Total Energy        Delta E     RMS |[F,P]|

   @DF-RHF iter   0:  -551.43008907599130   -5.51430e+02   6.01045e-04 
   @DF-RHF iter   1:  -551.28650727358638    1.43582e-01   1.93380e-04 
   @DF-RHF iter   2:  -551.28742995119012   -9.22678e-04   1.41205e-04 DIIS
   @DF-RHF iter   3:  -551.28832974081138   -8.99790e-04   1.34108e-05 DIIS
   @DF-RHF iter   4:  -551.28834390193958   -1.41611e-05   4.00582e-06 DIIS
   @DF-RHF iter   5:  -551.28834628655272   -2.38461e-06   1.59547e-06 DIIS
   @DF-RHF iter   6:  -551.28834662285146   -3.36299e-07   7.36137e-07 DIIS
   @DF-RHF iter   7:  -551.28834674342193   -1.20570e-07   2.86761e-07 DIIS
   @DF-RHF iter   8:  -551.28834677819714   -3.47752e-08   1.40525e-07 DIIS
   @DF-RHF iter   9:  -551.28834678459361   -6.39648e-09   4.90354e-08 DIIS
   @DF-RHF iter  10:  -551.28834678537044   -7.76822e-10   2.27649e-08 DIIS
   @DF-RHF iter  11:  -551.28834678547003   -9.95897e-11   6.42400e-09 DIIS
   @DF-RHF iter  12:  -551.28834678549379   -2.37605e-11   2.76370e-09 DIIS
   @DF-RHF iter  13:  -551.28834678548742    6.36646e-12   1.91422e-09 DIIS
   @DF-RHF iter  14:  -551.28834678546593    2.14868e-11   8.64466e-10 DIIS
   @DF-RHF iter  15:  -551.28834678549731   -3.13776e-11   2.56337e-10 DIIS
   @DF-RHF iter  16:  -551.28834678550481   -7.50333e-12   1.09755e-10 DIIS
   @DF-RHF iter  17:  -551.28834678548685    1.79625e-11   4.43130e-11 DIIS

  ==> Post-Iterations <==

    Orbital Energies (a.u.)
    -----------------------

    Doubly Occupied:                                                      

       1A    -20.591089     2A    -15.561499     3A    -11.307425  
       4A    -11.272914     5A    -11.272888     6A    -11.266696  
       7A    -11.252183     8A    -11.251237     9A    -11.250133  
      10A    -11.243621    11A    -11.241163    12A    -11.236915  
      13A    -11.236879    14A     -1.407893    15A     -1.255810  
      16A     -1.174887    17A     -1.105377    18A     -1.039460  
      19A     -1.029692    20A     -1.012125    21A     -0.880044  
      22A     -0.872881    23A     -0.839371    24A     -0.812467  
      25A     -0.748305    26A     -0.724577    27A     -0.683759  
      28A     -0.664555    29A     -0.651685    30A     -0.638013  
      31A     -0.633106    32A     -0.608226    33A     -0.598003  
      34A     -0.592435    35A     -0.555240    36A     -0.542374  
      37A     -0.531575    38A     -0.520355    39A     -0.502352  
      40A     -0.487677    41A     -0.418730    42A     -0.401575  
      43A     -0.354818    44A     -0.348917    45A     -0.315703  

    Virtual:                                                              

      46A      0.022921    47A      0.028956    48A      0.031897  
      49A      0.038936    50A      0.041996    51A      0.044834  
      52A      0.054546    53A      0.056189    54A      0.060579  
      55A      0.075389    56A      0.078794    57A      0.083202  
      58A      0.087619    59A      0.093089    60A      0.095274  
      61A      0.102094    62A      0.106622    63A      0.108188  
      64A      0.111544    65A      0.113127    66A      0.116311  
      67A      0.118966    68A      0.120520    69A      0.126509  
      70A      0.128867    71A      0.132656    72A      0.133431  
      73A      0.137087    74A      0.141842    75A      0.147480  
      76A      0.148166    77A      0.151544    78A      0.152920  
      79A      0.157381    80A      0.160121    81A      0.167973  
      82A      0.171218    83A      0.175667    84A      0.181874  
      85A      0.184147    86A      0.186528    87A      0.201414  
      88A      0.204507    89A      0.210377    90A      0.216329  
      91A      0.221515    92A      0.225413    93A      0.228314  
      94A      0.233981    95A      0.241042    96A      0.241966  
      97A      0.244452    98A      0.249578    99A      0.253431  
     100A      0.259208   101A      0.259595   102A      0.263022  
     103A      0.265855   104A      0.272750   105A      0.274353  
     106A      0.275397   107A      0.286442   108A      0.289511  
     109A      0.293785   110A      0.294621   111A      0.300790  
     112A      0.301870   113A      0.304166   114A      0.313982  
     115A      0.318151   116A      0.319358   117A      0.323878  
     118A      0.326707   119A      0.329710   120A      0.335494  
     121A      0.339434   122A      0.341682   123A      0.348055  
     124A      0.356406   125A      0.359549   126A      0.362507  
     127A      0.369596   128A      0.373056   129A      0.380237  
     130A      0.385104   131A      0.392660   132A      0.396362  
     133A      0.397905   134A      0.408590   135A      0.419068  
     136A      0.420356   137A      0.425542   138A      0.426173  
     139A      0.429577   140A      0.435563   141A      0.437278  
     142A      0.439427   143A      0.444077   144A      0.448062  
     145A      0.451346   146A      0.455555   147A      0.461458  
     148A      0.462966   149A      0.467361   150A      0.468845  
     151A      0.474699   152A      0.477528   153A      0.484847  
     154A      0.487961   155A      0.489903   156A      0.492025  
     157A      0.499660   158A      0.501100   159A      0.504274  
     160A      0.506556   161A      0.508934   162A      0.513906  
     163A      0.516553   164A      0.518928   165A      0.520688  
     166A      0.525662   167A      0.528125   168A      0.529367  
     169A      0.533790   170A      0.538796   171A      0.541936  
     172A      0.547707   173A      0.550629   174A      0.556187  
     175A      0.557723   176A      0.561267   177A      0.570818  
     178A      0.576830   179A      0.579292   180A      0.587944  
     181A      0.592379   182A      0.596579   183A      0.606436  
     184A      0.612233   185A      0.614830   186A      0.624642  
     187A      0.625283   188A      0.630171   189A      0.633710  
     190A      0.637546   191A      0.650344   192A      0.657870  
     193A      0.663287   194A      0.675684   195A      0.680780  
     196A      0.687501   197A      0.691370   198A      0.699099  
     199A      0.706042   200A      0.707234   201A      0.709718  
     202A      0.719485   203A      0.720599   204A      0.726141  
     205A      0.731200   206A      0.735577   207A      0.739969  
     208A      0.747474   209A      0.757122   210A      0.763531  
     211A      0.765338   212A      0.769971   213A      0.773375  
     214A      0.777293   215A      0.789420   216A      0.798347  
     217A      0.802538   218A      0.809513   219A      0.818383  
     220A      0.821894   221A      0.828238   222A      0.840397  
     223A      0.841963   224A      0.845824   225A      0.853777  
     226A      0.857758   227A      0.861208   228A      0.869107  
     229A      0.872675   230A      0.879938   231A      0.880408  
     232A      0.881952   233A      0.887188   234A      0.894857  
     235A      0.898182   236A      0.903392   237A      0.906300  
     238A      0.909487   239A      0.920182   240A      0.921352  
     241A      0.929584   242A      0.933010   243A      0.939727  
     244A      0.946170   245A      0.950659   246A      0.953134  
     247A      0.960411   248A      0.962733   249A      0.964474  
     250A      0.973914   251A      0.974755   252A      0.978758  
     253A      0.979886   254A      0.986878   255A      0.992349  
     256A      0.998933   257A      1.000101   258A      1.006952  
     259A      1.011130   260A      1.013211   261A      1.015404  
     262A      1.024136   263A      1.025012   264A      1.029941  
     265A      1.034472   266A      1.036473   267A      1.039376  
     268A      1.043977   269A      1.050053   270A      1.054483  
     271A      1.057971   272A      1.062244   273A      1.071341  
     274A      1.084204   275A      1.085690   276A      1.087409  
     277A      1.090966   278A      1.095132   279A      1.097112  
     280A      1.097493   281A      1.103321   282A      1.106135  
     283A      1.113842   284A      1.118035   285A      1.120607  
     286A      1.124715   287A      1.128442   288A      1.138916  
     289A      1.150368   290A      1.152324   291A      1.158281  
     292A      1.161903   293A      1.165525   294A      1.174431  
     295A      1.175752   296A      1.179326   297A      1.182780  
     298A      1.186514   299A      1.191313   300A      1.192201  
     301A      1.198906   302A      1.209880   303A      1.214907  
     304A      1.217102   305A      1.217993   306A      1.220543  
     307A      1.225912   308A      1.232646   309A      1.237633  
     310A      1.251189   311A      1.267116   312A      1.272442  
     313A      1.275335   314A      1.278551   315A      1.279101  
     316A      1.288220   317A      1.293659   318A      1.299655  
     319A      1.302940   320A      1.313335   321A      1.314898  
     322A      1.320353   323A      1.328484   324A      1.332677  
     325A      1.337668   326A      1.346048   327A      1.351506  
     328A      1.363485   329A      1.370862   330A      1.382181  
     331A      1.385964   332A      1.394292   333A      1.409743  
     334A      1.413542   335A      1.419101   336A      1.426496  
     337A      1.441365   338A      1.448909   339A      1.456849  
     340A      1.461427   341A      1.463539   342A      1.475544  
     343A      1.486387   344A      1.493765   345A      1.503335  
[...]
	 B(1,3,16)        =         2.114776	     121.167752
	 B(1,9,2)         =         2.065711	     118.356528
	 B(1,9,10)        =         2.109266	     120.852067
	 B(2,4,11)        =         2.092742	     119.905306
	 B(2,4,17)        =         2.105867	     120.657290
	 B(2,9,10)        =         2.108207	     120.791382
	 B(3,1,9)         =         2.111557	     120.983312
	 B(3,1,14)        =         2.084672	     119.442908
	 B(3,11,4)        =         2.092656	     119.900358
	 B(3,11,13)       =         2.071550	     118.691057
	 B(4,2,9)         =         2.110865	     120.943632
	 B(4,2,15)        =         2.084648	     119.441534
	 B(4,11,13)       =         2.118547	     121.383797
	 B(5,7,12)        =         2.159252	     123.716031
	 B(5,7,20)        =         2.095116	     120.041294
	 B(5,10,6)        =         2.036151	     116.662885
	 B(5,10,9)        =         2.123334	     121.658070
	 B(6,8,12)        =         2.159278	     123.717512
	 B(6,8,21)        =         2.095137	     120.042527
	 B(6,10,9)        =         2.123700	     121.679044
	 B(7,5,10)        =         2.088321	     119.651988
	 B(7,5,18)        =         2.091567	     119.837948
	 B(7,12,8)        =         2.035091	     116.602106
	 B(8,6,10)        =         2.088277	     119.649447
	 B(8,6,19)        =         2.091362	     119.826229
	 B(9,1,14)        =         2.086775	     119.563423
	 B(9,2,15)        =         2.087489	     119.604334
	 B(10,5,18)       =         2.102987	     120.492300
	 B(10,6,19)       =         2.103215	     120.505319
	 B(11,3,16)       =         2.075556	     118.920592
	 B(11,4,17)       =         2.084576	     119.437404
	 B(11,13,22)      =         1.900544	     108.893149
	 B(12,7,20)       =         2.028800	     116.241660
	 B(12,8,21)       =         2.028752	     116.238934
	 D(1,3,11,4)      =        -0.004084	      -0.234020
	 D(1,3,11,13)     =         3.106343	     177.980325
	 D(1,9,2,4)       =        -0.004072	      -0.233331
	 D(1,9,2,15)      =         3.116832	     178.581303
	 D(1,9,10,5)      =        -0.629885	     -36.089770
	 D(1,9,10,6)      =         2.511625	     143.905510
	 D(2,4,11,3)      =        -0.006432	      -0.368511
	 D(2,4,11,13)     =        -3.116000	    -178.533636
	 D(2,9,1,3)       =        -0.006590	      -0.377557
	 D(2,9,1,14)      =         3.114455	     178.445121
	 D(2,9,10,5)      =         2.512685	     143.966231
	 D(2,9,10,6)      =        -0.628990	     -36.038489
	 D(3,1,9,10)      =         3.135957	     179.677110
	 D(3,11,4,17)     =         3.135268	     179.637611
	 D(3,11,13,22)    =         2.097056	     120.152487
	 D(4,2,9,10)      =         3.136567	     179.712037
	 D(4,11,3,16)     =        -3.131609	    -179.427962
	 D(4,11,13,22)    =        -1.076184	     -61.660778
	 D(5,7,12,8)      =        -0.000837	      -0.047945
	 D(5,10,6,8)      =        -0.000800	      -0.045843
	 D(5,10,6,19)     =         3.113069	     178.365721
	 D(6,8,12,7)      =         0.000078	       0.004487
	 D(6,10,5,7)      =         0.000104	       0.005963
	 D(6,10,5,18)     =         3.114897	     178.470430
	 D(7,5,10,9)      =        -3.141567	    -179.998532
	 D(7,12,8,21)     =        -3.135063	    -179.625868
	 D(8,6,10,9)      =         3.140871	     179.958652
	 D(8,12,7,20)     =        -3.136020	    -179.680688
	 D(9,1,3,11)      =         0.010697	       0.612880
	 D(9,1,3,16)      =         3.137898	     179.788323
	 D(9,2,4,11)      =         0.010579	       0.606142
	 D(9,2,4,17)      =        -3.131122	    -179.400056
	 D(9,10,5,18)     =        -0.026774	      -1.534065
	 D(9,10,6,19)     =        -0.028445	      -1.629784
	 D(10,5,7,12)     =         0.000754	       0.043228
	 D(10,5,7,20)     =         3.135706	     179.662704
	 D(10,6,8,12)     =         0.000748	       0.042876
	 D(10,6,8,21)     =         3.135656	     179.659864
	 D(10,9,1,14)     =        -0.026184	      -1.500212
	 D(10,9,2,15)     =        -0.025714	      -1.473329
	 D(11,3,1,14)     =        -3.110372	    -178.211199
	 D(11,4,2,15)     =        -3.110358	    -178.210398
	 D(12,7,5,18)     =        -3.114215	    -178.431400
	 D(12,8,6,19)     =        -3.113311	    -178.379596
	 D(13,11,3,16)    =        -0.021182	      -1.213617
	 D(13,11,4,17)    =         0.025700	       1.472486
	 D(14,1,3,16)     =         0.016829	       0.964244
	 D(15,2,4,17)     =         0.031126	       1.783404
	 D(18,5,7,20)     =         0.020736	       1.188076
	 D(19,6,8,21)     =         0.021597	       1.237392

	Current energy   :      -553.7214253418

	Energy change for the previous step:
		Projected    :        -0.0000008919
		Actual       :         0.0000008573

	Performing BFGS update.
	Previous computed or guess Hessian on step 1.
	Steps to be used in Hessian update: 7 6
	Adding user-defined constraint: Fragment 1; Coordinate 73:
		Value =     2.097056; Fixed value    =     2.094400
		Force =    -0.001793; Force constant =     0.675000
	Removing off-diagonal coupling between coordinate 73 and others.
	Taking RFO optimization step.
	Going to follow RFO solution 1.
	Rejecting RFO root 1 because normalization gives large value.
	Using RFO vector 2.
	Norm of target step-size    0.00806
	Projected energy change by RFO approximation:        -0.0000007273

	Back-transformation to cartesian coordinates...
	Could not converge backtransformation.
	Using first guess instead.

	--- Internal Coordinate Step in ANG or DEG, aJ/ANG or AJ/DEG ---
	 ---------------------------------------------------------------------------
	   Coordinate                Previous        Force       Change         New 
	   ----------                --------       ------       ------       ------
	    1 R(1,3)          =      1.385265     0.000219     0.000077     1.385342
	    2 R(1,9)          =      1.394202     0.000043     0.000046     1.394248
	    3 R(1,14)         =      1.079853     0.000049     0.000025     1.079877
	    4 R(2,4)          =      1.385383     0.000153     0.000070     1.385453
	    5 R(2,9)          =      1.394106     0.000145     0.000063     1.394169
	    6 R(2,15)         =      1.079898     0.000028     0.000018     1.079916
	    7 R(3,11)         =      1.386364     0.000014     0.000019     1.386383
	    8 R(3,16)         =      1.078826     0.000073     0.000046     1.078872
	    9 R(4,11)         =      1.387938     0.000040     0.000028     1.387966
	   10 R(4,17)         =      1.079735     0.000054     0.000033     1.079768
	   11 R(5,7)          =      1.385552    -0.000039    -0.000013     1.385539
	   12 R(5,10)         =      1.391944     0.000056     0.000032     1.391976
	   13 R(5,18)         =      1.079574    -0.000000    -0.000004     1.079570
	   14 R(6,8)          =      1.385595    -0.000045    -0.000012     1.385583
	   15 R(6,10)         =      1.391920     0.000098     0.000032     1.391953
	   16 R(6,19)         =      1.079582    -0.000018    -0.000013     1.079569
	   17 R(7,12)         =      1.335054     0.000146     0.000082     1.335136
	   18 R(7,20)         =      1.081121     0.000045     0.000031     1.081151
	   19 R(8,12)         =      1.335040     0.000144     0.000082     1.335122
	   20 R(8,21)         =      1.081106     0.000044     0.000026     1.081132
	   21 R(9,10)         =      1.461818     0.000935     0.000313     1.462131
	   22 R(11,13)        =      1.376570    -0.000005    -0.000059     1.376512
	   23 R(13,22)        =      0.961027     0.000005     0.000019     0.961046
	   24 B(1,3,11)       =    119.906629     0.000000    -0.000305   119.906324
	   25 B(1,3,16)       =    121.167752    -0.000001    -0.009032   121.158720
	   26 B(1,9,2)        =    118.356528     0.000001     0.006303   118.362831
	   27 B(1,9,10)       =    120.852067    -0.000000    -0.005075   120.846992
	   28 B(2,4,11)       =    119.905306     0.000000    -0.000600   119.904706
	   29 B(2,4,17)       =    120.657290     0.000000    -0.002348   120.654942
	   30 B(2,9,10)       =    120.791382    -0.000000    -0.001210   120.790172
	   31 B(3,1,9)        =    120.983312    -0.000001    -0.004693   120.978618
	   32 B(3,1,14)       =    119.442908     0.000000     0.004008   119.446916
	   33 B(3,11,4)       =    119.900358     0.000000     0.004332   119.904690
	   34 B(3,11,13)      =    118.691057     0.000001     0.006910   118.697967
	   35 B(4,2,9)        =    120.943632    -0.000001    -0.004704   120.938928
	   36 B(4,2,15)       =    119.441534     0.000000     0.002621   119.444155
	   37 B(4,11,13)      =    121.383797    -0.000001    -0.010165   121.373632
	   38 B(5,7,12)       =    123.716031    -0.000001    -0.005344   123.710688
	   39 B(5,7,20)       =    120.041294     0.000002     0.015756   120.057050
	   40 B(5,10,6)       =    116.662885     0.000003     0.020366   116.683251
	   41 B(5,10,9)       =    121.658070    -0.000001    -0.011474   121.646596
	   42 B(6,8,12)       =    123.717512    -0.000001    -0.005390   123.712122
	   43 B(6,8,21)       =    120.042527     0.000002     0.016271   120.058798
	   44 B(6,10,9)       =    121.679044    -0.000002    -0.008892   121.670152
	   45 B(7,5,10)       =    119.651988    -0.000001    -0.010818   119.641170
	   46 B(7,5,18)       =    119.837948     0.000001     0.011250   119.849198
	   47 B(7,12,8)       =    116.602106     0.000002     0.011922   116.614028
	   48 B(8,6,10)       =    119.649447    -0.000001    -0.010836   119.638611
	   49 B(8,6,19)       =    119.826229     0.000001     0.011073   119.837302
	   50 B(9,1,14)       =    119.563423     0.000000     0.000389   119.563811
	   51 B(9,2,15)       =    119.604334     0.000000     0.002026   119.606360
	   52 B(10,5,18)      =    120.492300    -0.000000    -0.000769   120.491531
	   53 B(10,6,19)      =    120.505319    -0.000000    -0.000620   120.504700
	   54 B(11,3,16)      =    118.920592     0.000001     0.008979   118.929571
	   55 B(11,4,17)      =    119.437404    -0.000000     0.002947   119.440351
	   56 B(11,13,22)     =    108.893149     0.000001     0.010128   108.903277
	   57 B(12,7,20)      =    116.241660    -0.000001    -0.011871   116.229789
	   58 B(12,8,21)      =    116.238934    -0.000001    -0.012441   116.226493
	   59 D(1,3,11,4)     =     -0.234020     0.000000    -0.005855    -0.239876
	   60 D(1,3,11,13)    =    177.980325     0.000000     0.033167   178.013492
	   61 D(1,9,2,4)      =     -0.233331     0.000000    -0.005108    -0.238439
	   62 D(1,9,2,15)     =    178.581303    -0.000000    -0.008291   178.573012
	   63 D(1,9,10,5)     =    -36.089770    -0.000000    -0.021585   -36.111355
	   64 D(1,9,10,6)     =    143.905510    -0.000000    -0.005124   143.900385
	   65 D(2,4,11,3)     =     -0.368511     0.000000     0.028059    -0.340451
	   66 D(2,4,11,13)    =   -178.533636     0.000000    -0.012352  -178.545989
	   67 D(2,9,1,3)      =     -0.377557     0.000000     0.027671    -0.349886
	   68 D(2,9,1,14)     =    178.445121     0.000000     0.010984   178.456106
	   69 D(2,9,10,5)     =    143.966231    -0.000000    -0.050248   143.915983
	   70 D(2,9,10,6)     =    -36.038489    -0.000000    -0.033788   -36.072277
	   71 D(3,1,9,10)     =    179.677110     0.000000    -0.000307   179.676803
	   72 D(3,11,4,17)    =    179.637611     0.000000     0.035332   179.672944
	   73 D(3,11,13,22)   =    120.152487     0.000000     0.001897   120.154384
	   74 D(4,2,9,10)     =    179.712037     0.000000     0.022852   179.734889
	   75 D(4,11,3,16)    =   -179.427962     0.000000     0.022340  -179.405622
	   76 D(4,11,13,22)   =    -61.660778     0.000000     0.041792   -61.618986
	   77 D(5,7,12,8)     =     -0.047945    -0.000000    -0.024124    -0.072069
	   78 D(5,10,6,8)     =     -0.045843    -0.000000    -0.024154    -0.069998
	   79 D(5,10,6,19)    =    178.365721    -0.000000    -0.039850   178.325871
	   80 D(6,8,12,7)     =      0.004487    -0.000000    -0.041210    -0.036723
	   81 D(6,10,5,7)     =      0.005963    -0.000000    -0.035798    -0.029836
	   82 D(6,10,5,18)    =    178.470430    -0.000000    -0.050107   178.420323
	   83 D(7,5,10,9)     =   -179.998532    -0.000000    -0.020121  -180.018652
	   84 D(7,12,8,21)    =   -179.625868     0.000001     0.175581  -179.450288
	   85 D(8,6,10,9)     =    179.958652    -0.000000    -0.039836   179.918816
	   86 D(8,12,7,20)    =   -179.680688     0.000001     0.181997  -179.498691
	   87 D(9,1,3,11)     =      0.612880    -0.000000    -0.022407     0.590473
	   88 D(9,1,3,16)     =    179.788323    -0.000000    -0.051094   179.737229
	   89 D(9,2,4,11)     =      0.606142    -0.000000    -0.022587     0.583554
	   90 D(9,2,4,17)     =   -179.400056    -0.000000    -0.029950  -179.430006
	   91 D(9,10,5,18)    =     -1.534065    -0.000000    -0.034429    -1.568494
	   92 D(9,10,6,19)    =     -1.629784    -0.000000    -0.055532    -1.685315
	   93 D(10,5,7,12)    =      0.043228     0.000000     0.063275     0.106504
	   94 D(10,5,7,20)    =    179.662704    -0.000000    -0.150448   179.512256
	   95 D(10,6,8,12)    =      0.042876     0.000000     0.066139     0.109014
	   96 D(10,6,8,21)    =    179.659864    -0.000001    -0.158658   179.501206
	   97 D(10,9,1,14)    =     -1.500212    -0.000000    -0.016994    -1.517206
	   98 D(10,9,2,15)    =     -1.473329     0.000000     0.019669    -1.453661
	   99 D(11,3,1,14)    =   -178.211199    -0.000000    -0.005697  -178.216896
	  100 D(11,4,2,15)    =   -178.210398    -0.000000    -0.019403  -178.229801
	  101 D(12,7,5,18)    =   -178.431400     0.000000     0.077675  -178.353725
	  102 D(12,8,6,19)    =   -178.379596     0.000000     0.081913  -178.297683
	  103 D(13,11,3,16)   =     -1.213617     0.000000     0.061362    -1.152255
	  104 D(13,11,4,17)   =      1.472486     0.000000    -0.005079     1.467406
	  105 D(14,1,3,16)    =      0.964244    -0.000000    -0.034384     0.929860
	  106 D(15,2,4,17)    =      1.783404    -0.000000    -0.026765     1.756639
	  107 D(18,5,7,20)    =      1.188076    -0.000000    -0.136049     1.052027
	  108 D(19,6,8,21)    =      1.237392    -0.000000    -0.142883     1.094509
	 ---------------------------------------------------------------------------
	Successfully symmetrized geometry.
	 Forces used to impose fixed constraints are not included.
	  Forces zeroed: 73 

  ==> Convergence Check <==

  Measures of convergence in internal coordinates in au.
  Criteria marked as inactive (o), active & met (*), and active & unmet ( ).
  ---------------------------------------------------------------------------------------------
   Step     Total Energy     Delta E     MAX Force     RMS Force      MAX Disp      RMS Disp   
  ---------------------------------------------------------------------------------------------
    Convergence Criteria    1.00e-06 *    3.00e-04 *             o    1.20e-03 *             o
  ---------------------------------------------------------------------------------------------
      8    -553.72142534    8.57e-07 *    1.13e-04 *    1.65e-05 o    3.18e-03      7.75e-04 o  ~
  ---------------------------------------------------------------------------------------------


  **** Optimization is complete! (in 8 steps) ****

  ==> Optimization Summary <==

  Measures of convergence in internal coordinates in au.
  --------------------------------------------------------------------------------------------------------------- ~
   Step         Total Energy             Delta E       MAX Force       RMS Force        MAX Disp        RMS Disp  ~
  --------------------------------------------------------------------------------------------------------------- ~
      1    -553.717771877689   -553.717771877689      0.01889259      0.00466137      0.03608227      0.00961438  ~
      2    -553.720739454315     -0.002967576626      0.00478393      0.00139123      0.02276203      0.00960366  ~
      3    -553.721313883275     -0.000574428960      0.00117062      0.00029529      0.04393709      0.00962436  ~
      4    -553.721411131962     -0.000097248687      0.00048356      0.00017860      0.02205943      0.00444274  ~
      5    -553.721426937324     -0.000015805362      0.00038114      0.00007465      0.00818849      0.00183793  ~
      6    -553.721428950390     -0.000002013066      0.00023842      0.00003992      0.00233471      0.00059495  ~
      7    -553.721426199152      0.000002751238      0.00004646      0.00001722      0.00201737      0.00050426  ~
      8    -553.721425341850      0.000000857302      0.00011346      0.00001653      0.00317645      0.00077546  ~
  --------------------------------------------------------------------------------------------------------------- ~

	Writing optimization data to binary file.
	Final energy is   -553.7214253418499
	Final (previous) structure:
	Cartesian Geometry (in Angstrom)
	    C    -1.2400830057   0.7725862648  -0.5546672281
	    C    -0.3117249590   0.0501634827   1.5309745214
	    C    -2.3160173999   1.3332313199   0.1139142547
	    C    -1.3787349144   0.6196988311   2.2065527992
	    C     0.7507398194  -1.0877560651  -1.8088259828
	    C     2.1928278620  -0.4634617651  -0.0355705531
	    C     1.8511706622  -1.6402303056  -2.4441039597
	    C     3.2337529011  -1.0423943627  -0.7435145316
	    C    -0.2238758798   0.1193902533   0.1413622501
	    C     0.9066877199  -0.4773166426  -0.5676363434
	    C    -2.3852546614   1.2594063226   1.4965784953
	    N     3.0848384585  -1.6281321938  -1.9339211367
	    O    -3.4438299235   1.8614729256   2.1383576353
	    H    -1.1790174738   0.8597163496  -1.6292655500
	    H     0.4523406462  -0.4709163620   2.0885217527
	    H    -3.1022699325   1.8422708732  -0.4213913474
	    H    -1.4372298929   0.5717086909   3.2836336362
	    H    -0.2242369954  -1.1552730454  -2.2674556133
	    H     2.3890810356   0.0168032748   0.9111747786
	    H     1.7362608646  -2.1206941125  -3.4057546661
	    H     4.2361642780  -1.0303916769  -0.3387703229
	    H    -3.9301189839   1.1940139690   2.6298799040
	Saving final (previous) structure.
			--------------------------
			 OPTKING Finished Execution 
			--------------------------

    Final optimized geometry and variables:
    Molecular point group: c1
    Full point group: C1

    Geometry (in Angstrom), charge = 0, multiplicity = 1:

    C           -1.240083005721     0.772586264801    -0.554667228147
    C           -0.311724959049     0.050163482678     1.530974521404
    C           -2.316017399853     1.333231319875     0.113914254718
    C           -1.378734914390     0.619698831123     2.206552799162
    C            0.750739819385    -1.087756065111    -1.808825982815
    C            2.192827862034    -0.463461765059    -0.035570553083
    C            1.851170662227    -1.640230305594    -2.444103959671
    C            3.233752901144    -1.042394362674    -0.743514531585
    C           -0.223875879789     0.119390253318     0.141362250110
    C            0.906687719855    -0.477316642614    -0.567636343392
    C           -2.385254661443     1.259406322597     1.496578495287
    N            3.084838458537    -1.628132193834    -1.933921136716
    O           -3.443829923489     1.861472925586     2.138357635333
    H           -1.179017473753     0.859716349594    -1.629265549975
    H            0.452340646248    -0.470916361967     2.088521752695
    H           -3.102269932462     1.842270873193    -0.421391347368
    H           -1.437229892887     0.571708690932     3.283633636205
    H           -0.224236995370    -1.155273045370    -2.267455613262
    H            2.389081035607     0.016803274779     0.911174778649
    H            1.736260864561    -2.120694112510    -3.405754666052
    H            4.236164277973    -1.030391676927    -0.338770322852
    H           -3.930118983940     1.194013969013     2.629879904041

	Cleaning optimization helper files.

*** Psi4 exiting successfully. Buy a developer a beer!
