
    -----------------------------------------------------------------------
          Psi4: An Open-Source Ab Initio Electronic Structure Package
                               Psi4 1.1 release

                         Git: Rev {HEAD} add49b9 


    R. M. Parrish, L. A. Burns, D. G. A. Smith, A. C. Simmonett,
    A. E. DePrince III, E. G. Hohenstein, U. Bozkaya, A. Yu. Sokolov,
    R. Di Remigio, R. M. Richard, J. F. Gonthier, A. M. James,
    H. R. McAlexander, A. Kumar, M. Saitow, X. Wang, B. P. Pritchard,
    P. Verma, H. F. Schaefer III, K. Patkowski, R. A. King, E. F. Valeev,
    F. A. Evangelista, J. M. Turney, T. D. Crawford, and C. D. Sherrill,
    J. Chem. Theory Comput. in press (2017).
    (doi: 10.1021/acs.jctc.7b00174)

    -----------------------------------------------------------------------


    Psi4 started on: Saturday, 11 November 2017 09:40AM

    Process ID:   9915
    PSIDATADIR: /cbio/jclab/home/chayas/anaconda/envs/py35/share/psi4
    Memory:     500.0 MiB
    Threads:    8
    
  ==> Input File <==

--------------------------------------------------------------------------

molecule phepyr {
  symmetry C1
  0 1 
  C      1.885   -1.036   -0.112
  C      0.807   -0.463   0.561
  C      2.921   -1.631   0.608
  C      0.764   -0.484   1.955
  C      2.878   -1.652   2.002
  C      1.153   -2.164   4.786
  C      2.315   -0.059   4.853
  C      1.137   -2.138   6.171
  C      2.247   -0.128   6.235
  C      1.800   -1.079   2.676
  C      1.755   -1.101   4.122
  N      1.671   -1.144   6.915
  H      1.917   -1.021   -1.198
  H      -0.001   -0.002   0.000
  H      3.760   -2.079   0.084
  H      -0.084   -0.033   2.466
  H      3.693   -2.120   2.550
  H      0.706   -2.995   4.250
  H      2.793   0.787   4.369
  H      0.681   -2.944   6.736
  H      2.668   0.660   6.851
  units Angstrom
}

dih_string = "4 10 11 6 90"
set optking fixed_dihedral = $dih_string

optimize('MP2/aug-cc-PVTZ')
--------------------------------------------------------------------------
gradient() will perform analytic gradient computation.

*** tstart() called on gpu-1-7.local
*** at Sat Nov 11 09:40:32 2017

    SCF Algorithm Type (re)set to DF.

*** tstart() called on gpu-1-7.local
*** at Sat Nov 11 09:40:32 2017

   => Loading Basis Set <=

    Name: AUG-CC-PVTZ
    Role: ORBITAL
    Keyword: BASIS
    atoms 1-11  entry C          line   221 file /cbio/jclab/home/chayas/anaconda/envs/py35/share/psi4/basis/aug-cc-pvtz.gbs 
    atoms 12    entry N          line   267 file /cbio/jclab/home/chayas/anaconda/envs/py35/share/psi4/basis/aug-cc-pvtz.gbs 
    atoms 13-21 entry H          line    34 file /cbio/jclab/home/chayas/anaconda/envs/py35/share/psi4/basis/aug-cc-pvtz.gbs 


         ---------------------------------------------------------
                                   SCF
            by Justin Turney, Rob Parrish, and Andy Simmonett
                              RHF Reference
                        8 Threads,    500 MiB Core
         ---------------------------------------------------------

  ==> Geometry <==

    Molecular point group: c1
    Full point group: C1

    Geometry (in Angstrom), charge = 0, multiplicity = 1:

       Center              X                  Y                   Z               Mass       
    ------------   -----------------  -----------------  -----------------  -----------------
           C          0.107762888823     0.054210693764    -3.526042728723    12.000000000000
           C         -0.970237111177     0.627210693764    -2.853042728723    12.000000000000
           C          1.143762888823    -0.540789306236    -2.806042728723    12.000000000000
           C         -1.013237111177     0.606210693764    -1.459042728723    12.000000000000
           C          1.100762888823    -0.561789306236    -1.412042728723    12.000000000000
           C         -0.624237111177    -1.073789306236     1.371957271277    12.000000000000
           C          0.537762888823     1.031210693764     1.438957271277    12.000000000000
           C         -0.640237111177    -1.047789306236     2.756957271277    12.000000000000
           C          0.469762888823     0.962210693764     2.820957271277    12.000000000000
           C          0.022762888823     0.011210693764    -0.738042728723    12.000000000000
           C         -0.022237111177    -0.010789306236     0.707957271277    12.000000000000
           N         -0.106237111177    -0.053789306236     3.500957271277    14.003074004780
           H          0.139762888823     0.069210693764    -4.612042728723     1.007825032070
           H         -1.778237111177     1.088210693764    -3.414042728723     1.007825032070
           H          1.982762888823    -0.988789306236    -3.330042728723     1.007825032070
           H         -1.861237111177     1.057210693764    -0.948042728723     1.007825032070
           H          1.915762888823    -1.029789306236    -0.864042728723     1.007825032070
           H         -1.071237111177    -1.904789306236     0.835957271277     1.007825032070
           H          1.015762888823     1.877210693764     0.954957271277     1.007825032070
           H         -1.096237111177    -1.853789306236     3.321957271277     1.007825032070
           H          0.890762888823     1.750210693764     3.436957271277     1.007825032070

  Running in c1 symmetry.

  Rotational constants: A =      0.09742  B =      0.01747  C =      0.01739 [cm^-1]
  Rotational constants: A =   2920.57434  B =    523.66950  C =    521.29591 [MHz]
  Nuclear repulsion =  605.501230476433420

  Charge       = 0
  Multiplicity = 1
  Electrons    = 82
  Nalpha       = 41
  Nbeta        = 41

  ==> Algorithm <==

  SCF Algorithm Type is DF.
  DIIS enabled.
  MOM disabled.
  Fractional occupation disabled.
  Guess Type is SAD.
  Energy threshold   = 1.00e-10
  Density threshold  = 1.00e-10
  Integral threshold = 0.00e+00

  ==> Primary Basis <==

  Basis Set: AUG-CC-PVTZ
    Blend: AUG-CC-PVTZ
    Number of shells: 249
    Number of basis function: 759
    Number of Cartesian functions: 885
    Spherical Harmonics?: true
    Max angular momentum: 3

   => Loading Basis Set <=

    Name: (AUG-CC-PVTZ AUX)
    Role: JKFIT
    Keyword: DF_BASIS_SCF
    atoms 1-11  entry C          line   161 file /cbio/jclab/home/chayas/anaconda/envs/py35/share/psi4/basis/aug-cc-pvtz-jkfit.gbs 
    atoms 12    entry N          line   223 file /cbio/jclab/home/chayas/anaconda/envs/py35/share/psi4/basis/aug-cc-pvtz-jkfit.gbs 
    atoms 13-21 entry H          line    69 file /cbio/jclab/home/chayas/anaconda/envs/py35/share/psi4/basis/aug-cc-pvtz-jkfit.gbs 

  ==> Pre-Iterations <==

   -------------------------------------------------------
    Irrep   Nso     Nmo     Nalpha   Nbeta   Ndocc  Nsocc
   -------------------------------------------------------
     A        759     759       0       0       0       0
   -------------------------------------------------------
    Total     759     759      41      41      41       0
   -------------------------------------------------------

  ==> Integral Setup <==

  ==> DFJK: Density-Fitted J/K Matrices <==

    J tasked:                  Yes
    K tasked:                  Yes
    wK tasked:                  No
    OpenMP threads:              8
    Integrals threads:           8
    Memory (MB):               375
    Algorithm:                Disk
    Integral Cache:           NONE
    Schwarz Cutoff:          1E-12
    Fitting Condition:       1E-12

   => Auxiliary Basis Set <=

  Basis Set: (AUG-CC-PVTZ AUX)
    Blend: AUG-CC-PVTZ-JKFIT
    Number of shells: 486
    Number of basis function: 1662
    Number of Cartesian functions: 2067
    Spherical Harmonics?: true
    Max angular momentum: 4

  Minimum eigenvalue in the overlap matrix is 4.2051114184E-07.
  Using Symmetric Orthogonalization.

  SCF Guess: Superposition of Atomic Densities via on-the-fly atomic UHF.

  ==> Iterations <==

                           Total Energy        Delta E     RMS |[F,P]|

   @DF-RHF iter   0:  -482.78041145764962   -4.82780e+02   1.63248e-02 
   @DF-RHF iter   1:  -476.07193869404023    6.70847e+00   1.97597e-03 
   @DF-RHF iter   2:  -476.33737106263266   -2.65432e-01   8.26959e-04 DIIS
   @DF-RHF iter   3:  -476.37827686502106   -4.09058e-02   4.29072e-04 DIIS
   @DF-RHF iter   4:  -476.39279925899524   -1.45224e-02   1.37830e-04 DIIS
   @DF-RHF iter   5:  -476.39444713743831   -1.64788e-03   5.65526e-05 DIIS
   @DF-RHF iter   6:  -476.39473543202018   -2.88295e-04   1.62031e-05 DIIS
   @DF-RHF iter   7:  -476.39476497183909   -2.95398e-05   5.03975e-06 DIIS
   @DF-RHF iter   8:  -476.39476753106953   -2.55923e-06   2.13381e-06 DIIS
   @DF-RHF iter   9:  -476.39476815753937   -6.26470e-07   9.04392e-07 DIIS
   @DF-RHF iter  10:  -476.39476837652052   -2.18981e-07   3.82071e-07 DIIS
   @DF-RHF iter  11:  -476.39476842705733   -5.05368e-08   1.57862e-07 DIIS
   @DF-RHF iter  12:  -476.39476843158906   -4.53173e-09   4.68678e-08 DIIS
   @DF-RHF iter  13:  -476.39476843186679   -2.77737e-10   1.74926e-08 DIIS
   @DF-RHF iter  14:  -476.39476843194848   -8.16840e-11   7.91356e-09 DIIS
   @DF-RHF iter  15:  -476.39476843196223   -1.37561e-11   3.62059e-09 DIIS
   @DF-RHF iter  16:  -476.39476843193802    2.42153e-11   1.70545e-09 DIIS
   @DF-RHF iter  17:  -476.39476843192494    1.30740e-11   6.40178e-10 DIIS
   @DF-RHF iter  18:  -476.39476843195609   -3.11502e-11   2.86370e-10 DIIS
   @DF-RHF iter  19:  -476.39476843194655    9.54969e-12   1.23474e-10 DIIS
   @DF-RHF iter  20:  -476.39476843193717    9.37916e-12   4.76141e-11 DIIS

  ==> Post-Iterations <==

    Orbital Energies (a.u.)
    -----------------------

    Doubly Occupied:                                                      

       1A    -15.565891     2A    -11.275500     3A    -11.275469  
       4A    -11.263394     5A    -11.250501     6A    -11.245238  
       7A    -11.245100     8A    -11.243761     9A    -11.243700  
      10A    -11.241919    11A    -11.239215    12A    -11.239136  
      13A     -1.251320    14A     -1.172679    15A     -1.106747  
      16A     -1.035484    17A     -1.023936    18A     -1.015848  
      19A     -0.880953    20A     -0.856350    21A     -0.836371  
      22A     -0.805298    23A     -0.728933    24A     -0.685164  
      25A     -0.667423    26A     -0.654690    27A     -0.638406  
      28A     -0.631819    29A     -0.599745    30A     -0.595423  
      31A     -0.578744    32A     -0.537367    33A     -0.527923  
      34A     -0.505161    35A     -0.504578    36A     -0.502912  
      37A     -0.419415    38A     -0.375856    39A     -0.353985  
      40A     -0.342832    41A     -0.342116  

    Virtual:                                                              

      42A      0.024952    43A      0.032463    44A      0.032785  
      45A      0.035075    46A      0.043205    47A      0.049071  
      48A      0.050038    49A      0.051892    50A      0.060116  
      51A      0.085715    52A      0.086878    53A      0.092190  
      54A      0.092301    55A      0.098237    56A      0.099224  
      57A      0.099567    58A      0.102305    59A      0.108591  
      60A      0.111627    61A      0.114703    62A      0.115435  
      63A      0.117998    64A      0.123142    65A      0.125650  
      66A      0.127086    67A      0.127563    68A      0.130332  
      69A      0.134946    70A      0.140913    71A      0.142320  
      72A      0.143160    73A      0.145482    74A      0.146030  
      75A      0.155562    76A      0.160400    77A      0.164650  
      78A      0.168721    79A      0.171607    80A      0.176763  
      81A      0.190936    82A      0.193254    83A      0.195479  
      84A      0.202108    85A      0.211126    86A      0.227555  
      87A      0.230776    88A      0.233917    89A      0.235220  
      90A      0.243353    91A      0.244202    92A      0.245067  
      93A      0.252640    94A      0.257537    95A      0.261245  
      96A      0.263037    97A      0.268044    98A      0.268570  
      99A      0.271235   100A      0.273099   101A      0.279385  
     102A      0.295675   103A      0.297744   104A      0.299578  
     105A      0.303670   106A      0.306913   107A      0.307343  
     108A      0.308756   109A      0.313513   110A      0.322020  
     111A      0.322757   112A      0.326163   113A      0.327478  
     114A      0.331521   115A      0.337790   116A      0.344011  
     117A      0.349802   118A      0.359035   119A      0.360993  
     120A      0.367555   121A      0.370186   122A      0.377744  
     123A      0.387855   124A      0.389530   125A      0.389601  
     126A      0.399743   127A      0.403838   128A      0.413400  
     129A      0.416157   130A      0.418313   131A      0.421008  
     132A      0.427611   133A      0.434802   134A      0.435420  
     135A      0.442904   136A      0.443382   137A      0.446947  
     138A      0.449504   139A      0.453705   140A      0.458335  
     141A      0.464779   142A      0.468629   143A      0.472774  
     144A      0.478126   145A      0.479727   146A      0.482430  
     147A      0.483189   148A      0.488405   149A      0.491392  
     150A      0.498244   151A      0.502868   152A      0.505054  
     153A      0.509669   154A      0.513753   155A      0.515645  
     156A      0.517615   157A      0.520992   158A      0.522135  
     159A      0.523187   160A      0.529763   161A      0.531855  
     162A      0.535628   163A      0.540753   164A      0.543781  
     165A      0.550576   166A      0.551799   167A      0.558517  
     168A      0.570436   169A      0.573382   170A      0.583203  
     171A      0.583993   172A      0.586460   173A      0.593765  
     174A      0.596603   175A      0.609250   176A      0.612046  
     177A      0.616712   178A      0.618975   179A      0.626835  
     180A      0.631481   181A      0.633103   182A      0.637864  
     183A      0.651037   184A      0.659457   185A      0.660166  
     186A      0.668642   187A      0.670418   188A      0.683001  
     189A      0.687680   190A      0.688849   191A      0.697546  
     192A      0.702627   193A      0.708088   194A      0.726059  
     195A      0.726093   196A      0.729564   197A      0.732617  
     198A      0.732777   199A      0.738741   200A      0.745272  
     201A      0.753596   202A      0.756337   203A      0.763824  
     204A      0.782844   205A      0.785806   206A      0.786827  
     207A      0.787062   208A      0.792002   209A      0.796658  
     210A      0.801157   211A      0.804838   212A      0.807194  
     213A      0.828679   214A      0.840897   215A      0.847975  
     216A      0.848207   217A      0.861476   218A      0.869264  
     219A      0.872265   220A      0.881976   221A      0.882205  
     222A      0.886210   223A      0.891255   224A      0.893870  
     225A      0.904588   226A      0.905303   227A      0.905511  
     228A      0.912024   229A      0.912554   230A      0.914809  
     231A      0.917574   232A      0.925130   233A      0.933797  
     234A      0.934391   235A      0.942088   236A      0.947694  
     237A      0.953388   238A      0.955696   239A      0.956601  
     240A      0.966724   241A      0.968751   242A      0.969798  
     243A      0.974364   244A      0.982146   245A      0.986927  
     246A      0.992178   247A      0.993905   248A      1.007445  
     249A      1.009626   250A      1.009867   251A      1.012125  
     252A      1.026599   253A      1.031414   254A      1.044891  
     255A      1.051252   256A      1.052562   257A      1.053559  
     258A      1.063701   259A      1.066731   260A      1.066984  
     261A      1.071620   262A      1.073910   263A      1.077563  
     264A      1.088286   265A      1.096443   266A      1.099433  
     267A      1.100729   268A      1.101563   269A      1.102624  
     270A      1.107106   271A      1.118377   272A      1.121176  
     273A      1.128968   274A      1.131064   275A      1.137912  
     276A      1.141171   277A      1.161002   278A      1.161871  
     279A      1.162120   280A      1.167831   281A      1.176559  
     282A      1.179950   283A      1.188962   284A      1.189195  
     285A      1.191835   286A      1.192636   287A      1.207986  
     288A      1.209152   289A      1.213277   290A      1.215033  
     291A      1.215585   292A      1.231307   293A      1.232814  
     294A      1.240882   295A      1.247722   296A      1.252373  
     297A      1.256281   298A      1.262817   299A      1.263533  
     300A      1.267269   301A      1.280333   302A      1.284784  
     303A      1.288131   304A      1.295828   305A      1.301704  
     306A      1.306280   307A      1.314436   308A      1.317238  
     309A      1.320905   310A      1.323729   311A      1.327050  
     312A      1.337693   313A      1.344438   314A      1.366795  
     315A      1.369342   316A      1.381544   317A      1.384069  
     318A      1.393195   319A      1.394511   320A      1.400810  
     321A      1.415733   322A      1.430834   323A      1.441604  
     324A      1.446199   325A      1.450380   326A      1.452155  
     327A      1.463629   328A      1.464365   329A      1.482248  
     330A      1.496973   331A      1.498017   332A      1.508501  
     333A      1.512448   334A      1.521433   335A      1.543296  
     336A      1.546188   337A      1.548118   338A      1.557240  
     339A      1.563310   340A      1.571632   341A      1.583497  
     342A      1.587527   343A      1.591790   344A      1.594468  
     345A      1.607442   346A      1.623748   347A      1.625283  
     348A      1.631599   349A      1.633353   350A      1.675622  
     351A      1.677374   352A      1.677869   353A      1.681049  
     354A      1.695475   355A      1.712899   356A      1.718331  
     357A      1.718840   358A      1.722458   359A      1.722702  
     360A      1.734517   361A      1.741038   362A      1.745416  
     363A      1.750627   364A      1.758426   365A      1.758836  
     366A      1.766733   367A      1.778504   368A      1.780693  
     369A      1.789490   370A      1.803658   371A      1.819419  
     372A      1.822381   373A      1.829471   374A      1.837170  
     375A      1.847949   376A      1.851207   377A      1.852118  
     378A      1.866360   379A      1.876141   380A      1.884481  
     381A      1.889928   382A      1.910662   383A      1.914218  
     384A      1.934265   385A      1.938486   386A      1.944765  
     387A      1.952629   388A      1.956130   389A      1.969779  
     390A      1.974484   391A      1.992070   392A      1.995803  
     393A      2.000813   394A      2.011721   395A      2.016690  
     396A      2.021973   397A      2.034700   398A      2.046422  
     399A      2.047233   400A      2.048797   401A      2.051864  
     402A      2.072465   403A      2.075881   404A      2.078698  
     405A      2.090945   406A      2.093328   407A      2.098000  
     408A      2.115503   409A      2.129964   410A      2.130797  
     411A      2.141210   412A      2.141782   413A      2.144952  
     414A      2.155029   415A      2.162943   416A      2.165599  
     417A      2.180713   418A      2.197456   419A      2.197932  
     420A      2.207995   421A      2.210784   422A      2.211795  
     423A      2.234951   424A      2.240113   425A      2.242995  
     426A      2.253926   427A      2.262929   428A      2.272672  
     429A      2.293274   430A      2.303264   431A      2.309175  
     432A      2.309389   433A      2.325729   434A      2.339902  
     435A      2.355898   436A      2.372303   437A      2.372980  
     438A      2.373547   439A      2.377702   440A      2.387211  
     441A      2.389591   442A      2.422410   443A      2.429171  
     444A      2.441778   445A      2.449115   446A      2.465992  
     447A      2.475813   448A      2.485424   449A      2.502249  
     450A      2.523285   451A      2.527533   452A      2.562362  
     453A      2.570956   454A      2.575170   455A      2.575994  
     456A      2.589649   457A      2.592280   458A      2.601416  
     459A      2.604616   460A      2.631248   461A      2.639459  
     462A      2.650746   463A      2.660086   464A      2.716003  
     465A      2.717531   466A      2.761226   467A      2.780323  
     468A      2.790735   469A      2.796742   470A      2.830481  
     471A      2.834645   472A      2.842496   473A      2.849646  
     474A      2.883838   475A      2.923843   476A      2.952069  
     477A      2.977308   478A      3.013862   479A      3.032479  
     480A      3.053206   481A      3.086603   482A      3.126924  
     483A      3.158875   484A      3.160278   485A      3.164996  
     486A      3.174881   487A      3.197181   488A      3.221629  
     489A      3.232518   490A      3.245807   491A      3.257528  
     492A      3.275773   493A      3.305693   494A      3.329584  
     495A      3.336348   496A      3.345840   497A      3.352793  
     498A      3.388573   499A      3.390601   500A      3.396120  
     501A      3.413397   502A      3.417017   503A      3.429701  
     504A      3.439036   505A      3.444090   506A      3.445185  
     507A      3.452392   508A      3.453456   509A      3.472123  
     510A      3.478416   511A      3.480568   512A      3.509383  
     513A      3.520581   514A      3.521298   515A      3.526207  
     516A      3.540058   517A      3.540296   518A      3.546621  
     519A      3.555084   520A      3.564608   521A      3.565580  
     522A      3.577716   523A      3.578451   524A      3.595818  
     525A      3.603888   526A      3.612028   527A      3.614098  
     528A      3.632154   529A      3.636673   530A      3.642827  
     531A      3.656037   532A      3.668780   533A      3.686160  
     534A      3.690030   535A      3.691578   536A      3.700187  
     537A      3.705520   538A      3.709971   539A      3.724533  
     540A      3.727956   541A      3.766025   542A      3.768751  
     543A      3.797797   544A      3.801612   545A      3.806076  
     546A      3.817204   547A      3.822894   548A      3.825955  
     549A      3.848080   550A      3.849888   551A      3.860845  
     552A      3.865968   553A      3.883336   554A      3.884170  
     555A      3.890434   556A      3.899953   557A      3.904866  
     558A      3.912611   559A      3.924296   560A      3.926747  
     561A      3.934750   562A      3.951600   563A      3.962076  
     564A      3.966614   565A      3.968082   566A      3.976814  
     567A      3.998778   568A      3.999334   569A      4.008262  
     570A      4.009625   571A      4.032490   572A      4.043924  
     573A      4.044168   574A      4.045237   575A      4.071722  
     576A      4.074056   577A      4.089694   578A      4.094716  
     579A      4.101525   580A      4.105553   581A      4.119051  
     582A      4.125843   583A      4.142773   584A      4.147710  
     585A      4.170964   586A      4.179869   587A      4.180533  
     588A      4.185765   589A      4.194194   590A      4.201950  
     591A      4.207339   592A      4.221441   593A      4.226044  
     594A      4.232477   595A      4.242191   596A      4.249366  
     597A      4.269084   598A      4.272497   599A      4.287270  
     600A      4.290241   601A      4.301550   602A      4.311573  
     603A      4.313240   604A      4.321578   605A      4.349410  
     606A      4.363936   607A      4.384804   608A      4.397205  
     609A      4.402398   610A      4.408122   611A      4.410648  
     612A      4.421218   613A      4.422550   614A      4.424304  
     615A      4.432631   616A      4.446597   617A      4.452196  
     618A      4.462348   619A      4.470452   620A      4.476097  
     621A      4.483181   622A      4.493239   623A      4.519712  
     624A      4.525273   625A      4.534838   626A      4.540827  
     627A      4.559372   628A      4.564618   629A      4.579839  
     630A      4.619743   631A      4.629373   632A      4.633271  
     633A      4.655620   634A      4.679806   635A      4.682240  
     636A      4.691149   637A      4.714616   638A      4.732764  
     639A      4.739166   640A      4.745073   641A      4.765634  
     642A      4.767316   643A      4.785589   644A      4.801136  
     645A      4.840756   646A      4.880270   647A      4.884393  
     648A      4.888306   649A      4.914036   650A      4.915803  
     651A      4.940768   652A      4.960791   653A      4.963708  
     654A      4.970179   655A      4.979774   656A      4.998306  
     657A      4.998798   658A      5.014330   659A      5.028487  
     660A      5.043140   661A      5.063573   662A      5.065096  
     663A      5.070126   664A      5.082594   665A      5.084282  
     666A      5.087307   667A      5.113472   668A      5.123439  
     669A      5.139146   670A      5.144237   671A      5.151064  
     672A      5.155048   673A      5.159847   674A      5.168726  
     675A      5.173103   676A      5.195753   677A      5.219625  
     678A      5.220023   679A      5.224049   680A      5.233083  
     681A      5.276424   682A      5.298721   683A      5.299280  
     684A      5.341944   685A      5.347491   686A      5.360757  
     687A      5.361176   688A      5.379630   689A      5.383523  
     690A      5.397737   691A      5.422275   692A      5.431095  
     693A      5.454521   694A      5.459258   695A      5.488267  
     696A      5.489193   697A      5.501626   698A      5.546622  
     699A      5.558940   700A      5.561157   701A      5.604199  
     702A      5.657321   703A      5.662551   704A      5.733195  
     705A      5.755094   706A      5.763588   707A      5.777534  
     708A      5.789508   709A      5.807194   710A      5.807379  
     711A      5.865182   712A      5.867786   713A      5.883768  
     714A      5.908567   715A      5.912773   716A      5.979454  
     717A      6.023946   718A      6.078312   719A      6.137955  
     720A      6.176952   721A      6.189384   722A      6.230692  
     723A      6.235705   724A      6.241960   725A      6.255937  
     726A      6.326433   727A      6.334527   728A      6.366426  
     729A      6.404276   730A      6.466685   731A      6.521368  
     732A      6.566228   733A      6.614511   734A      6.624541  
     735A      6.693875   736A      6.696334   737A      6.752770  
     738A      6.811047   739A      6.886725   740A      6.891836  
     741A      6.917868   742A      7.016694   743A      7.054248  
     744A      7.062646   745A      7.184839   746A      7.331442  
     747A      7.405773   748A     15.646933   749A     16.116432  
     750A     16.508156   751A     16.759635   752A     18.514875  
     753A     18.856407   754A     19.121788   755A     19.491240  
     756A     20.013974   757A     20.064123   758A     20.083334  
     759A     21.930061  

    Final Occupation by Irrep:
              A 
    DOCC [    41 ]

  Energy converged.

  @DF-RHF Final Energy:  -476.39476843193717

   => Energetics <=

    Nuclear Repulsion Energy =            605.5012304764334203
    One-Electron Energy =               -1844.7793911357448451
    Two-Electron Energy =                 762.8833922273743156
    DFT Exchange-Correlation Energy =       0.0000000000000000
    Empirical Dispersion Energy =           0.0000000000000000
    PCM Polarization Energy =               0.0000000000000000
    EFP Energy =                            0.0000000000000000
    Total Energy =                       -476.3947684319371092



Properties will be evaluated at   0.000000,   0.000000,   0.000000 Bohr

Properties computed using the SCF density matrix

  Nuclear Dipole Moment: (a.u.)
     X:     0.1296      Y:     0.0610      Z:    -4.3398

  Electronic Dipole Moment: (a.u.)
     X:    -0.0991      Y:    -0.0472      Z:     3.2990

  Dipole Moment: (a.u.)
     X:     0.0305      Y:     0.0138      Z:    -1.0408     Total:     1.0413

  Dipole Moment: (Debye)
     X:     0.0775      Y:     0.0350      Z:    -2.6453     Total:     2.6467


*** tstop() called on gpu-1-7.local at Sat Nov 11 09:46:33 2017
Module time:
	user time   =    1290.94 seconds =      21.52 minutes
	system time =      44.08 seconds =       0.73 minutes
	total time  =        361 seconds =       6.02 minutes
Total time:
	user time   =    1290.95 seconds =      21.52 minutes
	system time =      44.08 seconds =       0.73 minutes
	total time  =        361 seconds =       6.02 minutes

  //>>>>>>>>>>>>>>>>>>>>>>>>>>>>>>>>>>>//
  //               DFMP2               //
  //<<<<<<<<<<<<<<<<<<<<<<<<<<<<<<<<<<<//

   => Loading Basis Set <=

    Name: (AUG-CC-PVTZ AUX)
    Role: RIFIT
    Keyword: DF_BASIS_MP2
    atoms 1-11  entry C          line   147 file /cbio/jclab/home/chayas/anaconda/envs/py35/share/psi4/basis/aug-cc-pvtz-ri.gbs 
    atoms 12    entry N          line   205 file /cbio/jclab/home/chayas/anaconda/envs/py35/share/psi4/basis/aug-cc-pvtz-ri.gbs 
    atoms 13-21 entry H          line    29 file /cbio/jclab/home/chayas/anaconda/envs/py35/share/psi4/basis/aug-cc-pvtz-ri.gbs 

	 --------------------------------------------------------
	                          DF-MP2                         
	      2nd-Order Density-Fitted Moller-Plesset Theory     
	              RMP2 Wavefunction,   8 Threads             
	                                                         
	        Rob Parrish, Justin Turney, Andy Simmonett,      
	           Ed Hohenstein, and C. David Sherrill          
	 --------------------------------------------------------

   => Auxiliary Basis Set <=

  Basis Set: (AUG-CC-PVTZ AUX)
    Blend: AUG-CC-PVTZ-RI
    Number of shells: 462
    Number of basis function: 1686
    Number of Cartesian functions: 2127
    Spherical Harmonics?: true
    Max angular momentum: 4

	 --------------------------------------------------------
	                 NBF =   759, NAUX =  1686
	 --------------------------------------------------------
	   CLASS    FOCC     OCC    AOCC    AVIR     VIR    FVIR
	   PAIRS       0      41      41     718     718       0
	 --------------------------------------------------------


         ------------------------------------------------------------
                                     CPHF                           
                                  Rob Parrish                       
         ------------------------------------------------------------

  ==> Geometry <==

    Molecular point group: c1
    Full point group: C1

    Geometry (in Angstrom), charge = 0, multiplicity = 1:

       Center              X                  Y                   Z               Mass       
    ------------   -----------------  -----------------  -----------------  -----------------
           C          0.107762888823     0.054210693764    -3.526042728723    12.000000000000
           C         -0.970237111177     0.627210693764    -2.853042728723    12.000000000000
           C          1.143762888823    -0.540789306236    -2.806042728723    12.000000000000
           C         -1.013237111177     0.606210693764    -1.459042728723    12.000000000000
           C          1.100762888823    -0.561789306236    -1.412042728723    12.000000000000
           C         -0.624237111177    -1.073789306236     1.371957271277    12.000000000000
           C          0.537762888823     1.031210693764     1.438957271277    12.000000000000
           C         -0.640237111177    -1.047789306236     2.756957271277    12.000000000000
           C          0.469762888823     0.962210693764     2.820957271277    12.000000000000
           C          0.022762888823     0.011210693764    -0.738042728723    12.000000000000
           C         -0.022237111177    -0.010789306236     0.707957271277    12.000000000000
           N         -0.106237111177    -0.053789306236     3.500957271277    14.003074004780
           H          0.139762888823     0.069210693764    -4.612042728723     1.007825032070
           H         -1.778237111177     1.088210693764    -3.414042728723     1.007825032070
           H          1.982762888823    -0.988789306236    -3.330042728723     1.007825032070
           H         -1.861237111177     1.057210693764    -0.948042728723     1.007825032070
           H          1.915762888823    -1.029789306236    -0.864042728723     1.007825032070
           H         -1.071237111177    -1.904789306236     0.835957271277     1.007825032070
           H          1.015762888823     1.877210693764     0.954957271277     1.007825032070
           H         -1.096237111177    -1.853789306236     3.321957271277     1.007825032070
           H          0.890762888823     1.750210693764     3.436957271277     1.007825032070

  Nuclear repulsion =  605.501230476433420
  Reference energy  = -476.394768431937166

  ==> Basis Set <==

  Basis Set: AUG-CC-PVTZ
    Blend: AUG-CC-PVTZ
    Number of shells: 249
    Number of basis function: 759
    Number of Cartesian functions: 885
    Spherical Harmonics?: true
    Max angular momentum: 3

  ==> CGRSolver (by Rob Parrish) <==

   Number of roots    =         1
   Preconditioning    =    JACOBI
   Convergence cutoff =     1E-06
   Maximum iterations =       100

  ==> CPHFRHamiltonian (by Rob Parrish) <== 

  ==> DFJK: Density-Fitted J/K Matrices <==

    J tasked:                  Yes
    K tasked:                  Yes
    wK tasked:                  No
    OpenMP threads:              8
    Integrals threads:           8
    Memory (MB):               375
    Algorithm:                Disk
    Integral Cache:           NONE
    Schwarz Cutoff:          1E-12
    Fitting Condition:       1E-12

   => Auxiliary Basis Set <=

  Basis Set: (AUG-CC-PVTZ AUX)
    Blend: AUG-CC-PVTZ-JKFIT
    Number of shells: 486
    Number of basis function: 1662
    Number of Cartesian functions: 2067
    Spherical Harmonics?: true
    Max angular momentum: 4

  ==> CPHF Iterations <==

  => Iterations <=

             Iter  Converged  Remaining    Residual
  CGR           1          0          1   8.158E-02
  CGR           2          0          1   3.010E-02
  CGR           3          0          1   2.048E-02
  CGR           4          0          1   8.868E-03
  CGR           5          0          1   2.433E-03
  CGR           6          0          1   8.137E-04
  CGR           7          0          1   3.172E-04
  CGR           8          0          1   8.477E-05
  CGR           9          0          1   3.517E-05
  CGR          10          0          1   7.791E-06
  CGR          11          0          1   2.290E-06
  CGR          12          0          1   1.044E-06
  CGR          13          1          0   5.431E-07

    CGRSolver converged.

  ==> DFCorrGrad: Density-Fitted Correlated Gradients <==

    OpenMP threads:              8
    Integrals threads:           8
    Memory (MB):               375
    Schwarz Cutoff:          0E+00
    Fitting Condition:       1E-12

   => Auxiliary Basis Set <=

  Basis Set: (AUG-CC-PVTZ AUX)
    Blend: AUG-CC-PVTZ-JKFIT
    Number of shells: 486
    Number of basis function: 1662
    Number of Cartesian functions: 2067
    Spherical Harmonics?: true
    Max angular momentum: 4

	-----------------------------------------------------------
	 ==================> DF-MP2 Energies <==================== 
	-----------------------------------------------------------
	 Reference Energy          =    -476.3947684319371660 [Eh]
	 Singles Energy            =      -0.0000000000000001 [Eh]
	 Same-Spin Energy          =      -0.5341611696889731 [Eh]
	 Opposite-Spin Energy      =      -1.6424563004648669 [Eh]
	 Correlation Energy        =      -2.1766174701538401 [Eh]
	 Total Energy              =    -478.5713859020909808 [Eh]
	-----------------------------------------------------------
	 ================> DF-SCS-MP2 Energies <================== 
	-----------------------------------------------------------
	 SCS Same-Spin Scale       =       0.3333333333333333 [-]
	 SCS Opposite-Spin Scale   =       1.2000000000000000 [-]
	 SCS Same-Spin Energy      =      -0.1780537232296577 [Eh]
	 SCS Opposite-Spin Energy  =      -1.9709475605578402 [Eh]
	 SCS Correlation Energy    =      -2.1490012837874977 [Eh]
	 SCS Total Energy          =    -478.5437697157246362 [Eh]
	-----------------------------------------------------------


  -Total Gradient:
     Atom            X                  Y                   Z
    ------   -----------------  -----------------  -----------------
       1       -0.000419094577     0.000416532002    -0.000171520142
       2       -0.001323737540     0.000870342376    -0.000467540368
       3        0.002224642784    -0.001186993085    -0.000231178678
       4        0.000830283194    -0.000677380419     0.007600830953
       5       -0.001868964091     0.000830558747     0.007759132349
       6       -0.001656859019    -0.003313419050    -0.006317590270
       7        0.002176259204     0.003669565609    -0.005942666958
       8       -0.003768308046    -0.006796576598    -0.012071509166
       9        0.004086589985     0.006718276350    -0.011775713060
      10        0.000187229106    -0.000569079128     0.014090687646
      11       -0.000061012218     0.000006159287    -0.003773982108
      12       -0.000400162767    -0.000253512696     0.016964079113
      13        0.000089197726     0.000030391415    -0.005099213515
      14       -0.003572356542     0.001912198296    -0.002526001906
      15        0.003443343989    -0.001912129915    -0.002225770903
      16       -0.005583133773     0.003083196032     0.000089868657
      17        0.005521586905    -0.003070387687     0.000323787074
      18       -0.002419853961    -0.004431084312    -0.000107472858
      19        0.002515382564     0.004556371700    -0.000115704036
      20       -0.000869153405    -0.001678089817     0.001893741709
      21        0.000868120482     0.001795060888     0.002103736471


*** tstop() called on gpu-1-7.local at Sat Nov 11 10:11:04 2017
Module time:
	user time   =    5774.49 seconds =      96.24 minutes
	system time =     108.01 seconds =       1.80 minutes
	total time  =       1832 seconds =      30.53 minutes
Total time:
	user time   =    5774.50 seconds =      96.24 minutes
	system time =     108.01 seconds =       1.80 minutes
	total time  =       1832 seconds =      30.53 minutes

			-----------------------------------------
			 OPTKING 2.0: for geometry optimizations 
			  - R.A. King,  Bethel University        
			-----------------------------------------

	Internal coordinates to be generated automatically.
	Detected frag 1 with atoms:  1 2 3 4 5 6 7 8 9 10 11 12 13 14 15 16 17 18 19 20
	 21
	---Fragment 1 Bond Connectivity---
	 1 : 2 3 13
	 2 : 1 4 14
	 3 : 1 5 15
	 4 : 2 10 16
	 5 : 3 10 17
	 6 : 8 11 18
	 7 : 9 11 19
	 8 : 6 12 20
	 9 : 7 12 21
	 10 : 4 5 11
	 11 : 6 7 10
	 12 : 8 9
	 13 : 1
	 14 : 2
	 15 : 3
	 16 : 4
	 17 : 5
	 18 : 6
	 19 : 7
	 20 : 8
	 21 : 9

	Assuming in current code that numbering for constraints corresponds to unified fragment.
	Fixed dihedral atom list: 
	     4    10    11     6
	---Fragment 1 Geometry and Gradient---
	 C           0.2036423472        0.1024433647       -6.6632550901
	 C          -1.8334824241        1.1852564388       -5.3914694027
	 C           2.1613986208       -1.0219436844       -5.3026522745
	 C          -1.9147406478        1.1455721900       -2.7571911735
	 C           2.0801403971       -1.0616279332       -2.6683740452
	 C          -1.1796371821       -2.0291677132        2.5926235087
	 C           1.0162245843        1.9487057965        2.7192351596
	 C          -1.2098728002       -1.9800348338        5.2098942028
	 C           0.8877232073        1.8183146933        5.3308366753
	 C           0.0430156259        0.0211851410       -1.3946986317
	 C          -0.0420220501       -0.0203888340        1.3378453565
	 N          -0.2007590453       -0.1016470577        6.6158504456
	 H           0.2641135834        0.1307892567       -8.7154976705
	 H          -3.3603811395        2.0564201861       -6.4516057633
	 H           3.7468788463       -1.8685409919       -6.2928687681
	 H          -3.5172284085        1.9978386760       -1.7915411196
	 H           3.6202671954       -1.9460197634       -1.6328041244
	 H          -2.0243447635       -3.5995301296        1.5797303015
	 H           1.9195136758        3.5474141049        1.8046077113
	 H          -2.0715879168       -3.5031540969        6.2775894679
	 H           1.6832979092        3.3074188861        6.4949079731
	            -0.0004190946        0.0004165320       -0.0001715201
	            -0.0013237375        0.0008703424       -0.0004675404
	             0.0022246428       -0.0011869931       -0.0002311787
	             0.0008302832       -0.0006773804        0.0076008310
	            -0.0018689641        0.0008305587        0.0077591323
	            -0.0016568590       -0.0033134190       -0.0063175903
	             0.0021762592        0.0036695656       -0.0059426670
	            -0.0037683080       -0.0067965766       -0.0120715092
	             0.0040865900        0.0067182763       -0.0117757131
	             0.0001872291       -0.0005690791        0.0140906876
	            -0.0000610122        0.0000061593       -0.0037739821
	            -0.0004001628       -0.0002535127        0.0169640791
	             0.0000891977        0.0000303914       -0.0050992135
	            -0.0035723565        0.0019121983       -0.0025260019
	             0.0034433440       -0.0019121299       -0.0022257709
	            -0.0055831338        0.0030831960        0.0000898687
	             0.0055215869       -0.0030703877        0.0003237871
	            -0.0024198540       -0.0044310843       -0.0001074729
	             0.0025153826        0.0045563717       -0.0001157040
	            -0.0008691534       -0.0016780898        0.0018937417
	             0.0008681205        0.0017950609        0.0021037365

	Previous optimization step data not found.  Starting new optimization.

	---Fragment 1 Intrafragment Coordinates---
	 - Coordinate -           - BOHR/RAD -       - ANG/DEG -
	 R(1,2)           =         2.634350	       1.394038
	 R(1,3)           =         2.635962	       1.394891
	 R(1,13)          =         2.053329	       1.086575
	 R(2,4)           =         2.635830	       1.394821
	 R(2,14)          =         2.052860	       1.086327
	 R(3,5)           =         2.635830	       1.394821
	 R(3,15)          =         2.052073	       1.085910
	 R(4,10)          =         2.636938	       1.395407
	 R(4,16)          =         2.055920	       1.087946
	 R(5,10)          =         2.635263	       1.394521
	 R(5,17)          =         2.055856	       1.087912
	 R(6,8)           =         2.617906	       1.385336
	 R(6,11)          =         2.627514	       1.390420
	 R(6,18)          =         2.050737	       1.085203
	 R(7,9)           =         2.618010	       1.385391
	 R(7,11)          =         2.627824	       1.390584
	 R(7,19)          =         2.051425	       1.085567
	 R(8,12)          =         2.554088	       1.351565
	 R(8,20)          =         2.049980	       1.084803
	 R(9,12)          =         2.553881	       1.351456
	 R(9,21)          =         2.050715	       1.085192
	 R(10,11)         =         2.734183	       1.446867
	 B(1,2,4)         =         2.094553	     120.009056
	 B(1,2,14)        =         2.094726	     120.018942
	 B(1,3,5)         =         2.093692	     119.959722
	 B(1,3,15)        =         2.095250	     120.048965
	 B(2,1,3)         =         2.094940	     120.031219
	 B(2,1,13)        =         2.093950	     119.974480
	 B(2,4,10)        =         2.094306	     119.994870
	 B(2,4,16)        =         2.079681	     119.156970
	 B(3,1,13)        =         2.094293	     119.994160
	 B(3,5,10)        =         2.095181	     120.045019
	 B(3,5,17)        =         2.079222	     119.130634
	 B(4,2,14)        =         2.093904	     119.971849
	 B(4,10,5)        =         2.093699	     119.960108
	 B(4,10,11)       =         2.094138	     119.985297
	 B(5,3,15)        =         2.094242	     119.991253
	 B(5,10,11)       =         2.095348	     120.054595
	 B(6,8,12)        =         2.164674	     124.026681
	 B(6,8,20)        =         2.107861	     120.771526
	 B(6,11,7)        =         2.090001	     119.748255
	 B(6,11,10)       =         2.097120	     120.156106
	 B(7,9,12)        =         2.165535	     124.076004
	 B(7,9,21)        =         2.107196	     120.733428
	 B(7,11,10)       =         2.096064	     120.095617
	 B(8,6,11)        =         2.057924	     117.910352
	 B(8,6,18)        =         2.098338	     120.225938
	 B(8,12,9)        =         2.031200	     116.379210
	 B(9,7,11)        =         2.057036	     117.859476
	 B(9,7,19)        =         2.100393	     120.343655
	 B(10,4,16)       =         2.109198	     120.848149
	 B(10,5,17)       =         2.108782	     120.824331
	 B(11,6,18)       =         2.126923	     121.863705
	 B(11,7,19)       =         2.125756	     121.796870
	 B(12,8,20)       =         2.010648	     115.201654
	 B(12,9,21)       =         2.010454	     115.190548
	 D(1,2,4,10)      =        -0.000325	      -0.018609
	 D(1,2,4,16)      =        -3.141283	    -179.982244
	 D(1,3,5,10)      =         0.000325	       0.018608
	 D(1,3,5,17)      =         3.141117	     179.972749
	 D(2,1,3,5)       =        -0.000348	      -0.019945
	 D(2,1,3,15)      =         3.139689	     179.890913
	 D(2,4,10,5)      =         0.000301	       0.017261
	 D(2,4,10,11)     =        -3.141289	    -179.982587
	 D(3,1,2,4)       =         0.000348	       0.019955
	 D(3,1,2,14)      =        -3.138767	    -179.838124
	 D(3,5,10,4)      =        -0.000301	      -0.017270
	 D(3,5,10,11)     =         3.141289	     179.982578
	 D(4,2,1,13)      =         3.139559	     179.883471
	 D(4,10,5,17)     =        -3.141080	    -179.970623
	 D(4,10,11,6)     =         1.571096	      90.017179
	 D(4,10,11,7)     =        -1.571434	     -90.036555
	 D(5,3,1,13)      =        -3.139558	    -179.883434
	 D(5,10,4,16)     =         3.141248	     179.980271
	 D(5,10,11,6)     =        -1.570494	     -89.982669
	 D(5,10,11,7)     =         1.570161	      89.963597
	 D(6,8,12,9)      =         0.001034	       0.059237
	 D(6,11,7,9)      =         0.000176	       0.010109
	 D(6,11,7,19)     =        -3.141460	    -179.992408
	 D(7,9,12,8)      =        -0.000681	      -0.039032
	 D(7,11,6,8)      =         0.000140	       0.008001
	 D(7,11,6,18)     =        -3.140998	    -179.965938
	 D(8,6,11,10)     =         3.140798	     179.954454
	 D(8,12,9,21)     =         3.140004	     179.908959
	 D(9,7,11,10)     =        -3.140482	    -179.936376
	 D(9,12,8,20)     =         3.140273	     179.924395
	 D(10,4,2,14)     =         3.138792	     179.839537
	 D(10,5,3,15)     =        -3.139713	    -179.892302
	 D(10,11,6,18)    =        -0.000340	      -0.019485
	 D(10,11,7,19)    =         0.001067	       0.061106
	 D(11,6,8,12)     =        -0.000784	      -0.044927
	 D(11,6,8,20)     =        -3.139898	    -179.902929
	 D(11,7,9,12)     =         0.000102	       0.005852
	 D(11,7,9,21)     =        -3.140535	    -179.939396
	 D(11,10,4,16)    =        -0.000342	      -0.019577
	 D(11,10,5,17)    =         0.000510	       0.029225
	 D(12,8,6,18)     =         3.140361	     179.929456
	 D(12,9,7,19)     =        -3.141447	    -179.991669
	 D(13,1,2,14)     =         0.000443	       0.025392
	 D(13,1,3,15)     =         0.000479	       0.027424
	 D(14,2,4,16)     =        -0.002166	      -0.124098
	 D(15,3,5,17)     =         0.001079	       0.061840
	 D(18,6,8,20)     =         0.001247	       0.071455
	 D(19,7,9,21)     =         0.001101	       0.063083

	Current energy   :      -478.5713859021

	Generating empirical Hessian (Schlegel '84) for each fragment.
	Adding user-defined constraint: Fragment 1; Coordinate 71:
		Value =     1.571096; Fixed value    =     1.570796
		Force =    -0.000150; Force constant =     0.500000
	Removing off-diagonal coupling between coordinate 71 and others.
	Taking RFO optimization step.
	Going to follow RFO solution 1.
	Using RFO vector 1.

	Determining step-restricting scale parameter for RS-RFO.
	Maximum step size allowed    0.10000

	 Iter      |step|        alpha        rfo_root  
	------------------------------------------------
	    0     0.11615       1.00000           1
	    1     0.10386       9.49304           1
	    2     0.10026      12.86440           1
	    3     0.10000      13.12948           1
	------------------------------------------------
	Norm of target step-size    0.10000
	Projected energy change by RFO approximation:        -0.0036479807

	Back-transformation to cartesian coordinates...
	Could not converge backtransformation.
	Using first guess instead.

	--- Internal Coordinate Step in ANG or DEG, aJ/ANG or AJ/DEG ---
	 ---------------------------------------------------------------------------
	   Coordinate                Previous        Force       Change         New 
	   ----------                --------       ------       ------       ------
	    1 R(1,2)          =      1.394038    -0.049299    -0.006236     1.387802
	    2 R(1,3)          =      1.394891    -0.054852    -0.006949     1.387942
	    3 R(1,13)         =      1.086575    -0.042014    -0.006733     1.079842
	    4 R(2,4)          =      1.394821    -0.044229    -0.005531     1.389290
	    5 R(2,14)         =      1.086327    -0.039324    -0.006296     1.080031
	    6 R(3,5)          =      1.394821    -0.044176    -0.005525     1.389296
	    7 R(3,15)         =      1.085910    -0.037266    -0.005960     1.079950
	    8 R(4,10)         =      1.395407    -0.028428    -0.003439     1.391969
	    9 R(4,16)         =      1.087946    -0.046731    -0.007451     1.080495
	   10 R(5,10)         =      1.394521    -0.023109    -0.002765     1.391756
	   11 R(5,17)         =      1.087912    -0.046305    -0.007384     1.080528
	   12 R(6,8)          =      1.385336     0.011466     0.001376     1.386713
	   13 R(6,11)         =      1.390420    -0.019690    -0.001794     1.388626
	   14 R(6,18)         =      1.085203    -0.036604    -0.005834     1.079369
	   15 R(7,9)          =      1.385391     0.011015     0.001319     1.386711
	   16 R(7,11)         =      1.390584    -0.019730    -0.001796     1.388788
	   17 R(7,19)         =      1.085567    -0.038805    -0.006195     1.079372
	   18 R(8,12)         =      1.351565    -0.118365    -0.013122     1.338443
	   19 R(8,20)         =      1.084803    -0.021408    -0.003404     1.081399
	   20 R(9,12)         =      1.351456    -0.118321    -0.013114     1.338342
	   21 R(9,21)         =      1.085192    -0.023352    -0.003719     1.081473
	   22 R(10,11)        =      1.446867     0.157775     0.023284     1.470151
	   23 B(1,2,4)        =    120.009056     0.000031     0.052578   120.061634
	   24 B(1,2,14)       =    120.018942    -0.000010    -0.006915   120.012028
	   25 B(1,3,5)        =    119.959722     0.000039     0.076705   120.036427
	   26 B(1,3,15)       =    120.048965    -0.000016    -0.024937   120.024028
	   27 B(2,1,3)        =    120.031219    -0.000049    -0.191376   119.839843
	   28 B(2,1,13)       =    119.974480     0.000027     0.105389   120.079869
	   29 B(2,4,10)       =    119.994870     0.000158     0.446569   120.441439
	   30 B(2,4,16)       =    119.156970     0.000149     0.605145   119.762115
	   31 B(3,1,13)       =    119.994160     0.000022     0.086080   120.080240
	   32 B(3,5,10)       =    120.045019     0.000149     0.423111   120.468130
	   33 B(3,5,17)       =    119.130634     0.000152     0.612723   119.743357
	   34 B(4,2,14)       =    119.971849    -0.000021    -0.045573   119.926276
	   35 B(4,10,5)       =    119.960108    -0.000328    -0.807582   119.152526
	   36 B(4,10,11)      =    119.985297     0.000170     0.419373   120.404670
	   37 B(5,3,15)       =    119.991253    -0.000023    -0.051731   119.939522
	   38 B(5,10,11)      =    120.054595     0.000158     0.388209   120.442804
	   39 B(6,8,12)       =    124.026681    -0.000014    -0.147239   123.879442
	   40 B(6,8,20)       =    120.771526    -0.000042    -0.104904   120.666622
	   41 B(6,11,7)       =    119.748255    -0.000862    -2.034962   117.713293
	   42 B(6,11,10)      =    120.156106     0.000424     0.999385   121.155490
	   43 B(7,9,12)       =    124.076004    -0.000029    -0.188955   123.887049
	   44 B(7,9,21)       =    120.733428    -0.000033    -0.076252   120.657176
	   45 B(7,11,10)      =    120.095617     0.000438     1.035591   121.131208
	   46 B(8,6,11)       =    117.910352     0.000380     1.135927   119.046279
	   47 B(8,6,18)       =    120.225938    -0.000003     0.109871   120.335809
	   48 B(8,12,9)       =    116.379210     0.000129     0.057081   116.436290
	   49 B(9,7,11)       =    117.859476     0.000396     1.178166   119.037641
	   50 B(9,7,19)       =    120.343655    -0.000025     0.037299   120.380954
	   51 B(10,4,16)      =    120.848149    -0.000307    -1.051705   119.796445
	   52 B(10,5,17)      =    120.824331    -0.000302    -1.035821   119.788510
	   53 B(11,6,18)      =    121.863705    -0.000377    -1.245794   120.617911
	   54 B(11,7,19)      =    121.796870    -0.000371    -1.215464   120.581405
	   55 B(12,8,20)      =    115.201654     0.000056     0.252255   115.453909
	   56 B(12,9,21)      =    115.190548     0.000061     0.265224   115.455772
	   57 D(1,2,4,10)     =     -0.018609     0.000000     0.010794    -0.007815
	   58 D(1,2,4,16)     =   -179.982244    -0.000000    -0.010701  -179.992944
	   59 D(1,3,5,10)     =      0.018608    -0.000000    -0.012717     0.005891
	   60 D(1,3,5,17)     =    179.972749     0.000000     0.011628   179.984377
	   61 D(2,1,3,5)      =     -0.019945     0.000000     0.011477    -0.008468
	   62 D(2,1,3,15)     =    179.890913     0.000001     0.044682   179.935595
	   63 D(2,4,10,5)     =      0.017261    -0.000000    -0.012104     0.005157
	   64 D(2,4,10,11)    =   -179.982587    -0.000000    -0.012757  -179.995344
	   65 D(3,1,2,4)      =      0.019955    -0.000000    -0.010528     0.009426
	   66 D(3,1,2,14)     =   -179.838124    -0.000001    -0.061688  -179.899813
	   67 D(3,5,10,4)     =     -0.017270     0.000000     0.013073    -0.004197
	   68 D(3,5,10,11)    =    179.982578     0.000000     0.013726   179.996303
	   69 D(4,2,1,13)     =    179.883471     0.000001     0.045951   179.929421
	   70 D(4,10,5,17)    =   -179.970623    -0.000000    -0.012051  -179.982674
	   71 D(4,10,11,6)    =     90.017179    -0.000001    -0.015116    90.002063
	   72 D(4,10,11,7)    =    -90.036555    -0.000000     0.005136   -90.031419
	   73 D(5,3,1,13)     =   -179.883434    -0.000001    -0.045029  -179.928463
	   74 D(5,10,4,16)    =    179.980271     0.000000     0.010010   179.990281
	   75 D(5,10,11,6)    =    -89.982669    -0.000001    -0.015775   -89.998444
	   76 D(5,10,11,7)    =     89.963597    -0.000000     0.004477    89.968074
	   77 D(6,8,12,9)     =      0.059237    -0.000001    -0.032792     0.026445
	   78 D(6,11,7,9)     =      0.010109     0.000000    -0.007967     0.002143
	   79 D(6,11,7,19)    =   -179.992408     0.000000    -0.005139  -179.997547
	   80 D(7,9,12,8)     =     -0.039032     0.000000     0.012576    -0.026457
	   81 D(7,11,6,8)     =      0.008001    -0.000000    -0.010152    -0.002151
	   82 D(7,11,6,18)    =   -179.965938    -0.000001    -0.022493  -179.988431
	   83 D(8,6,11,10)    =    179.954454     0.000000     0.011021   179.965475
	   84 D(8,12,9,21)    =    179.908959     0.000001     0.044419   179.953377
	   85 D(9,7,11,10)    =   -179.936376    -0.000001    -0.029115  -179.965492
	   86 D(9,12,8,20)    =    179.924395     0.000001     0.042560   179.966956
	   87 D(10,4,2,14)    =    179.839537     0.000001     0.061965   179.901502
	   88 D(10,5,3,15)    =   -179.892302    -0.000001    -0.045918  -179.938220
	   89 D(10,11,6,18)   =     -0.019485     0.000000    -0.001320    -0.020805
	   90 D(10,11,7,19)   =      0.061106    -0.000001    -0.026288     0.034818
	   91 D(11,6,8,12)    =     -0.044927     0.000001     0.032108    -0.012820
	   92 D(11,6,8,20)    =   -179.902929    -0.000001    -0.047442  -179.950371
	   93 D(11,7,9,12)    =      0.005852     0.000000     0.006988     0.012840
	   94 D(11,7,9,21)    =   -179.939396    -0.000001    -0.026598  -179.965993
	   95 D(11,10,4,16)   =     -0.019577     0.000000     0.009357    -0.010219
	   96 D(11,10,5,17)   =      0.029225    -0.000000    -0.011398     0.017826
	   97 D(12,8,6,18)    =    179.929456     0.000001     0.044044   179.973500
	   98 D(12,9,7,19)    =   -179.991669     0.000000     0.004200  -179.987470
	   99 D(13,1,2,14)    =      0.025392    -0.000000    -0.005209     0.020182
	  100 D(13,1,3,15)    =      0.027424    -0.000000    -0.011824     0.015601
	  101 D(14,2,4,16)    =     -0.124098     0.000001     0.040470    -0.083627
	  102 D(15,3,5,17)    =      0.061840    -0.000000    -0.021573     0.040266
	  103 D(18,6,8,20)    =      0.071455    -0.000001    -0.035506     0.035949
	  104 D(19,7,9,21)    =      0.063083    -0.000001    -0.029386     0.033697
	 ---------------------------------------------------------------------------
	Successfully symmetrized geometry.
	 Forces used to impose fixed constraints are not included.
	  Forces zeroed: 71 

  ==> Convergence Check <==

  Measures of convergence in internal coordinates in au.
  Criteria marked as inactive (o), active & met (*), and active & unmet ( ).
  --------------------------------------------------------------------------------------------- ~
   Step     Total Energy     Delta E     MAX Force     RMS Force      MAX Disp      RMS Disp    ~
  --------------------------------------------------------------------------------------------- ~
    Convergence Criteria    1.00e-06 *    3.00e-04 *             o    1.20e-03 *             o  ~
  --------------------------------------------------------------------------------------------- ~
      1    -478.57138590   -4.79e+02      1.92e-02      3.82e-03 o    4.40e-02      9.81e-03 o  ~
  ---------------------------------------------------------------------------------------------

	Writing optimization data to binary file.
	Structure for next step:
	Cartesian Geometry (in Angstrom)
	    C     0.1082717328   0.0540288359  -3.5451370044
	    C    -0.9639783249   0.6238649156  -2.8731546653
	    C     1.1381307455  -0.5372607333  -2.8267003813
	    C    -1.0059297163   0.6024570719  -1.4846634456
	    C     1.0948517436  -0.5579583649  -1.4382329064
	    C    -0.6180992850  -1.0618942489   1.3967989778
	    C     0.5302359783   1.0183970808   1.4633154175
	    C    -0.6354888362  -1.0385850259   2.7832069086
	    C     0.4637194121   0.9527093187   2.8468713412
	    C     0.0230409701   0.0114016952  -0.7570305119
	    C    -0.0222275507  -0.0108862227   0.7122543202
	    N    -0.1069452369  -0.0537683882   3.5195545376
	    H     0.1406243342   0.0694945382  -4.6243831821
	    H    -1.7676604501   1.0832877356  -3.4294746793
	    H     1.9734462471  -0.9824968926  -3.3466096882
	    H    -1.8431201753   1.0474477428  -0.9664308337
	    H     1.8990441034  -1.0197678176  -0.8836630736
	    H    -1.0618413527  -1.8863857179   0.8598211241
	    H     1.0048836522   1.8580778158   0.9788667090
	    H    -1.0917872417  -1.8436830225   3.3426993872
	    H     0.8848499159   1.7399442530   3.4571943459
			--------------------------
			 OPTKING Finished Execution 
			--------------------------

    Structure for next step:
    Molecular point group: c1
    Full point group: C1

    Geometry (in Angstrom), charge = 0, multiplicity = 1:

    C            0.108321498302     0.054101036530    -3.544923237848
    C           -0.963928559353     0.623937116192    -2.872940898763
    C            1.138180510990    -0.537188532689    -2.826486614806
    C           -1.005879950780     0.602529272482    -1.484449679078
    C            1.094901509143    -0.557886164345    -1.438019139903
    C           -0.618049519495    -1.061822048260     1.397012744328
    C            0.530285743769     1.018469281434     1.463529184010
    C           -0.635439070697    -1.038512825345     2.783420675148
    C            0.463769177650     0.952781519347     2.847085107732
    C            0.023090735625     0.011473895828    -0.756816745385
    C           -0.022177785145    -0.010814022120     0.712468086716
    N           -0.106895471434    -0.053696187621     3.519768304118
    H            0.140674099720     0.069566738787    -4.624169415588
    H           -1.767610684618     1.083359936168    -3.429260912778
    H            1.973496012566    -0.982424691973    -3.346395921704
    H           -1.843070409797     1.047519943434    -0.966217067113
    H            1.899093868895    -1.019695616998    -0.883449307105
    H           -1.061791587142    -1.886313517263     0.860034890609
    H            1.004933417670     1.858150016383     0.979080475502
    H           -1.091737476201    -1.843610821896     3.342913153710
    H            0.884899681438     1.740016453573     3.457408112410

gradient() will perform analytic gradient computation.

*** tstart() called on gpu-1-7.local
*** at Sat Nov 11 10:11:05 2017

    SCF Algorithm Type (re)set to DF.

*** tstart() called on gpu-1-7.local
*** at Sat Nov 11 10:11:05 2017

   => Loading Basis Set <=

    Name: AUG-CC-PVTZ
    Role: ORBITAL
    Keyword: BASIS
    atoms 1-11  entry C          line   221 file /cbio/jclab/home/chayas/anaconda/envs/py35/share/psi4/basis/aug-cc-pvtz.gbs 
    atoms 12    entry N          line   267 file /cbio/jclab/home/chayas/anaconda/envs/py35/share/psi4/basis/aug-cc-pvtz.gbs 
    atoms 13-21 entry H          line    34 file /cbio/jclab/home/chayas/anaconda/envs/py35/share/psi4/basis/aug-cc-pvtz.gbs 


         ---------------------------------------------------------
                                   SCF
            by Justin Turney, Rob Parrish, and Andy Simmonett
                              RHF Reference
                        8 Threads,    500 MiB Core
         ---------------------------------------------------------

  ==> Geometry <==

    Molecular point group: c1
    Full point group: C1

    Geometry (in Angstrom), charge = 0, multiplicity = 1:

       Center              X                  Y                   Z               Mass       
    ------------   -----------------  -----------------  -----------------  -----------------
           C          0.108321498302     0.054101036530    -3.544923237848    12.000000000000
           C         -0.963928559353     0.623937116192    -2.872940898763    12.000000000000
           C          1.138180510990    -0.537188532689    -2.826486614806    12.000000000000
           C         -1.005879950780     0.602529272482    -1.484449679078    12.000000000000
           C          1.094901509143    -0.557886164345    -1.438019139903    12.000000000000
           C         -0.618049519495    -1.061822048260     1.397012744328    12.000000000000
           C          0.530285743769     1.018469281434     1.463529184010    12.000000000000
           C         -0.635439070697    -1.038512825345     2.783420675148    12.000000000000
           C          0.463769177650     0.952781519347     2.847085107732    12.000000000000
           C          0.023090735625     0.011473895828    -0.756816745385    12.000000000000
           C         -0.022177785145    -0.010814022120     0.712468086716    12.000000000000
           N         -0.106895471434    -0.053696187621     3.519768304118    14.003074004780
           H          0.140674099720     0.069566738787    -4.624169415588     1.007825032070
           H         -1.767610684618     1.083359936168    -3.429260912778     1.007825032070
           H          1.973496012566    -0.982424691973    -3.346395921704     1.007825032070
           H         -1.843070409797     1.047519943434    -0.966217067113     1.007825032070
           H          1.899093868895    -1.019695616998    -0.883449307105     1.007825032070
           H         -1.061791587142    -1.886313517263     0.860034890609     1.007825032070
           H          1.004933417670     1.858150016383     0.979080475502     1.007825032070
           H         -1.091737476201    -1.843610821896     3.342913153710     1.007825032070
           H          0.884899681438     1.740016453573     3.457408112410     1.007825032070

  Running in c1 symmetry.

  Rotational constants: A =      0.09902  B =      0.01724  C =      0.01715 [cm^-1]
  Rotational constants: A =   2968.47000  B =    516.85451  C =    514.24264 [MHz]
  Nuclear repulsion =  605.229309006871404

  Charge       = 0
  Multiplicity = 1
  Electrons    = 82
  Nalpha       = 41
  Nbeta        = 41

  ==> Algorithm <==

  SCF Algorithm Type is DF.
  DIIS enabled.
  MOM disabled.
  Fractional occupation disabled.
  Guess Type is READ.
  Energy threshold   = 1.00e-10
  Density threshold  = 1.00e-10
  Integral threshold = 0.00e+00

  ==> Primary Basis <==

  Basis Set: AUG-CC-PVTZ
    Blend: AUG-CC-PVTZ
    Number of shells: 249
    Number of basis function: 759
    Number of Cartesian functions: 885
    Spherical Harmonics?: true
    Max angular momentum: 3

   => Loading Basis Set <=

    Name: (AUG-CC-PVTZ AUX)
    Role: JKFIT
    Keyword: DF_BASIS_SCF
    atoms 1-11  entry C          line   161 file /cbio/jclab/home/chayas/anaconda/envs/py35/share/psi4/basis/aug-cc-pvtz-jkfit.gbs 
    atoms 12    entry N          line   223 file /cbio/jclab/home/chayas/anaconda/envs/py35/share/psi4/basis/aug-cc-pvtz-jkfit.gbs 
    atoms 13-21 entry H          line    69 file /cbio/jclab/home/chayas/anaconda/envs/py35/share/psi4/basis/aug-cc-pvtz-jkfit.gbs 

  Reading orbitals from file 180, no projection.

  ==> Pre-Iterations <==

   -------------------------------------------------------
    Irrep   Nso     Nmo     Nalpha   Nbeta   Ndocc  Nsocc
   -------------------------------------------------------
     A        759     759       0       0       0       0
   -------------------------------------------------------
    Total     759     759      41      41      41       0
   -------------------------------------------------------

  ==> Integral Setup <==

  ==> DFJK: Density-Fitted J/K Matrices <==

    J tasked:                  Yes
    K tasked:                  Yes
    wK tasked:                  No
    OpenMP threads:              8
    Integrals threads:           8
    Memory (MB):               375
    Algorithm:                Disk
    Integral Cache:           NONE
    Schwarz Cutoff:          1E-12
    Fitting Condition:       1E-12

   => Auxiliary Basis Set <=

  Basis Set: (AUG-CC-PVTZ AUX)
    Blend: AUG-CC-PVTZ-JKFIT
    Number of shells: 486
    Number of basis function: 1662
    Number of Cartesian functions: 2067
    Spherical Harmonics?: true
    Max angular momentum: 4

  Minimum eigenvalue in the overlap matrix is 4.1250210886E-07.
  Using Symmetric Orthogonalization.

  SCF Guess: Orbitals guess was supplied from a previous computation.

  ==> Iterations <==

                           Total Energy        Delta E     RMS |[F,P]|

   @DF-RHF iter   0:  -476.54022226706127   -4.76540e+02   6.05741e-04 
   @DF-RHF iter   1:  -476.39763696225111    1.42585e-01   1.57204e-04 
   @DF-RHF iter   2:  -476.39865410384266   -1.01714e-03   1.36763e-04 DIIS
   @DF-RHF iter   3:  -476.39951279943978   -8.58696e-04   1.64143e-05 DIIS
   @DF-RHF iter   4:  -476.39952640390715   -1.36045e-05   4.93848e-06 DIIS
   @DF-RHF iter   5:  -476.39952847258110   -2.06867e-06   1.85364e-06 DIIS
   @DF-RHF iter   6:  -476.39952893770453   -4.65123e-07   1.19404e-06 DIIS
   @DF-RHF iter   7:  -476.39952917117580   -2.33471e-07   4.17959e-07 DIIS
   @DF-RHF iter   8:  -476.39952923202156   -6.08458e-08   1.22253e-07 DIIS
   @DF-RHF iter   9:  -476.39952923555222   -3.53066e-09   3.64818e-08 DIIS
   @DF-RHF iter  10:  -476.39952923573412   -1.81899e-10   1.14499e-08 DIIS
   @DF-RHF iter  11:  -476.39952923576118   -2.70575e-11   2.61079e-09 DIIS
   @DF-RHF iter  12:  -476.39952923576072    4.54747e-13   5.68368e-10 DIIS
   @DF-RHF iter  13:  -476.39952923576328   -2.55795e-12   3.06485e-10 DIIS
   @DF-RHF iter  14:  -476.39952923576988   -6.59384e-12   1.04054e-10 DIIS
   @DF-RHF iter  15:  -476.39952923576999   -1.13687e-13   5.14300e-11 DIIS

  ==> Post-Iterations <==

    Orbital Energies (a.u.)
    -----------------------

    Doubly Occupied:                                                      

       1A    -15.564063     2A    -11.273271     3A    -11.273254  
       4A    -11.264411     5A    -11.251760     6A    -11.242935  
       7A    -11.242840     8A    -11.241735     9A    -11.241567  
      10A    -11.239825    11A    -11.237965    12A    -11.237926  
      13A     -1.258345    14A     -1.173817    15A     -1.107640  
      16A     -1.034730    17A     -1.025789    18A     -1.018912  
      19A     -0.879305    20A     -0.859171    21A     -0.838317  
      22A     -0.807512    23A     -0.730731    24A     -0.688771  
      25A     -0.669164    26A     -0.654258    27A     -0.639550  
      28A     -0.634062    29A     -0.597513    30A     -0.596563  
      31A     -0.582186    32A     -0.540805    33A     -0.527628  
      34A     -0.506874    35A     -0.504843    36A     -0.504719  
      37A     -0.419053    38A     -0.379123    39A     -0.352789  
      40A     -0.344156    41A     -0.343167  

    Virtual:                                                              

      42A      0.024983    43A      0.032466    44A      0.032823  
      45A      0.035248    46A      0.043146    47A      0.049094  
      48A      0.050215    49A      0.051946    50A      0.060145  
      51A      0.085799    52A      0.087841    53A      0.091998  
      54A      0.092165    55A      0.098665    56A      0.099749  
      57A      0.100107    58A      0.102017    59A      0.108708  
      60A      0.111879    61A      0.114542    62A      0.115365  
      63A      0.117815    64A      0.122964    65A      0.126128  
      66A      0.127062    67A      0.127408    68A      0.130632  
      69A      0.135215    70A      0.141127    71A      0.142459  
      72A      0.143074    73A      0.145117    74A      0.145927  
      75A      0.155323    76A      0.160239    77A      0.164800  
      78A      0.168672    79A      0.170697    80A      0.176426  
      81A      0.191127    82A      0.193262    83A      0.195546  
      84A      0.201847    85A      0.211209    86A      0.227983  
      87A      0.230282    88A      0.233824    89A      0.235692  
      90A      0.243287    91A      0.244438    92A      0.244539  
      93A      0.252715    94A      0.257046    95A      0.260811  
      96A      0.263722    97A      0.267916    98A      0.268516  
      99A      0.271262   100A      0.274100   101A      0.279163  
     102A      0.295780   103A      0.297353   104A      0.300667  
     105A      0.303902   106A      0.306744   107A      0.308204  
     108A      0.309586   109A      0.314810   110A      0.323221  
     111A      0.324602   112A      0.327493   113A      0.328846  
     114A      0.331841   115A      0.337794   116A      0.344624  
     117A      0.349167   118A      0.358536   119A      0.360197  
     120A      0.368364   121A      0.371456   122A      0.379236  
     123A      0.387592   124A      0.389765   125A      0.391627  
     126A      0.399514   127A      0.402881   128A      0.415220  
     129A      0.415653   130A      0.418337   131A      0.421345  
     132A      0.427433   133A      0.433193   134A      0.435208  
     135A      0.442328   136A      0.444131   137A      0.449256  
     138A      0.449711   139A      0.453280   140A      0.459073  
     141A      0.463435   142A      0.469324   143A      0.475183  
     144A      0.478154   145A      0.480876   146A      0.482800  
     147A      0.485799   148A      0.486648   149A      0.492079  
     150A      0.498002   151A      0.503166   152A      0.505095  
     153A      0.509379   154A      0.515649   155A      0.515825  
     156A      0.517793   157A      0.522858   158A      0.523084  
     159A      0.525064   160A      0.529466   161A      0.531902  
     162A      0.536657   163A      0.540868   164A      0.545738  
     165A      0.552615   166A      0.552655   167A      0.559975  
     168A      0.569321   169A      0.572654   170A      0.584131  
     171A      0.584247   172A      0.584600   173A      0.590848  
     174A      0.597529   175A      0.608206   176A      0.612688  
     177A      0.614353   178A      0.619912   179A      0.625895  
     180A      0.632782   181A      0.632985   182A      0.638640  
     183A      0.650745   184A      0.659240   185A      0.659976  
     186A      0.669278   187A      0.673095   188A      0.682633  
     189A      0.686815   190A      0.689408   191A      0.698408  
     192A      0.702991   193A      0.708568   194A      0.725864  
     195A      0.730133   196A      0.731488   197A      0.734508  
     198A      0.734717   199A      0.741555   200A      0.747339  
     201A      0.755658   202A      0.757498   203A      0.761729  
     204A      0.779627   205A      0.782940   206A      0.785120  
     207A      0.785347   208A      0.794826   209A      0.798229  
     210A      0.799651   211A      0.805278   212A      0.808722  
     213A      0.828840   214A      0.842554   215A      0.847121  
     216A      0.853019   217A      0.864645   218A      0.869283  
     219A      0.874083   220A      0.880537   221A      0.881601  
     222A      0.886031   223A      0.889515   224A      0.896837  
     225A      0.905559   226A      0.906341   227A      0.907724  
     228A      0.913295   229A      0.916998   230A      0.917115  
     231A      0.919780   232A      0.924569   233A      0.931573  
     234A      0.934684   235A      0.942411   236A      0.946658  
     237A      0.953471   238A      0.953842   239A      0.954787  
     240A      0.964252   241A      0.965778   242A      0.968729  
     243A      0.971857   244A      0.982520   245A      0.989516  
     246A      0.993346   247A      0.994482   248A      1.004733  
     249A      1.007935   250A      1.011379   251A      1.012699  
     252A      1.026899   253A      1.028940   254A      1.045974  
     255A      1.051746   256A      1.053222   257A      1.053996  
     258A      1.064746   259A      1.065782   260A      1.068847  
     261A      1.070438   262A      1.077403   263A      1.077441  
     264A      1.085663   265A      1.097216   266A      1.098779  
     267A      1.101065   268A      1.102292   269A      1.103269  
     270A      1.107004   271A      1.117132   272A      1.123353  
     273A      1.129781   274A      1.130564   275A      1.137234  
     276A      1.143185   277A      1.161430   278A      1.162173  
     279A      1.165955   280A      1.169363   281A      1.176579  
     282A      1.183035   283A      1.188660   284A      1.189751  
     285A      1.193137   286A      1.193548   287A      1.209966  
     288A      1.210834   289A      1.216377   290A      1.217067  
     291A      1.218428   292A      1.233263   293A      1.233602  
     294A      1.241266   295A      1.247443   296A      1.248696  
     297A      1.253307   298A      1.263035   299A      1.265514  
     300A      1.269157   301A      1.279418   302A      1.287109  
     303A      1.290518   304A      1.294774   305A      1.302730  
     306A      1.307691   307A      1.313431   308A      1.319424  
     309A      1.323098   310A      1.324818   311A      1.331054  
     312A      1.338298   313A      1.348016   314A      1.368726  
     315A      1.372111   316A      1.382725   317A      1.384562  
     318A      1.395458   319A      1.396992   320A      1.406187  
     321A      1.415875   322A      1.429687   323A      1.443908  
     324A      1.447883   325A      1.450213   326A      1.452316  
     327A      1.462766   328A      1.463314   329A      1.481202  
     330A      1.498428   331A      1.499135   332A      1.506318  
     333A      1.512589   334A      1.524557   335A      1.544830  
     336A      1.548475   337A      1.553992   338A      1.556064  
     339A      1.563017   340A      1.571120   341A      1.583199  
     342A      1.589002   343A      1.593484   344A      1.594786  
     345A      1.609327   346A      1.623149   347A      1.627305  
     348A      1.627441   349A      1.632768   350A      1.675850  
     351A      1.675895   352A      1.681647   353A      1.683287  
     354A      1.702102   355A      1.715377   356A      1.716824  
     357A      1.719606   358A      1.720341   359A      1.731334  
     360A      1.736671   361A      1.743411   362A      1.743875  
     363A      1.755721   364A      1.762869   365A      1.765627  
     366A      1.768852   367A      1.779518   368A      1.785734  
     369A      1.792530   370A      1.802272   371A      1.821394  
     372A      1.825058   373A      1.825280   374A      1.843156  
     375A      1.848726   376A      1.852601   377A      1.859530  
     378A      1.871628   379A      1.878692   380A      1.889822  
     381A      1.890971   382A      1.917392   383A      1.920397  
     384A      1.935750   385A      1.938262   386A      1.945133  
     387A      1.955553   388A      1.959659   389A      1.969200  
     390A      1.973700   391A      1.989838   392A      2.003754  
     393A      2.005677   394A      2.013618   395A      2.018250  
     396A      2.018900   397A      2.036144   398A      2.051963  
     399A      2.052487   400A      2.055544   401A      2.056907  
     402A      2.072190   403A      2.072707   404A      2.077273  
     405A      2.089659   406A      2.100054   407A      2.100232  
     408A      2.115512   409A      2.128609   410A      2.138152  
     411A      2.139800   412A      2.142649   413A      2.143253  
     414A      2.154261   415A      2.165666   416A      2.167282  
     417A      2.178577   418A      2.197818   419A      2.198436  
     420A      2.202483   421A      2.212785   422A      2.213167  
     423A      2.227424   424A      2.239386   425A      2.247226  
     426A      2.251204   427A      2.261074   428A      2.275502  
     429A      2.289353   430A      2.310862   431A      2.313134  
     432A      2.313440   433A      2.335211   434A      2.341655  
     435A      2.356643   436A      2.366353   437A      2.370808  
     438A      2.376285   439A      2.384078   440A      2.389801  
     441A      2.396715   442A      2.423951   443A      2.426837  
     444A      2.448926   445A      2.456542   446A      2.471222  
     447A      2.476365   448A      2.481555   449A      2.500941  
     450A      2.522758   451A      2.539006   452A      2.566582  
     453A      2.572672   454A      2.577775   455A      2.579502  
     456A      2.587754   457A      2.595974   458A      2.602498  
     459A      2.612616   460A      2.623021   461A      2.643450  
     462A      2.659840   463A      2.665139   464A      2.719094  
     465A      2.726282   466A      2.761878   467A      2.774800  
     468A      2.799781   469A      2.801741   470A      2.827435  
     471A      2.832597   472A      2.844245   473A      2.849598  
     474A      2.892272   475A      2.927872   476A      2.966082  
     477A      2.976142   478A      3.011928   479A      3.025823  
     480A      3.065395   481A      3.084568   482A      3.127171  
     483A      3.154954   484A      3.155347   485A      3.168648  
     486A      3.170800   487A      3.201524   488A      3.219941  
[...]
	 R(1,13)          =         2.039270	       1.079135
	 R(2,4)           =         2.622812	       1.387932
	 R(2,14)          =         2.039681	       1.079353
	 R(3,5)           =         2.622820	       1.387937
	 R(3,15)          =         2.039683	       1.079354
	 R(4,10)          =         2.631238	       1.392391
	 R(4,16)          =         2.040867	       1.079981
	 R(5,10)          =         2.631217	       1.392380
	 R(5,17)          =         2.040868	       1.079981
	 R(6,8)           =         2.620789	       1.386862
	 R(6,11)          =         2.625880	       1.389556
	 R(6,18)          =         2.040350	       1.079707
	 R(7,9)           =         2.620776	       1.386855
	 R(7,11)          =         2.625897	       1.389565
	 R(7,19)          =         2.040349	       1.079706
	 R(8,12)          =         2.522502	       1.334851
	 R(8,20)          =         2.042825	       1.081017
	 R(9,12)          =         2.522506	       1.334853
	 R(9,21)          =         2.042822	       1.081015
	 R(10,11)         =         2.779166	       1.470671
	 B(1,2,4)         =         2.095466	     120.061372
	 B(1,2,14)        =         2.096100	     120.097656
	 B(1,3,5)         =         2.095476	     120.061959
	 B(1,3,15)        =         2.096108	     120.098159
	 B(2,1,3)         =         2.091866	     119.855090
	 B(2,1,13)        =         2.095653	     120.072068
	 B(2,4,10)        =         2.101422	     120.402607
	 B(2,4,16)        =         2.099253	     120.278348
	 B(3,1,13)        =         2.095666	     120.072840
	 B(3,5,10)        =         2.101415	     120.402221
	 B(3,5,17)        =         2.099248	     120.278024
	 B(4,2,14)        =         2.091620	     119.840972
	 B(4,10,5)        =         2.080725	     119.216749
	 B(4,10,11)       =         2.101198	     120.389759
	 B(5,3,15)        =         2.091601	     119.839882
	 B(5,10,11)       =         2.101263	     120.393492
	 B(6,8,12)        =         2.157615	     123.622229
	 B(6,8,20)        =         2.097545	     120.180457
	 B(6,11,7)        =         2.047472	     117.311481
	 B(6,11,10)       =         2.117903	     121.346891
	 B(7,9,12)        =         2.157601	     123.621408
	 B(7,9,21)        =         2.097549	     120.180729
	 B(7,11,10)       =         2.117811	     121.341628
	 B(8,6,11)        =         2.082127	     119.297113
	 B(8,6,18)        =         2.101868	     120.428143
	 B(8,12,9)        =         2.039414	     116.849819
	 B(9,7,11)        =         2.082142	     119.297944
	 B(9,7,19)        =         2.101897	     120.429853
	 B(10,4,16)       =         2.082510	     119.319044
	 B(10,5,17)       =         2.082523	     119.319753
	 B(11,6,18)       =         2.099190	     120.274744
	 B(11,7,19)       =         2.099146	     120.272203
	 B(12,8,20)       =         2.028025	     116.197292
	 B(12,9,21)       =         2.028035	     116.197858
	 D(1,2,4,10)      =        -0.000117	      -0.006693
	 D(1,2,4,16)      =        -3.141514	    -179.995489
	 D(1,3,5,10)      =         0.000151	       0.008666
	 D(1,3,5,17)      =         3.141530	     179.996428
	 D(2,1,3,5)       =        -0.000162	      -0.009280
	 D(2,1,3,15)      =         3.141341	     179.985566
	 D(2,4,10,5)      =         0.000104	       0.005981
	 D(2,4,10,11)     =        -3.141518	    -179.995699
	 D(3,1,2,4)       =         0.000145	       0.008298
	 D(3,1,2,14)      =        -3.141333	    -179.985112
	 D(3,5,10,4)      =        -0.000122	      -0.006966
	 D(3,5,10,11)     =         3.141500	     179.994714
	 D(4,2,1,13)      =         3.141404	     179.989191
	 D(4,10,5,17)     =        -3.141503	    -179.994845
	 D(4,10,11,6)     =         1.570796	      89.999970
	 D(4,10,11,7)     =        -1.570756	     -89.997680
	 D(5,3,1,13)      =        -3.141421	    -179.990173
	 D(5,10,4,16)     =         3.141503	     179.994884
	 D(5,10,11,6)     =        -1.570827	     -90.001730
	 D(5,10,11,7)     =         1.570807	      90.000620
	 D(6,8,12,9)      =         0.000431	       0.024676
	 D(6,11,7,9)      =         0.000121	       0.006907
	 D(6,11,7,19)     =        -3.141460	    -179.992393
	 D(7,9,12,8)      =        -0.000065	      -0.003717
	 D(7,11,6,8)      =         0.000214	       0.012271
	 D(7,11,6,18)     =        -3.141383	    -179.987969
	 D(8,6,11,10)     =        -3.141339	    -179.985470
	 D(8,12,9,21)     =         3.141088	     179.971079
	 D(9,7,11,10)     =        -3.141512	    -179.995352
	 D(9,12,8,20)     =         3.141074	     179.970302
	 D(10,4,2,14)     =         3.141361	     179.986734
	 D(10,5,3,15)     =        -3.141352	    -179.986194
	 D(10,11,6,18)    =         0.000249	       0.014289
	 D(10,11,7,19)    =         0.000093	       0.005348
	 D(11,6,8,12)     =        -0.000515	      -0.029521
	 D(11,6,8,20)     =        -3.141123	    -179.973081
	 D(11,7,9,12)     =        -0.000207	      -0.011852
	 D(11,7,9,21)     =        -3.141343	    -179.985691
	 D(11,10,4,16)    =        -0.000119	      -0.006796
	 D(11,10,5,17)    =         0.000119	       0.006835
	 D(12,8,6,18)     =         3.141082	     179.970720
	 D(12,9,7,19)     =         3.141374	     179.987447
	 D(13,1,2,14)     =        -0.000074	      -0.004219
	 D(13,1,3,15)     =         0.000082	       0.004673
	 D(14,2,4,16)     =        -0.000036	      -0.002061
	 D(15,3,5,17)     =         0.000027	       0.001569
	 D(18,6,8,20)     =         0.000474	       0.027160
	 D(19,7,9,21)     =         0.000238	       0.013608

	Current energy   :      -478.5735451839

	Energy change for the previous step:
		Projected    :        -0.0000045610
		Actual       :        -0.0000037453

	Performing BFGS update.
	Previous computed or guess Hessian on step 1.
	Steps to be used in Hessian update: 3 2
	Adding user-defined constraint: Fragment 1; Coordinate 71:
		Value =     1.570796; Fixed value    =     1.570800
		Force =     0.000002; Force constant =     0.575000
	Removing off-diagonal coupling between coordinate 71 and others.
	Taking RFO optimization step.
	Going to follow RFO solution 1.
	Using RFO vector 1.
	Norm of target step-size    0.00327
	Projected energy change by RFO approximation:        -0.0000003668

	Back-transformation to cartesian coordinates...
	Could not converge backtransformation.
	Using first guess instead.

	--- Internal Coordinate Step in ANG or DEG, aJ/ANG or AJ/DEG ---
	 ---------------------------------------------------------------------------
	   Coordinate                Previous        Force       Change         New 
	   ----------                --------       ------       ------       ------
	    1 R(1,2)          =      1.388178    -0.000237    -0.000032     1.388146
	    2 R(1,3)          =      1.388172    -0.000231    -0.000032     1.388140
	    3 R(1,13)         =      1.079135    -0.000029     0.000006     1.079141
	    4 R(2,4)          =      1.387932    -0.000153    -0.000019     1.387913
	    5 R(2,14)         =      1.079353     0.000030     0.000018     1.079371
	    6 R(3,5)          =      1.387937    -0.000170    -0.000022     1.387915
	    7 R(3,15)         =      1.079354     0.000017     0.000016     1.079370
	    8 R(4,10)         =      1.392391     0.000166     0.000045     1.392437
	    9 R(4,16)         =      1.079981    -0.000217    -0.000028     1.079952
	   10 R(5,10)         =      1.392380     0.000228     0.000056     1.392436
	   11 R(5,17)         =      1.079981    -0.000220    -0.000030     1.079951
	   12 R(6,8)          =      1.386862     0.000120     0.000049     1.386911
	   13 R(6,11)         =      1.389556     0.000557     0.000084     1.389640
	   14 R(6,18)         =      1.079707    -0.000270    -0.000030     1.079676
	   15 R(7,9)          =      1.386855     0.000143     0.000053     1.386908
	   16 R(7,11)         =      1.389565     0.000532     0.000078     1.389643
	   17 R(7,19)         =      1.079706    -0.000267    -0.000029     1.079677
	   18 R(8,12)         =      1.334851     0.000215    -0.000019     1.334831
	   19 R(8,20)         =      1.081017     0.000247     0.000046     1.081062
	   20 R(9,12)         =      1.334853     0.000213    -0.000019     1.334834
	   21 R(9,21)         =      1.081015     0.000254     0.000047     1.081062
	   22 R(10,11)        =      1.470671    -0.000702    -0.000169     1.470502
	   23 B(1,2,4)        =    120.061372    -0.000001    -0.005632   120.055740
	   24 B(1,2,14)       =    120.097656    -0.000002    -0.010732   120.086923
	   25 B(1,3,5)        =    120.061959    -0.000002    -0.006433   120.055526
	   26 B(1,3,15)       =    120.098159    -0.000002    -0.011023   120.087135
	   27 B(2,1,3)        =    119.855090     0.000003     0.011650   119.866740
	   28 B(2,1,13)       =    120.072068    -0.000002    -0.005446   120.066622
	   29 B(2,4,10)       =    120.402607     0.000000     0.000339   120.402947
	   30 B(2,4,16)       =    120.278348     0.000003     0.020039   120.298386
	   31 B(3,1,13)       =    120.072840    -0.000002    -0.006202   120.066637
	   32 B(3,5,10)       =    120.402221     0.000001     0.000991   120.403212
	   33 B(3,5,17)       =    120.278024     0.000003     0.019719   120.297743
	   34 B(4,2,14)       =    119.840972     0.000003     0.016365   119.857337
	   35 B(4,10,5)       =    119.216749    -0.000001    -0.000915   119.215834
	   36 B(4,10,11)      =    120.389759     0.000001     0.001553   120.391312
	   37 B(5,3,15)       =    119.839882     0.000004     0.017457   119.857338
	   38 B(5,10,11)      =    120.393492     0.000000    -0.000638   120.392854
	   39 B(6,8,12)       =    123.622229    -0.000001    -0.000055   123.622174
	   40 B(6,8,20)       =    120.180457    -0.000002    -0.017148   120.163309
	   41 B(6,11,7)       =    117.311481     0.000001     0.000595   117.312076
	   42 B(6,11,10)      =    121.346891    -0.000001    -0.002011   121.344880
	   43 B(7,9,12)       =    123.621408    -0.000001     0.000336   123.621745
	   44 B(7,9,21)       =    120.180729    -0.000002    -0.016885   120.163844
	   45 B(7,11,10)      =    121.341628     0.000000     0.001416   121.343043
	   46 B(8,6,11)       =    119.297113    -0.000001    -0.002538   119.294575
	   47 B(8,6,18)       =    120.428143    -0.000000    -0.000393   120.427751
	   48 B(8,12,9)       =    116.849819     0.000003     0.004618   116.854437
	   49 B(9,7,11)       =    119.297944    -0.000001    -0.002957   119.294987
	   50 B(9,7,19)       =    120.429853    -0.000001    -0.002047   120.427806
	   51 B(10,4,16)      =    119.319044    -0.000003    -0.020377   119.298667
	   52 B(10,5,17)      =    119.319753    -0.000003    -0.020709   119.299044
	   53 B(11,6,18)      =    120.274744     0.000001     0.002931   120.277674
	   54 B(11,7,19)      =    120.272203     0.000002     0.005004   120.277207
	   55 B(12,8,20)      =    116.197292     0.000003     0.017205   116.214497
	   56 B(12,9,21)      =    116.197858     0.000003     0.016548   116.214406
	   57 D(1,2,4,10)     =     -0.006693     0.000000     0.010752     0.004059
	   58 D(1,2,4,16)     =   -179.995489    -0.000000    -0.005330  -180.000818
	   59 D(1,3,5,10)     =      0.008666    -0.000000    -0.013410    -0.004744
	   60 D(1,3,5,17)     =    179.996428     0.000000     0.004423   180.000851
	   61 D(2,1,3,5)      =     -0.009280     0.000000     0.013908     0.004628
	   62 D(2,1,3,15)     =    179.985566     0.000000     0.019472   180.005038
	   63 D(2,4,10,5)     =      0.005981    -0.000000    -0.010096    -0.004115
	   64 D(2,4,10,11)    =   -179.995699    -0.000000    -0.009461  -180.005160
	   65 D(3,1,2,4)      =      0.008298    -0.000000    -0.012585    -0.004287
	   66 D(3,1,2,14)     =   -179.985112    -0.000000    -0.019515  -180.004628
	   67 D(3,5,10,4)     =     -0.006966     0.000000     0.011424     0.004457
	   68 D(3,5,10,11)    =    179.994714     0.000000     0.010788   180.005502
	   69 D(4,2,1,13)     =    179.989191     0.000000     0.012286   180.001477
	   70 D(4,10,5,17)    =   -179.994845    -0.000000    -0.006237  -180.001082
	   71 D(4,10,11,6)    =     89.999970     0.000000     0.000204    90.000174
	   72 D(4,10,11,7)    =    -89.997680     0.000000    -0.002199   -89.999879
	   73 D(5,3,1,13)     =   -179.990173    -0.000000    -0.010963  -180.001136
	   74 D(5,10,4,16)    =    179.994884     0.000000     0.005116   180.000000
	   75 D(5,10,11,6)    =    -90.001730     0.000000     0.000847   -90.000883
	   76 D(5,10,11,7)    =     90.000620    -0.000000    -0.001556    89.999063
	   77 D(6,8,12,9)     =      0.024676    -0.000000    -0.048333    -0.023656
	   78 D(6,11,7,9)     =      0.006907    -0.000000    -0.013867    -0.006961
	   79 D(6,11,7,19)    =   -179.992393    -0.000000    -0.014499  -180.006893
	   80 D(7,9,12,8)     =     -0.003717     0.000000     0.005182     0.001465
	   81 D(7,11,6,8)     =      0.012271    -0.000000    -0.025613    -0.013342
	   82 D(7,11,6,18)    =   -179.987969    -0.000000    -0.020713  -180.008682
	   83 D(8,6,11,10)    =   -179.985470    -0.000000    -0.027923  -180.013393
	   84 D(8,12,9,21)    =    179.971079     0.000000     0.057564   180.028643
	   85 D(9,7,11,10)    =   -179.995352    -0.000000    -0.011558  -180.006909
	   86 D(9,12,8,20)    =    179.970302     0.000000     0.057899   180.028201
	   87 D(10,4,2,14)    =    179.986734     0.000000     0.017665   180.004399
	   88 D(10,5,3,15)    =   -179.986194    -0.000000    -0.018959  -180.005153
	   89 D(10,11,6,18)   =      0.014289    -0.000000    -0.023023    -0.008733
	   90 D(10,11,7,19)   =      0.005348    -0.000000    -0.012190    -0.006841
	   91 D(11,6,8,12)    =     -0.029521     0.000000     0.059663     0.030142
	   92 D(11,6,8,20)    =   -179.973081    -0.000000    -0.050586  -180.023667
	   93 D(11,7,9,12)    =     -0.011852     0.000000     0.025511     0.013659
	   94 D(11,7,9,21)    =   -179.985691    -0.000000    -0.028851  -180.014542
	   95 D(11,10,4,16)   =     -0.006796     0.000000     0.006796     0.000000
	   96 D(11,10,5,17)   =      0.006835    -0.000000    -0.006835     0.000000
	   97 D(12,8,6,18)    =    179.970720     0.000000     0.054755   180.025475
	   98 D(12,9,7,19)    =    179.987447     0.000000     0.026144   180.013591
	   99 D(13,1,2,14)    =     -0.004219     0.000000     0.005355     0.001136
	  100 D(13,1,3,15)    =      0.004673    -0.000000    -0.004673     0.000000
	  101 D(14,2,4,16)    =     -0.002061     0.000000     0.002061     0.000000
	  102 D(15,3,5,17)    =      0.001569    -0.000000    -0.001569     0.000000
	  103 D(18,6,8,20)    =      0.027160    -0.000000    -0.055494    -0.028334
	  104 D(19,7,9,21)    =      0.013608    -0.000000    -0.028218    -0.014610
	 ---------------------------------------------------------------------------
	Successfully symmetrized geometry.
	 Forces used to impose fixed constraints are not included.
	  Forces zeroed: 71 

  ==> Convergence Check <==

  Measures of convergence in internal coordinates in au.
  Criteria marked as inactive (o), active & met (*), and active & unmet ( ).
  ---------------------------------------------------------------------------------------------
   Step     Total Energy     Delta E     MAX Force     RMS Force      MAX Disp      RMS Disp   
  ---------------------------------------------------------------------------------------------
    Convergence Criteria    1.00e-06 *    3.00e-04 *             o    1.20e-03 *             o
  ---------------------------------------------------------------------------------------------
      4    -478.57354518   -3.75e-06      8.53e-05 *    2.31e-05 o    1.04e-03 *    3.20e-04 o  ~
  ---------------------------------------------------------------------------------------------


  **** Optimization is complete! (in 4 steps) ****

  ==> Optimization Summary <==

  Measures of convergence in internal coordinates in au.
  --------------------------------------------------------------------------------------------------------------- ~
   Step         Total Energy             Delta E       MAX Force       RMS Force        MAX Disp        RMS Disp  ~
  --------------------------------------------------------------------------------------------------------------- ~
      1    -478.571385902091   -478.571385902091      0.01915040      0.00381889      0.04399977      0.00980945  ~
      2    -478.573445519501     -0.002059617410      0.00236528      0.00061490      0.01195592      0.00310189  ~
      3    -478.573541438669     -0.000095919168      0.00063211      0.00014289      0.00180370      0.00064645  ~
      4    -478.573545183934     -0.000003745265      0.00008526      0.00002310      0.00104132      0.00032034  ~
  --------------------------------------------------------------------------------------------------------------- ~

	Writing optimization data to binary file.
	Final energy is   -478.5735451839336
	Final (previous) structure:
	Cartesian Geometry (in Angstrom)
	    C     0.1080540008   0.0537805300  -3.5453959539
	    C    -0.9644769084   0.6239890100  -2.8734000595
	    C     1.1381749920  -0.5376226600  -2.8269856003
	    C    -1.0064628191   0.6028640189  -1.4862639874
	    C     1.0957414312  -0.5584769850  -1.4398543925
	    C    -0.6167489952  -1.0604453133   1.3999824846
	    C     0.5294057732   1.0169474150   1.4663606467
	    C    -0.6353048546  -1.0379051051   2.7865368814
	    C     0.4633681654   0.9525894055   2.8501468414
	    C     0.0231855289   0.0114793978  -0.7590488465
	    C    -0.0216378953  -0.0108288029   0.7107698068
	    N    -0.1071752989  -0.0532773048   3.5168884980
	    H     0.1407898387   0.0699538988  -4.6239132650
	    H    -1.7676668383   1.0846562175  -3.4280834473
	    H     1.9738689644  -0.9823500150  -3.3454816099
	    H    -1.8392183246   1.0453654355  -0.9598908511
	    H     1.8952361332  -1.0176955336  -0.8774625099
	    H    -1.0596455335  -1.8841973496   0.8604999341
	    H     1.0036468898   1.8561567681   0.9799574095
	    H    -1.0940879173  -1.8472038765   3.3371279860
	    H     0.8871830663   1.7443692118   3.4518598943
	Saving final (previous) structure.
			--------------------------
			 OPTKING Finished Execution 
			--------------------------

    Final optimized geometry and variables:
    Molecular point group: c1
    Full point group: C1

    Geometry (in Angstrom), charge = 0, multiplicity = 1:

    C            0.108054000838     0.053780529951    -3.545395953876
    C           -0.964476908376     0.623989010050    -2.873400059484
    C            1.138174992008    -0.537622660012    -2.826985600263
    C           -1.006462819143     0.602864018898    -1.486263987357
    C            1.095741431196    -0.558476985010    -1.439854392494
    C           -0.616748995210    -1.060445313324     1.399982484647
    C            0.529405773172     1.016947414979     1.466360646697
    C           -0.635304854578    -1.037905105096     2.786536881445
    C            0.463368165432     0.952589405528     2.850146841391
    C            0.023185528876     0.011479397754    -0.759048846536
    C           -0.021637895267    -0.010828802945     0.710769806825
    N           -0.107175298910    -0.053277304805     3.516888497996
    H            0.140789838700     0.069953898751    -4.623913264977
    H           -1.767666838340     1.084656217544    -3.428083447313
    H            1.973868964445    -0.982350014991    -3.345481609925
    H           -1.839218324594     1.045365435473    -0.959890851070
    H            1.895236133170    -1.017695533602    -0.877462509918
    H           -1.059645533535    -1.884197349564     0.860499934142
    H            1.003646889766     1.856156768073     0.979957409482
    H           -1.094087917270    -1.847203876475     3.337127986032
    H            0.887183066279     1.744369211791     3.451859894342

	Cleaning optimization helper files.

*** Psi4 exiting successfully. Buy a developer a beer!
