
    -----------------------------------------------------------------------
          Psi4: An Open-Source Ab Initio Electronic Structure Package
                               Psi4 1.1 release

                         Git: Rev {HEAD} add49b9 


    R. M. Parrish, L. A. Burns, D. G. A. Smith, A. C. Simmonett,
    A. E. DePrince III, E. G. Hohenstein, U. Bozkaya, A. Yu. Sokolov,
    R. Di Remigio, R. M. Richard, J. F. Gonthier, A. M. James,
    H. R. McAlexander, A. Kumar, M. Saitow, X. Wang, B. P. Pritchard,
    P. Verma, H. F. Schaefer III, K. Patkowski, R. A. King, E. F. Valeev,
    F. A. Evangelista, J. M. Turney, T. D. Crawford, and C. D. Sherrill,
    J. Chem. Theory Comput. in press (2017).
    (doi: 10.1021/acs.jctc.7b00174)

    -----------------------------------------------------------------------


    Psi4 started on: Sunday, 12 November 2017 03:35AM

    Process ID:  30745
    PSIDATADIR: /cbio/jclab/home/chayas/anaconda/envs/py35/share/psi4
    Memory:     500.0 MiB
    Threads:    8
    
  ==> Input File <==

--------------------------------------------------------------------------

memory 5 Gb

molecule phepyrOH_anion {
  symmetry C1
  -1 1 
  C      1.885   -1.036   -0.112
  C      2.878   -1.652   2.002
  C      0.807   -0.463   0.561
  C      1.800   -1.079   2.676
  C      5.074   -2.819   0.626
  C      4.084   -2.208   -1.480
  C      6.121   -3.376   -0.090
  C      5.177   -2.792   -2.101
  C      2.921   -1.631   0.608
  C      4.040   -2.226   -0.090
  C      0.764   -0.484   1.955
  N      6.200   -3.378   -1.440
  O      -0.227   0.042   2.574
  H      1.904   -1.011   -1.199
  H      3.678   -2.112   2.577
  H      0.011   -0.006   -0.025
  H      1.791   -1.108   3.764
  H      5.074   -2.854   1.710
  H      3.296   -1.753   -2.071
  H      6.952   -3.853   0.421
  H      5.259   -2.803   -3.183
  units Angstrom
}

dih_string = "1 9 10 5 180.001"
set optking fixed_dihedral = $dih_string

optimize('MP2/aug-cc-PVTZ')
--------------------------------------------------------------------------

  Memory set to   4.657 GiB by Python driver.
gradient() will perform analytic gradient computation.

*** tstart() called on gpu-2-14.local
*** at Sun Nov 12 03:35:36 2017

    SCF Algorithm Type (re)set to DF.

*** tstart() called on gpu-2-14.local
*** at Sun Nov 12 03:35:36 2017

   => Loading Basis Set <=

    Name: AUG-CC-PVTZ
    Role: ORBITAL
    Keyword: BASIS
    atoms 1-11  entry C          line   221 file /cbio/jclab/home/chayas/anaconda/envs/py35/share/psi4/basis/aug-cc-pvtz.gbs 
    atoms 12    entry N          line   267 file /cbio/jclab/home/chayas/anaconda/envs/py35/share/psi4/basis/aug-cc-pvtz.gbs 
    atoms 13    entry O          line   313 file /cbio/jclab/home/chayas/anaconda/envs/py35/share/psi4/basis/aug-cc-pvtz.gbs 
    atoms 14-21 entry H          line    34 file /cbio/jclab/home/chayas/anaconda/envs/py35/share/psi4/basis/aug-cc-pvtz.gbs 


         ---------------------------------------------------------
                                   SCF
            by Justin Turney, Rob Parrish, and Andy Simmonett
                              RHF Reference
                        8 Threads,   4768 MiB Core
         ---------------------------------------------------------

  ==> Geometry <==

    Molecular point group: c1
    Full point group: C1

    Geometry (in Angstrom), charge = -1, multiplicity = 1:

       Center              X                  Y                   Z               Mass       
    ------------   -----------------  -----------------  -----------------  -----------------
           C         -1.278484519095     0.724807060247    -0.568755367537    12.000000000000
           C         -0.285484519095     0.108807060247     1.545244632463    12.000000000000
           C         -2.356484519095     1.297807060247     0.104244632463    12.000000000000
           C         -1.363484519095     0.681807060247     2.219244632463    12.000000000000
           C          1.910515480905    -1.058192939753     0.169244632463    12.000000000000
           C          0.920515480905    -0.447192939753    -1.936755367537    12.000000000000
           C          2.957515480905    -1.615192939753    -0.546755367537    12.000000000000
           C          2.013515480905    -1.031192939753    -2.557755367537    12.000000000000
           C         -0.242484519095     0.129807060247     0.151244632463    12.000000000000
           C          0.876515480905    -0.465192939753    -0.546755367537    12.000000000000
           C         -2.399484519095     1.276807060247     1.498244632463    12.000000000000
           N          3.036515480905    -1.617192939753    -1.896755367537    14.003074004780
           O         -3.390484519095     1.802807060247     2.117244632463    15.994914619560
           H         -1.259484519095     0.749807060247    -1.655755367537     1.007825032070
           H          0.514515480905    -0.351192939753     2.120244632463     1.007825032070
           H         -3.152484519095     1.754807060247    -0.481755367537     1.007825032070
           H         -1.372484519095     0.652807060247     3.307244632463     1.007825032070
           H          1.910515480905    -1.093192939753     1.253244632463     1.007825032070
           H          0.132515480905     0.007807060247    -2.527755367537     1.007825032070
           H          3.788515480905    -2.092192939753    -0.035755367537     1.007825032070
           H          2.095515480905    -1.042192939753    -3.639755367537     1.007825032070

  Running in c1 symmetry.

  Rotational constants: A =      0.09733  B =      0.01407  C =      0.01229 [cm^-1]
  Rotational constants: A =   2917.77909  B =    421.73232  C =    368.47365 [MHz]
  Nuclear repulsion =  687.544987893871507

  Charge       = -1
  Multiplicity = 1
  Electrons    = 90
  Nalpha       = 45
  Nbeta        = 45

  ==> Algorithm <==

  SCF Algorithm Type is DF.
  DIIS enabled.
  MOM disabled.
  Fractional occupation disabled.
  Guess Type is SAD.
  Energy threshold   = 1.00e-10
  Density threshold  = 1.00e-10
  Integral threshold = 0.00e+00

  ==> Primary Basis <==

  Basis Set: AUG-CC-PVTZ
    Blend: AUG-CC-PVTZ
    Number of shells: 254
    Number of basis function: 782
    Number of Cartesian functions: 915
    Spherical Harmonics?: true
    Max angular momentum: 3

   => Loading Basis Set <=

    Name: (AUG-CC-PVTZ AUX)
    Role: JKFIT
    Keyword: DF_BASIS_SCF
    atoms 1-11  entry C          line   161 file /cbio/jclab/home/chayas/anaconda/envs/py35/share/psi4/basis/aug-cc-pvtz-jkfit.gbs 
    atoms 12    entry N          line   223 file /cbio/jclab/home/chayas/anaconda/envs/py35/share/psi4/basis/aug-cc-pvtz-jkfit.gbs 
    atoms 13    entry O          line   285 file /cbio/jclab/home/chayas/anaconda/envs/py35/share/psi4/basis/aug-cc-pvtz-jkfit.gbs 
    atoms 14-21 entry H          line    69 file /cbio/jclab/home/chayas/anaconda/envs/py35/share/psi4/basis/aug-cc-pvtz-jkfit.gbs 

  ==> Pre-Iterations <==

   -------------------------------------------------------
    Irrep   Nso     Nmo     Nalpha   Nbeta   Ndocc  Nsocc
   -------------------------------------------------------
     A        782     782       0       0       0       0
   -------------------------------------------------------
    Total     782     782      45      45      45       0
   -------------------------------------------------------

  ==> Integral Setup <==

  ==> DFJK: Density-Fitted J/K Matrices <==

    J tasked:                  Yes
    K tasked:                  Yes
    wK tasked:                  No
    OpenMP threads:              8
    Integrals threads:           8
    Memory (MB):              3576
    Algorithm:                Disk
    Integral Cache:           NONE
    Schwarz Cutoff:          1E-12
    Fitting Condition:       1E-12

   => Auxiliary Basis Set <=

  Basis Set: (AUG-CC-PVTZ AUX)
    Blend: AUG-CC-PVTZ-JKFIT
    Number of shells: 502
    Number of basis function: 1720
    Number of Cartesian functions: 2143
    Spherical Harmonics?: true
    Max angular momentum: 4

  Minimum eigenvalue in the overlap matrix is 3.1027329742E-07.
  Using Symmetric Orthogonalization.

  SCF Guess: Superposition of Atomic Densities via on-the-fly atomic UHF.

  ==> Iterations <==

                           Total Energy        Delta E     RMS |[F,P]|

   @DF-RHF iter   0:  -559.71754825614119   -5.59718e+02   1.91396e-02 
   @DF-RHF iter   1:  -550.32764096653477    9.38991e+00   2.07676e-03 
   @DF-RHF iter   2:  -550.62863928943693   -3.00998e-01   9.95601e-04 DIIS
   @DF-RHF iter   3:  -550.69376905483750   -6.51298e-02   4.66952e-04 DIIS
   @DF-RHF iter   4:  -550.71027889367440   -1.65098e-02   1.07125e-04 DIIS
   @DF-RHF iter   5:  -550.71163778773689   -1.35889e-03   4.17558e-05 DIIS
   @DF-RHF iter   6:  -550.71195846486762   -3.20677e-04   1.90284e-05 DIIS
   @DF-RHF iter   7:  -550.71206185127471   -1.03386e-04   8.22640e-06 DIIS
   @DF-RHF iter   8:  -550.71208824685425   -2.63956e-05   3.86721e-06 DIIS
   @DF-RHF iter   9:  -550.71209519604940   -6.94920e-06   2.45824e-06 DIIS
   @DF-RHF iter  10:  -550.71209652657546   -1.33053e-06   1.11456e-06 DIIS
   @DF-RHF iter  11:  -550.71209678205469   -2.55479e-07   2.39537e-07 DIIS
   @DF-RHF iter  12:  -550.71209681563744   -3.35828e-08   1.04833e-07 DIIS
   @DF-RHF iter  13:  -550.71209682024403   -4.60659e-09   5.68860e-08 DIIS
   @DF-RHF iter  14:  -550.71209682128392   -1.03989e-09   2.21639e-08 DIIS
   @DF-RHF iter  15:  -550.71209682137885   -9.49285e-11   7.86945e-09 DIIS
   @DF-RHF iter  16:  -550.71209682140238   -2.35332e-11   3.40357e-09 DIIS
   @DF-RHF iter  17:  -550.71209682142103   -1.86446e-11   1.30352e-09 DIIS
   @DF-RHF iter  18:  -550.71209682140488    1.61435e-11   4.61012e-10 DIIS
   @DF-RHF iter  19:  -550.71209682141114   -6.25278e-12   2.68045e-10 DIIS
   @DF-RHF iter  20:  -550.71209682140193    9.20863e-12   9.67083e-11 DIIS

  ==> Post-Iterations <==

    Orbital Energies (a.u.)
    -----------------------

    Doubly Occupied:                                                      

       1A    -20.303478     2A    -15.442331     3A    -11.164398  
       4A    -11.164365     5A    -11.142534     6A    -11.120604  
       7A    -11.113709     8A    -11.113657     9A    -11.102834  
      10A    -11.102795    11A    -11.076436    12A    -11.064717  
      13A    -11.064695    14A     -1.134448    15A     -1.133340  
      16A     -1.020646    17A     -0.956899    18A     -0.920576  
      19A     -0.871350    20A     -0.838736    21A     -0.747820  
      22A     -0.731861    23A     -0.679743    24A     -0.649422  
      25A     -0.600355    26A     -0.547981    27A     -0.546841  
      28A     -0.498702    29A     -0.493240    30A     -0.480732  
      31A     -0.480710    32A     -0.440876    33A     -0.433221  
      34A     -0.409736    35A     -0.407676    36A     -0.383661  
      37A     -0.354183    38A     -0.353868    39A     -0.318534  
      40A     -0.303132    41A     -0.242124    42A     -0.240779  
      43A     -0.219906    44A     -0.201077    45A     -0.106727  

    Virtual:                                                              

      46A      0.098920    47A      0.099737    48A      0.115706  
      49A      0.115859    50A      0.128041    51A      0.134433  
      52A      0.149170    53A      0.155078    54A      0.158546  
      55A      0.166382    56A      0.177900    57A      0.183303  
      58A      0.184869    59A      0.186837    60A      0.192050  
      61A      0.199638    62A      0.203901    63A      0.207847  
      64A      0.208666    65A      0.212593    66A      0.213949  
      67A      0.219223    68A      0.224145    69A      0.224434  
      70A      0.227059    71A      0.234359    72A      0.236392  
      73A      0.240072    74A      0.245702    75A      0.246089  
      76A      0.254492    77A      0.262201    78A      0.262406  
      79A      0.263594    80A      0.272591    81A      0.272713  
      82A      0.273384    83A      0.281127    84A      0.295417  
      85A      0.298530    86A      0.299729    87A      0.305176  
      88A      0.311206    89A      0.314384    90A      0.321391  
      91A      0.331504    92A      0.333077    93A      0.338059  
      94A      0.338264    95A      0.342447    96A      0.349984  
      97A      0.361419    98A      0.363427    99A      0.370241  
     100A      0.377001   101A      0.378726   102A      0.380665  
     103A      0.386851   104A      0.388428   105A      0.389598  
     106A      0.391110   107A      0.399931   108A      0.401617  
     109A      0.407830   110A      0.411743   111A      0.422624  
     112A      0.424546   113A      0.430813   114A      0.431863  
     115A      0.434007   116A      0.441126   117A      0.450585  
     118A      0.456941   119A      0.459348   120A      0.460672  
     121A      0.474394   122A      0.475129   123A      0.483348  
     124A      0.489005   125A      0.492750   126A      0.494796  
     127A      0.510436   128A      0.515908   129A      0.525330  
     130A      0.526141   131A      0.526549   132A      0.533356  
     133A      0.534701   134A      0.537649   135A      0.541041  
     136A      0.549901   137A      0.552446   138A      0.560867  
     139A      0.562675   140A      0.563784   141A      0.569173  
     142A      0.573226   143A      0.574277   144A      0.576653  
     145A      0.578844   146A      0.585120   147A      0.587241  
     148A      0.595097   149A      0.602363   150A      0.606636  
     151A      0.607280   152A      0.611208   153A      0.613135  
     154A      0.613531   155A      0.615028   156A      0.620921  
     157A      0.622284   158A      0.631864   159A      0.636017  
     160A      0.646476   161A      0.651645   162A      0.653448  
     163A      0.657111   164A      0.660164   165A      0.660997  
     166A      0.664584   167A      0.670767   168A      0.672100  
     169A      0.681897   170A      0.682064   171A      0.693611  
     172A      0.696200   173A      0.706615   174A      0.710792  
     175A      0.711174   176A      0.715110   177A      0.727235  
     178A      0.727955   179A      0.737211   180A      0.753308  
     181A      0.755780   182A      0.767473   183A      0.772865  
     184A      0.774496   185A      0.784519   186A      0.789546  
     187A      0.791635   188A      0.792689   189A      0.801704  
     190A      0.804802   191A      0.809141   192A      0.811679  
     193A      0.819743   194A      0.825502   195A      0.831318  
     196A      0.841418   197A      0.849059   198A      0.854334  
     199A      0.865395   200A      0.866541   201A      0.866864  
     202A      0.880043   203A      0.881553   204A      0.883555  
     205A      0.892446   206A      0.907190   207A      0.909920  
     208A      0.910739   209A      0.916118   210A      0.927463  
     211A      0.940174   212A      0.946905   213A      0.950348  
     214A      0.953902   215A      0.960966   216A      0.963277  
     217A      0.973034   218A      0.978419   219A      0.990867  
     220A      0.992166   221A      0.995000   222A      1.000836  
     223A      1.006142   224A      1.006524   225A      1.012600  
     226A      1.015856   227A      1.019418   228A      1.021465  
     229A      1.029235   230A      1.031791   231A      1.047672  
     232A      1.049954   233A      1.050364   234A      1.054363  
     235A      1.063331   236A      1.064835   237A      1.066907  
     238A      1.067613   239A      1.073786   240A      1.080495  
     241A      1.082608   242A      1.091183   243A      1.092289  
     244A      1.092919   245A      1.096546   246A      1.111488  
     247A      1.111789   248A      1.120607   249A      1.122046  
     250A      1.122148   251A      1.129011   252A      1.129581  
     253A      1.130769   254A      1.134299   255A      1.139772  
     256A      1.141375   257A      1.142615   258A      1.151327  
     259A      1.164430   260A      1.165005   261A      1.167065  
     262A      1.175881   263A      1.177857   264A      1.183171  
     265A      1.185838   266A      1.198282   267A      1.201645  
     268A      1.206915   269A      1.213764   270A      1.220356  
     271A      1.230881   272A      1.235076   273A      1.236136  
     274A      1.237127   275A      1.244493   276A      1.255789  
     277A      1.259729   278A      1.259853   279A      1.279585  
     280A      1.282662   281A      1.288613   282A      1.293267  
     283A      1.296115   284A      1.298619   285A      1.305084  
     286A      1.307943   287A      1.312411   288A      1.314993  
     289A      1.316277   290A      1.317181   291A      1.333238  
     292A      1.348336   293A      1.351587   294A      1.352820  
     295A      1.358442   296A      1.364649   297A      1.365809  
     298A      1.370401   299A      1.371731   300A      1.372288  
     301A      1.389671   302A      1.398629   303A      1.402307  
     304A      1.405323   305A      1.405765   306A      1.423860  
     307A      1.431224   308A      1.431622   309A      1.436697  
     310A      1.440531   311A      1.445116   312A      1.451310  
     313A      1.452487   314A      1.470300   315A      1.474482  
     316A      1.486918   317A      1.493144   318A      1.501762  
     319A      1.503095   320A      1.510691   321A      1.530947  
     322A      1.535124   323A      1.541075   324A      1.550936  
     325A      1.555394   326A      1.558985   327A      1.567488  
     328A      1.581106   329A      1.588266   330A      1.601853  
     331A      1.616336   332A      1.625499   333A      1.626353  
     334A      1.628124   335A      1.633353   336A      1.650815  
     337A      1.664316   338A      1.667177   339A      1.667971  
     340A      1.683733   341A      1.686092   342A      1.709799  
     343A      1.710875   344A      1.721462   345A      1.725087  
     346A      1.738516   347A      1.750707   348A      1.776672  
     349A      1.777843   350A      1.785604   351A      1.790049  
     352A      1.792897   353A      1.796739   354A      1.797090  
     355A      1.802100   356A      1.819114   357A      1.822794  
     358A      1.831892   359A      1.836015   360A      1.839654  
     361A      1.843878   362A      1.853879   363A      1.860365  
     364A      1.862374   365A      1.865939   366A      1.881210  
     367A      1.900530   368A      1.903856   369A      1.915521  
     370A      1.916468   371A      1.930556   372A      1.947136  
     373A      1.953606   374A      1.961508   375A      1.961594  
     376A      1.975536   377A      1.979733   378A      1.996229  
     379A      2.002286   380A      2.008083   381A      2.012406  
     382A      2.033137   383A      2.039062   384A      2.055819  
     385A      2.065774   386A      2.070327   387A      2.076873  
     388A      2.092340   389A      2.105417   390A      2.107411  
     391A      2.108620   392A      2.121864   393A      2.132119  
     394A      2.133201   395A      2.136060   396A      2.137110  
     397A      2.137565   398A      2.144105   399A      2.173292  
     400A      2.173750   401A      2.175227   402A      2.178657  
     403A      2.186044   404A      2.189993   405A      2.192360  
     406A      2.197703   407A      2.214680   408A      2.215547  
     409A      2.217958   410A      2.236308   411A      2.252376  
     412A      2.256222   413A      2.266374   414A      2.282299  
     415A      2.283549   416A      2.288288   417A      2.297134  
     418A      2.298900   419A      2.309877   420A      2.314237  
     421A      2.320568   422A      2.324126   423A      2.357512  
     424A      2.362777   425A      2.363104   426A      2.366129  
     427A      2.378956   428A      2.382073   429A      2.394187  
     430A      2.396465   431A      2.424080   432A      2.425855  
     433A      2.430697   434A      2.431654   435A      2.437610  
     436A      2.445360   437A      2.471546   438A      2.475514  
     439A      2.481127   440A      2.482575   441A      2.510591  
     442A      2.514884   443A      2.536174   444A      2.546058  
     445A      2.570293   446A      2.573104   447A      2.577872  
     448A      2.590976   449A      2.594462   450A      2.603704  
     451A      2.615403   452A      2.624928   453A      2.627595  
     454A      2.635458   455A      2.643736   456A      2.654172  
     457A      2.657580   458A      2.684322   459A      2.703102  
     460A      2.720255   461A      2.736695   462A      2.744990  
     463A      2.746306   464A      2.769799   465A      2.772980  
     466A      2.801299   467A      2.805178   468A      2.824153  
     469A      2.853236   470A      2.856467   471A      2.859146  
     472A      2.916083   473A      2.921199   474A      2.921776  
     475A      2.936082   476A      2.952862   477A      2.955627  
     478A      2.957216   479A      2.959436   480A      2.984697  
     481A      3.024340   482A      3.057519   483A      3.065645  
     484A      3.080651   485A      3.121730   486A      3.143465  
     487A      3.172475   488A      3.172530   489A      3.180956  
     490A      3.201084   491A      3.248563   492A      3.253466  
     493A      3.262667   494A      3.279848   495A      3.290069  
     496A      3.302864   497A      3.310598   498A      3.316018  
     499A      3.347328   500A      3.353520   501A      3.371706  
     502A      3.389602   503A      3.415490   504A      3.425147  
     505A      3.436738   506A      3.462546   507A      3.478851  
     508A      3.480158   509A      3.486230   510A      3.498459  
     511A      3.514837   512A      3.517660   513A      3.521461  
     514A      3.548934   515A      3.553098   516A      3.557289  
     517A      3.566534   518A      3.569412   519A      3.575695  
     520A      3.582241   521A      3.619426   522A      3.624307  
     523A      3.630870   524A      3.639348   525A      3.639713  
     526A      3.649657   527A      3.652525   528A      3.663393  
     529A      3.679611   530A      3.682006   531A      3.696750  
     532A      3.714429   533A      3.714893   534A      3.730860  
     535A      3.738851   536A      3.752272   537A      3.759745  
     538A      3.767267   539A      3.782804   540A      3.791882  
     541A      3.808301   542A      3.809588   543A      3.813490  
     544A      3.818431   545A      3.830681   546A      3.840292  
     547A      3.847905   548A      3.853165   549A      3.864143  
     550A      3.868624   551A      3.882176   552A      3.887680  
     553A      3.909132   554A      3.912638   555A      3.929780  
     556A      3.932244   557A      3.951542   558A      3.955291  
     559A      3.962499   560A      3.965724   561A      4.001243  
     562A      4.005645   563A      4.008610   564A      4.024593  
     565A      4.030028   566A      4.032588   567A      4.056753  
     568A      4.061987   569A      4.063197   570A      4.066399  
     571A      4.070547   572A      4.080836   573A      4.087336  
     574A      4.103693   575A      4.109006   576A      4.116152  
     577A      4.120972   578A      4.126394   579A      4.129423  
     580A      4.143441   581A      4.159917   582A      4.170857  
     583A      4.181183   584A      4.183475   585A      4.195919  
     586A      4.199687   587A      4.205478   588A      4.225602  
     589A      4.242300   590A      4.262498   591A      4.262872  
     592A      4.282087   593A      4.299157   594A      4.305201  
     595A      4.310714   596A      4.311177   597A      4.312439  
     598A      4.328935   599A      4.347104   600A      4.351477  
     601A      4.355557   602A      4.363091   603A      4.376854  
     604A      4.389252   605A      4.399754   606A      4.415027  
     607A      4.416676   608A      4.417772   609A      4.430661  
     610A      4.435697   611A      4.436792   612A      4.451785  
     613A      4.452272   614A      4.453592   615A      4.477611  
     616A      4.495814   617A      4.500027   618A      4.500347  
     619A      4.510515   620A      4.511718   621A      4.546707  
     622A      4.550278   623A      4.553542   624A      4.564416  
     625A      4.576157   626A      4.589383   627A      4.591418  
     628A      4.610766   629A      4.611951   630A      4.617598  
     631A      4.649629   632A      4.658173   633A      4.660406  
     634A      4.692322   635A      4.695598   636A      4.713053  
     637A      4.718822   638A      4.719736   639A      4.746117  
     640A      4.755236   641A      4.771510   642A      4.773820  
     643A      4.784792   644A      4.789552   645A      4.791451  
     646A      4.798382   647A      4.844302   648A      4.847622  
     649A      4.851708   650A      4.882170   651A      4.888570  
     652A      4.889382   653A      4.899294   654A      4.905514  
     655A      4.918436   656A      4.946703   657A      4.977012  
     658A      4.999453   659A      5.002788   660A      5.025499  
     661A      5.037487   662A      5.045842   663A      5.070246  
     664A      5.074538   665A      5.078195   666A      5.100856  
     667A      5.112689   668A      5.116965   669A      5.134583  
     670A      5.142401   671A      5.162586   672A      5.164250  
     673A      5.190184   674A      5.192091   675A      5.217417  
     676A      5.233782   677A      5.250121   678A      5.261716  
     679A      5.266241   680A      5.267611   681A      5.268294  
     682A      5.273913   683A      5.274514   684A      5.283063  
     685A      5.290389   686A      5.314566   687A      5.324620  
     688A      5.344112   689A      5.358327   690A      5.359505  
     691A      5.408578   692A      5.422541   693A      5.422922  
     694A      5.426353   695A      5.468613   696A      5.482546  
     697A      5.502850   698A      5.507470   699A      5.555153  
     700A      5.580275   701A      5.584613   702A      5.586088  
     703A      5.611953   704A      5.655133   705A      5.660958  
     706A      5.665721   707A      5.674151   708A      5.681945  
     709A      5.709626   710A      5.774510   711A      5.803622  
     712A      5.826274   713A      5.868194   714A      5.869420  
     715A      5.876257   716A      5.882636   717A      5.907612  
     718A      5.939068   719A      5.957499   720A      5.963464  
     721A      5.994148   722A      6.005170   723A      6.016610  
     724A      6.024482   725A      6.087851   726A      6.144553  
     727A      6.149036   728A      6.198425   729A      6.252507  
     730A      6.315709   731A      6.317687   732A      6.371498  
     733A      6.383161   734A      6.412359   735A      6.486612  
     736A      6.501421   737A      6.540161   738A      6.559340  
     739A      6.620714   740A      6.625793   741A      6.709787  
     742A      6.775958   743A      6.803016   744A      6.831209  
     745A      6.854955   746A      6.867908   747A      6.871937  
     748A      6.893347   749A      6.916806   750A      6.990182  
     751A      7.029621   752A      7.051196   753A      7.100065  
     754A      7.107610   755A      7.137368   756A      7.180273  
     757A      7.221503   758A      7.287530   759A      7.339427  
     760A      7.347772   761A      7.368483   762A      7.579611  
     763A      7.615575   764A      7.635036   765A      7.918931  
     766A      7.954097   767A      8.028288   768A      8.155125  
     769A      8.226631   770A     15.728122   771A     16.252856  
     772A     16.514935   773A     17.337664   774A     17.810480  
     775A     18.819295   776A     19.151646   777A     20.184002  
     778A     20.324415   779A     20.818033   780A     20.989735  
     781A     21.280418   782A     21.340029  

    Final Occupation by Irrep:
              A 
    DOCC [    45 ]

  Energy converged.

  @DF-RHF Final Energy:  -550.71209682140193

   => Energetics <=

    Nuclear Repulsion Energy =            687.5449878938715074
    One-Electron Energy =               -2125.0632588731018586
    Two-Electron Energy =                 886.8061741578283090
    DFT Exchange-Correlation Energy =       0.0000000000000000
    Empirical Dispersion Energy =           0.0000000000000000
    PCM Polarization Energy =               0.0000000000000000
    EFP Energy =                            0.0000000000000000
    Total Energy =                       -550.7120968214019285



Properties will be evaluated at   0.000000,   0.000000,   0.000000 Bohr

Properties computed using the SCF density matrix

  Nuclear Dipole Moment: (a.u.)
     X:     2.4659      Y:    -1.3118      Z:    -1.5406

  Electronic Dipole Moment: (a.u.)
     X:     0.0856      Y:    -0.0441      Z:    -0.0527

  Dipole Moment: (a.u.)
     X:     2.5515      Y:    -1.3559      Z:    -1.5933     Total:     3.2996

  Dipole Moment: (Debye)
     X:     6.4853      Y:    -3.4463      Z:    -4.0497     Total:     8.3866


*** tstop() called on gpu-2-14.local at Sun Nov 12 03:43:32 2017
Module time:
	user time   =    1119.20 seconds =      18.65 minutes
	system time =      52.68 seconds =       0.88 minutes
	total time  =        476 seconds =       7.93 minutes
Total time:
	user time   =    1119.21 seconds =      18.65 minutes
	system time =      52.68 seconds =       0.88 minutes
	total time  =        476 seconds =       7.93 minutes

  //>>>>>>>>>>>>>>>>>>>>>>>>>>>>>>>>>>>//
  //               DFMP2               //
  //<<<<<<<<<<<<<<<<<<<<<<<<<<<<<<<<<<<//

   => Loading Basis Set <=

    Name: (AUG-CC-PVTZ AUX)
    Role: RIFIT
    Keyword: DF_BASIS_MP2
    atoms 1-11  entry C          line   147 file /cbio/jclab/home/chayas/anaconda/envs/py35/share/psi4/basis/aug-cc-pvtz-ri.gbs 
    atoms 12    entry N          line   205 file /cbio/jclab/home/chayas/anaconda/envs/py35/share/psi4/basis/aug-cc-pvtz-ri.gbs 
    atoms 13    entry O          line   263 file /cbio/jclab/home/chayas/anaconda/envs/py35/share/psi4/basis/aug-cc-pvtz-ri.gbs 
    atoms 14-21 entry H          line    29 file /cbio/jclab/home/chayas/anaconda/envs/py35/share/psi4/basis/aug-cc-pvtz-ri.gbs 

	 --------------------------------------------------------
	                          DF-MP2                         
	      2nd-Order Density-Fitted Moller-Plesset Theory     
	              RMP2 Wavefunction,   8 Threads             
	                                                         
	        Rob Parrish, Justin Turney, Andy Simmonett,      
	           Ed Hohenstein, and C. David Sherrill          
	 --------------------------------------------------------

   => Auxiliary Basis Set <=

  Basis Set: (AUG-CC-PVTZ AUX)
    Blend: AUG-CC-PVTZ-RI
    Number of shells: 476
    Number of basis function: 1746
    Number of Cartesian functions: 2208
    Spherical Harmonics?: true
    Max angular momentum: 4

	 --------------------------------------------------------
	                 NBF =   782, NAUX =  1746
	 --------------------------------------------------------
	   CLASS    FOCC     OCC    AOCC    AVIR     VIR    FVIR
	   PAIRS       0      45      45     737     737       0
	 --------------------------------------------------------


         ------------------------------------------------------------
                                     CPHF                           
                                  Rob Parrish                       
         ------------------------------------------------------------

  ==> Geometry <==

    Molecular point group: c1
    Full point group: C1

    Geometry (in Angstrom), charge = -1, multiplicity = 1:

       Center              X                  Y                   Z               Mass       
    ------------   -----------------  -----------------  -----------------  -----------------
           C         -1.278484519095     0.724807060247    -0.568755367537    12.000000000000
           C         -0.285484519095     0.108807060247     1.545244632463    12.000000000000
           C         -2.356484519095     1.297807060247     0.104244632463    12.000000000000
           C         -1.363484519095     0.681807060247     2.219244632463    12.000000000000
           C          1.910515480905    -1.058192939753     0.169244632463    12.000000000000
           C          0.920515480905    -0.447192939753    -1.936755367537    12.000000000000
           C          2.957515480905    -1.615192939753    -0.546755367537    12.000000000000
           C          2.013515480905    -1.031192939753    -2.557755367537    12.000000000000
           C         -0.242484519095     0.129807060247     0.151244632463    12.000000000000
           C          0.876515480905    -0.465192939753    -0.546755367537    12.000000000000
           C         -2.399484519095     1.276807060247     1.498244632463    12.000000000000
           N          3.036515480905    -1.617192939753    -1.896755367537    14.003074004780
           O         -3.390484519095     1.802807060247     2.117244632463    15.994914619560
           H         -1.259484519095     0.749807060247    -1.655755367537     1.007825032070
           H          0.514515480905    -0.351192939753     2.120244632463     1.007825032070
           H         -3.152484519095     1.754807060247    -0.481755367537     1.007825032070
           H         -1.372484519095     0.652807060247     3.307244632463     1.007825032070
           H          1.910515480905    -1.093192939753     1.253244632463     1.007825032070
           H          0.132515480905     0.007807060247    -2.527755367537     1.007825032070
           H          3.788515480905    -2.092192939753    -0.035755367537     1.007825032070
           H          2.095515480905    -1.042192939753    -3.639755367537     1.007825032070

  Nuclear repulsion =  687.544987893871507
  Reference energy  = -550.712096821401929

  ==> Basis Set <==

  Basis Set: AUG-CC-PVTZ
    Blend: AUG-CC-PVTZ
    Number of shells: 254
    Number of basis function: 782
    Number of Cartesian functions: 915
    Spherical Harmonics?: true
    Max angular momentum: 3

  ==> CGRSolver (by Rob Parrish) <==

   Number of roots    =         1
   Preconditioning    =    JACOBI
   Convergence cutoff =     1E-06
   Maximum iterations =       100

  ==> CPHFRHamiltonian (by Rob Parrish) <== 

  ==> DFJK: Density-Fitted J/K Matrices <==

    J tasked:                  Yes
    K tasked:                  Yes
    wK tasked:                  No
    OpenMP threads:              8
    Integrals threads:           8
    Memory (MB):              3576
    Algorithm:                Disk
    Integral Cache:           NONE
    Schwarz Cutoff:          1E-12
    Fitting Condition:       1E-12

   => Auxiliary Basis Set <=

  Basis Set: (AUG-CC-PVTZ AUX)
    Blend: AUG-CC-PVTZ-JKFIT
    Number of shells: 502
    Number of basis function: 1720
    Number of Cartesian functions: 2143
    Spherical Harmonics?: true
    Max angular momentum: 4

  ==> CPHF Iterations <==

  => Iterations <=

             Iter  Converged  Remaining    Residual
  CGR           1          0          1   1.435E-01
  CGR           2          0          1   5.710E-02
  CGR           3          0          1   3.385E-02
  CGR           4          0          1   1.199E-02
  CGR           5          0          1   5.926E-03
  CGR           6          0          1   3.254E-03
  CGR           7          0          1   9.563E-04
  CGR           8          0          1   3.217E-04
  CGR           9          0          1   1.273E-04
  CGR          10          0          1   3.869E-05
  CGR          11          0          1   1.488E-05
  CGR          12          0          1   6.569E-06
  CGR          13          0          1   2.832E-06
  CGR          14          0          1   1.101E-06
  CGR          15          1          0   3.284E-07

    CGRSolver converged.

  ==> DFCorrGrad: Density-Fitted Correlated Gradients <==

    OpenMP threads:              8
    Integrals threads:           8
    Memory (MB):              3576
    Schwarz Cutoff:          0E+00
    Fitting Condition:       1E-12

   => Auxiliary Basis Set <=

  Basis Set: (AUG-CC-PVTZ AUX)
    Blend: AUG-CC-PVTZ-JKFIT
    Number of shells: 502
    Number of basis function: 1720
    Number of Cartesian functions: 2143
    Spherical Harmonics?: true
    Max angular momentum: 4

	-----------------------------------------------------------
	 ==================> DF-MP2 Energies <==================== 
	-----------------------------------------------------------
	 Reference Energy          =    -550.7120968214019285 [Eh]
	 Singles Energy            =      -0.0000000000000004 [Eh]
	 Same-Spin Energy          =      -0.6144795487465531 [Eh]
	 Opposite-Spin Energy      =      -1.8407293991486069 [Eh]
	 Correlation Energy        =      -2.4552089478951604 [Eh]
	 Total Energy              =    -553.1673057692970588 [Eh]
	-----------------------------------------------------------
	 ================> DF-SCS-MP2 Energies <================== 
	-----------------------------------------------------------
	 SCS Same-Spin Scale       =       0.3333333333333333 [-]
	 SCS Opposite-Spin Scale   =       1.2000000000000000 [-]
	 SCS Same-Spin Energy      =      -0.2048265162488510 [Eh]
	 SCS Opposite-Spin Energy  =      -2.2088752789783284 [Eh]
	 SCS Correlation Energy    =      -2.4137017952271798 [Eh]
	 SCS Total Energy          =    -553.1257986166291403 [Eh]
	-----------------------------------------------------------


  -Total Gradient:
     Atom            X                  Y                   Z
    ------   -----------------  -----------------  -----------------
       1        0.019253377468    -0.010308241408    -0.008950162324
       2        0.017389303974    -0.009132764845    -0.013956293754
       3       -0.024326167871     0.012130408227     0.040524157729
       4       -0.042788896381     0.023391814133     0.002271420837
       5       -0.016427231382     0.008898405625     0.011058140215
       6       -0.017330112696     0.008954978715     0.009764256968
       7       -0.000148995152    -0.000092661117     0.009067272934
       8       -0.005630435205     0.003276858920    -0.005329107248
       9       -0.016023286769     0.008384636385     0.009874888552
      10        0.025094903297    -0.013206130130    -0.015185142882
      11        0.050993471082    -0.026921433144    -0.032374777938
      12        0.005451042435    -0.002928969586    -0.003750572983
      13       -0.001363107597     0.000658276299     0.000932125415
      14        0.001524306883    -0.000586210738    -0.007088312686
      15        0.005930099645    -0.003354432076     0.002317155295
      16       -0.001722940319     0.001177402232    -0.008836231802
      17        0.005491342226    -0.003164735748     0.006140096775
      18       -0.001177703108     0.000327280481     0.007622326097
      19       -0.006452012897     0.003771051210    -0.003052490188
      20        0.001673795395    -0.001021168453     0.000240643521
      21        0.000589246963    -0.000254364983    -0.001289392523


*** tstop() called on gpu-2-14.local at Sun Nov 12 04:11:47 2017
Module time:
	user time   =    4741.96 seconds =      79.03 minutes
	system time =     109.96 seconds =       1.83 minutes
	total time  =       2171 seconds =      36.18 minutes
Total time:
	user time   =    4741.97 seconds =      79.03 minutes
	system time =     109.96 seconds =       1.83 minutes
	total time  =       2171 seconds =      36.18 minutes

			-----------------------------------------
			 OPTKING 2.0: for geometry optimizations 
			  - R.A. King,  Bethel University        
			-----------------------------------------

	Internal coordinates to be generated automatically.
	Detected frag 1 with atoms:  1 2 3 4 5 6 7 8 9 10 11 12 13 14 15 16 17 18 19 20
	 21
	---Fragment 1 Bond Connectivity---
	 1 : 3 9 14
	 2 : 4 9 15
	 3 : 1 11 16
	 4 : 2 11 17
	 5 : 7 10 18
	 6 : 8 10 19
	 7 : 5 12 20
	 8 : 6 12 21
	 9 : 1 2 10
	 10 : 5 6 9
	 11 : 3 4 13
	 12 : 7 8
	 13 : 11
	 14 : 1
	 15 : 2
	 16 : 3
	 17 : 4
	 18 : 5
	 19 : 6
	 20 : 7
	 21 : 8

	Assuming in current code that numbering for constraints corresponds to unified fragment.
	Fixed dihedral atom list: 
	     1     9    10     5
	---Fragment 1 Geometry and Gradient---
	 C          -2.4159856062        1.3696868430       -1.0747918813
	 C          -0.5394875563        0.2056155452        2.9200891637
	 C          -4.4531103775        2.4524999172        0.1969938062
	 C          -2.5766123275        1.2884286193        4.1937645772
	 C           3.6103510315       -1.9996948519        0.3198260048
	 C           1.7395221600       -0.8450721847       -3.6599372310
	 C           5.5888942927       -3.0522723079       -1.0332179063
	 C           3.8049928232       -1.9486722463       -4.8334571596
	 C          -0.4582293326        0.2452997940        0.2858109344
	 C           1.6563742101       -0.8790872551       -1.0332179063
	 C          -4.5343686012        2.4128156684        2.8312720354
	 N           5.7381826572       -3.0560517602       -3.5843481857
	 O          -6.4070871989        3.4068116143        4.0010125117
	 H          -2.3800808097        1.4169299964       -3.1289241877
	 H           0.9722933500       -0.6636584759        4.0066816901
	 H          -5.9573323793        3.3161047599       -0.9103857077
	 H          -2.5936198627        1.2336265615        6.2497866098
	 H           3.6103510315       -2.0658352665        2.3682891329
	 H           0.2504179673        0.0147532058       -4.7767653756
	 H           7.1592567091       -3.9536716733       -0.0675678524
	 H           3.9599503661       -1.9694592338       -6.8781408353
	             0.0192533775       -0.0103082414       -0.0089501623
	             0.0173893040       -0.0091327648       -0.0139562938
	            -0.0243261679        0.0121304082        0.0405241577
	            -0.0427888964        0.0233918141        0.0022714208
	            -0.0164272314        0.0088984056        0.0110581402
	            -0.0173301127        0.0089549787        0.0097642570
	            -0.0001489952       -0.0000926611        0.0090672729
	            -0.0056304352        0.0032768589       -0.0053291072
	            -0.0160232868        0.0083846364        0.0098748886
	             0.0250949033       -0.0132061301       -0.0151851429
	             0.0509934711       -0.0269214331       -0.0323747779
	             0.0054510424       -0.0029289696       -0.0037505730
	            -0.0013631076        0.0006582763        0.0009321254
	             0.0015243069       -0.0005862107       -0.0070883127
	             0.0059300996       -0.0033544321        0.0023171553
	            -0.0017229403        0.0011774022       -0.0088362318
	             0.0054913422       -0.0031647357        0.0061400968
	            -0.0011777031        0.0003272805        0.0076223261
	            -0.0064520129        0.0037710512       -0.0030524902
	             0.0016737954       -0.0010211685        0.0002406435
	             0.0005892470       -0.0002543650       -0.0012893925

	Previous optimization step data not found.  Starting new optimization.

	---Fragment 1 Intrafragment Coordinates---
	 - Coordinate -           - BOHR/RAD -       - ANG/DEG -
	 R(1,3)           =         2.634350	       1.394038
	 R(1,9)           =         2.635962	       1.394891
	 R(1,14)          =         2.054989	       1.087453
	 R(2,4)           =         2.635263	       1.394521
	 R(2,9)           =         2.635830	       1.394821
	 R(2,15)          =         2.054702	       1.087302
	 R(3,11)          =         2.635830	       1.394821
	 R(3,16)          =         2.057860	       1.088972
	 R(4,11)          =         2.636938	       1.395407
	 R(4,17)          =         2.056823	       1.088424
	 R(5,7)           =         2.617877	       1.385321
	 R(5,10)          =         2.627644	       1.390489
	 R(5,18)          =         2.049531	       1.084565
	 R(6,8)           =         2.619399	       1.386126
	 R(6,10)          =         2.628255	       1.390813
	 R(6,19)          =         2.050375	       1.085012
	 R(7,12)          =         2.555497	       1.352311
	 R(7,20)          =         2.052082	       1.085915
	 R(8,12)          =         2.554170	       1.351609
	 R(8,21)          =         2.050652	       1.085159
	 R(9,10)          =         2.734160	       1.446855
	 R(11,13)         =         2.421445	       1.281373
	 B(1,3,11)        =         2.094553	     120.009056
	 B(1,3,16)        =         2.069123	     118.552025
	 B(1,9,2)         =         2.093692	     119.959722
	 B(1,9,10)        =         2.095337	     120.053983
	 B(2,4,11)        =         2.093699	     119.960108
	 B(2,4,17)        =         2.069829	     118.592446
	 B(2,9,10)        =         2.094156	     119.986294
	 B(3,1,9)         =         2.094940	     120.031219
	 B(3,1,14)        =         2.079025	     119.119344
	 B(3,11,4)        =         2.094306	     119.994870
	 B(3,11,13)       =         2.094918	     120.029973
	 B(4,2,9)         =         2.095181	     120.045019
	 B(4,2,15)        =         2.079455	     119.143974
	 B(4,11,13)       =         2.093961	     119.975136
	 B(5,7,12)        =         2.166040	     124.104968
	 B(5,7,20)        =         2.108035	     120.781520
	 B(5,10,6)        =         2.090496	     119.776611
	 B(5,10,9)        =         2.096804	     120.138033
	 B(6,8,12)        =         2.165647	     124.082448
	 B(6,8,21)        =         2.106636	     120.701344
	 B(6,10,9)        =         2.095884	     120.085311
	 B(7,5,10)        =         2.057087	     117.862375
	 B(7,5,18)        =         2.098561	     120.238678
	 B(7,12,8)        =         2.030134	     116.318099
	 B(8,6,10)        =         2.056966	     117.855459
	 B(8,6,19)        =         2.100557	     120.353058
	 B(9,1,14)        =         2.109221	     120.849435
	 B(9,2,15)        =         2.108550	     120.811005
	 B(10,5,18)       =         2.127536	     121.898827
	 B(10,6,19)       =         2.125660	     121.791356
	 B(11,3,16)       =         2.119509	     121.438903
	 B(11,4,17)       =         2.119657	     121.447411
	 B(12,7,20)       =         2.009109	     115.113463
	 B(12,8,21)       =         2.010902	     115.216208
	 D(1,3,11,4)      =        -0.000325	      -0.018609
	 D(1,3,11,13)     =        -3.141004	    -179.966279
	 D(1,9,2,4)       =         0.000325	       0.018608
	 D(1,9,2,15)      =        -3.141527	    -179.996257
	 D(1,9,10,5)      =         3.141034	     179.968015
	 D(1,9,10,6)      =        -0.001904	      -0.109110
	 D(2,4,11,3)      =         0.000301	       0.017261
	 D(2,4,11,13)     =         3.140981	     179.964960
	 D(2,9,1,3)       =        -0.000348	      -0.019945
	 D(2,9,1,14)      =         3.141027	     179.967567
	 D(2,9,10,5)      =        -0.000341	      -0.019545
	 D(2,9,10,6)      =         3.139905	     179.903330
	 D(3,1,9,10)      =         3.141462	     179.992491
	 D(3,11,4,17)     =         3.140700	     179.948827
	 D(4,2,9,10)      =        -3.141485	    -179.993820
	 D(4,11,3,16)     =         3.140472	     179.935781
	 D(5,7,12,8)      =        -0.000184	      -0.010566
	 D(5,10,6,8)      =        -0.000642	      -0.036798
	 D(5,10,6,19)     =        -3.139979	    -179.907524
	 D(6,8,12,7)      =        -0.000856	      -0.049049
	 D(6,10,5,7)      =        -0.000288	      -0.016518
	 D(6,10,5,18)     =        -3.139686	    -179.890731
	 D(7,5,10,9)      =         3.139962	     179.906596
	 D(7,12,8,21)     =         3.140762	     179.952398
	 D(8,6,10,9)      =        -3.140894	    -179.959953
	 D(8,12,7,20)     =         3.140006	     179.909094
	 D(9,1,3,11)      =         0.000348	       0.019955
	 D(9,1,3,16)      =        -3.140471	    -179.935743
	 D(9,2,4,11)      =        -0.000301	      -0.017270
	 D(9,2,4,17)      =        -3.140734	    -179.950778
	 D(9,10,5,18)     =         0.000565	       0.032383
	 D(9,10,6,19)     =         0.002955	       0.169321
	 D(10,5,7,12)     =         0.000739	       0.042338
	 D(10,5,7,20)     =        -3.139376	    -179.872988
	 D(10,6,8,12)     =         0.001271	       0.072825
	 D(10,6,8,21)     =        -3.140348	    -179.928697
	 D(10,9,1,14)     =        -0.000349	      -0.019997
	 D(10,9,2,15)     =        -0.000152	      -0.008685
	 D(11,3,1,14)     =        -3.141030	    -179.967773
	 D(11,4,2,15)     =         3.141546	     179.997347
	 D(12,7,5,18)     =         3.140174	     179.918728
	 D(12,8,6,19)     =         3.140641	     179.945492
	 D(13,11,3,16)    =        -0.000207	      -0.011889
	 D(13,11,4,17)    =        -0.001806	      -0.103475
	 D(14,1,3,16)     =         0.001336	       0.076530
	 D(15,2,4,17)     =         0.001114	       0.063839
	 D(18,5,7,20)     =         0.000059	       0.003402
	 D(19,6,8,21)     =        -0.000978	      -0.056030

	Current energy   :      -553.1673057693

	Generating empirical Hessian (Schlegel '84) for each fragment.
	Adding user-defined constraint: Fragment 1; Coordinate 61:
		Value =     3.141034; Fixed value    =    -3.141575
		Force =    -3.141305; Force constant =     0.500000
	Removing off-diagonal coupling between coordinate 61 and others.
	Taking RFO optimization step.
	Going to follow RFO solution 1.
	Using RFO vector 1.

	Determining step-restricting scale parameter for RS-RFO.
	Maximum step size allowed    0.10000

	 Iter      |step|        alpha        rfo_root  
	------------------------------------------------
	    0     0.94853       1.00000           1
	    1     0.57034       2.88884           1
	    2     0.35120       7.80637           1
	    3     0.22554      19.18893           1
	    4     0.15524      40.81212           1
	    5     0.11869      70.10026           1
	    6     0.10351      92.31330           1
	    7     0.10017      98.60680           1
	    8     0.10000      98.94171           1
	------------------------------------------------
	Norm of target step-size    0.10000
	Projected energy change by RFO approximation:        -0.1978508977

	Back-transformation to cartesian coordinates...
	Could not converge backtransformation.
	Using first guess instead.

	--- Internal Coordinate Step in ANG or DEG, aJ/ANG or AJ/DEG ---
	 ---------------------------------------------------------------------------
	   Coordinate                Previous        Force       Change         New 
	   ----------                --------       ------       ------       ------
	    1 R(1,3)          =      1.394038    -0.071705    -0.000155     1.393883
	    2 R(1,9)          =      1.394891     0.089116     0.000775     1.395666
	    3 R(1,14)         =      1.087453    -0.058483    -0.000057     1.087396
	    4 R(2,4)          =      1.394521    -0.074718    -0.000165     1.394356
	    5 R(2,9)          =      1.394821     0.090008     0.000316     1.395137
	    6 R(2,15)         =      1.087302    -0.057734    -0.000007     1.087295
	    7 R(3,11)         =      1.394821     0.202225     0.000751     1.395572
	    8 R(3,16)         =      1.088972    -0.053622     0.000142     1.089114
	    9 R(4,11)         =      1.395407     0.198847     0.000930     1.396337
	   10 R(4,17)         =      1.088424    -0.050887    -0.000111     1.088312
	   11 R(5,7)          =      1.385321    -0.009030     0.000056     1.385377
	   12 R(5,10)         =      1.390489     0.090881     0.000849     1.391339
	   13 R(5,18)         =      1.084565    -0.062679    -0.000062     1.084503
	   14 R(6,8)          =      1.386126    -0.014053     0.000066     1.386192
	   15 R(6,10)         =      1.390813     0.088374     0.000310     1.391122
	   16 R(6,19)         =      1.085012    -0.065331     0.000000     1.085012
	   17 R(7,12)         =      1.352311    -0.112791    -0.000263     1.352048
	   18 R(7,20)         =      1.085915    -0.015182     0.000318     1.086233
	   19 R(8,12)         =      1.351609    -0.109402    -0.000007     1.351602
	   20 R(8,21)         =      1.085159    -0.010979    -0.000002     1.085156
	   21 R(9,10)         =      1.446855     0.154009     0.000491     1.447346
	   22 R(11,13)        =      1.281373    -0.014621     0.000029     1.281403
	   23 B(1,3,11)       =    120.009056     0.000782     0.016698   120.025754
	   24 B(1,3,16)       =    118.552025     0.000102     0.009266   118.561291
	   25 B(1,9,2)        =    119.959722    -0.001397    -0.053370   119.906351
	   26 B(1,9,10)       =    120.053983     0.000687     0.012512   120.066496
	   27 B(2,4,11)       =    119.960108     0.000796     0.035094   119.995203
	   28 B(2,4,17)       =    118.592446     0.000099    -0.005744   118.586702
	   29 B(2,9,10)       =    119.986294     0.000703     0.026141   120.012434
	   30 B(3,1,9)        =    120.031219     0.000889     0.037898   120.069117
	   31 B(3,1,14)       =    119.119344    -0.000569    -0.037187   119.082158
	   32 B(3,11,4)       =    119.994870    -0.001966    -0.066384   119.928486
	   33 B(3,11,13)      =    120.029973     0.000977     0.023204   120.053177
	   34 B(4,2,9)        =    120.045019     0.000892     0.026621   120.071640
	   35 B(4,2,15)       =    119.143974    -0.000573    -0.016360   119.127614
	   36 B(4,11,13)      =    119.975136     0.000993     0.043086   120.018222
	   37 B(5,7,12)       =    124.104968     0.000328    -0.001781   124.103187
	   38 B(5,7,20)       =    120.781520    -0.000222    -0.002788   120.778732
	   39 B(5,10,6)       =    119.776611    -0.002154    -0.082665   119.693946
	   40 B(5,10,9)       =    120.138033     0.001091     0.029267   120.167300
	   41 B(6,8,12)       =    124.082448     0.000341     0.019483   124.101930
	   42 B(6,8,21)       =    120.701344    -0.000213    -0.018241   120.683103
	   43 B(6,10,9)       =    120.085311     0.001105     0.040397   120.125708
	   44 B(7,5,10)       =    117.862375     0.000915     0.040761   117.903137
	   45 B(7,5,18)       =    120.238678    -0.000553    -0.038813   120.199864
	   46 B(7,12,8)       =    116.318099    -0.000355    -0.005779   116.312320
	   47 B(8,6,10)       =    117.855459     0.000927     0.026656   117.882115
	   48 B(8,6,19)       =    120.353058    -0.000588    -0.014862   120.338196
	   49 B(9,1,14)       =    120.849435    -0.000319    -0.000750   120.848685
	   50 B(9,2,15)       =    120.811005    -0.000319    -0.010334   120.800671
	   51 B(10,5,18)      =    121.898827    -0.000366    -0.002153   121.896674
	   52 B(10,6,19)      =    121.791356    -0.000335    -0.011684   121.779672
	   53 B(11,3,16)      =    121.438903    -0.000883    -0.025960   121.412943
	   54 B(11,4,17)      =    121.447411    -0.000897    -0.029486   121.417926
	   55 B(12,7,20)      =    115.113463    -0.000102     0.004612   115.118075
	   56 B(12,8,21)      =    115.216208    -0.000128    -0.001330   115.214879
	   57 D(1,3,11,4)     =     -0.018609     0.000806     0.133085     0.114477
	   58 D(1,3,11,13)    =   -179.966279    -0.000259    -0.042525  -180.008804
	   59 D(1,9,2,4)      =      0.018608     0.003944     0.645806     0.664414
	   60 D(1,9,2,15)     =   -179.996257     0.003421     0.560368  -179.435889
	   61 D(1,9,10,5)     =    179.968015    -0.022174    -3.639860   176.328156
	   62 D(1,9,10,6)     =     -0.109110    -0.013674    -2.244928    -2.354038
	   63 D(2,4,11,3)     =      0.017261    -0.000806    -0.133416    -0.116154
	   64 D(2,4,11,13)    =    179.964960     0.000258     0.042122   180.007082
	   65 D(2,9,1,3)      =     -0.019945    -0.003944    -0.646168    -0.666112
	   66 D(2,9,1,14)     =    179.967567    -0.003423    -0.560641   179.406926
	   67 D(2,9,10,5)     =     -0.019545    -0.013739    -2.255547    -2.275092
	   68 D(2,9,10,6)     =    179.903330    -0.005238    -0.860615   179.042714
	   69 D(3,1,9,10)     =    179.992491     0.004489     0.736658   180.729150
	   70 D(3,11,4,17)    =    179.948827    -0.001321    -0.217000   179.731826
	   71 D(4,2,9,10)     =   -179.993820    -0.004483    -0.736267  -180.730087
	   72 D(4,11,3,16)    =    179.935781     0.001322     0.217660   180.153442
	   73 D(5,7,12,8)     =     -0.010566     0.000740     0.121501     0.110935
	   74 D(5,10,6,8)     =     -0.036798     0.003975     0.650509     0.613712
	   75 D(5,10,6,19)    =   -179.907524     0.003477     0.569083  -179.338441
	   76 D(6,8,12,7)     =     -0.049049    -0.000739    -0.121075    -0.170124
	   77 D(6,10,5,7)     =     -0.016518    -0.003975    -0.650266    -0.666784
	   78 D(6,10,5,18)    =   -179.890731    -0.003481    -0.569124  -180.459855
	   79 D(7,5,10,9)     =    179.906596     0.004499     0.738725   180.645322
	   80 D(7,12,8,21)    =    179.952398    -0.001399    -0.230022   179.722376
	   81 D(8,6,10,9)     =   -179.959953    -0.004494    -0.737888  -180.697841
	   82 D(8,12,7,20)    =    179.909094     0.001402     0.229764   180.138858
	   83 D(9,1,3,11)     =      0.019955     0.001570     0.257045     0.276999
	   84 D(9,1,3,16)     =   -179.935743     0.001069     0.174881  -179.760862
	   85 D(9,2,4,11)     =     -0.017270    -0.001570    -0.256484    -0.273754
	   86 D(9,2,4,17)     =   -179.950778    -0.001070    -0.175235  -180.126013
	   87 D(9,10,5,18)    =      0.032383     0.004993     0.819868     0.852251
	   88 D(9,10,6,19)    =      0.169321    -0.004993    -0.819314    -0.649993
	   89 D(10,5,7,12)    =      0.042338     0.001605     0.262514     0.304852
	   90 D(10,5,7,20)    =   -179.872988     0.000907     0.148413  -179.724575
	   91 D(10,6,8,12)    =      0.072825    -0.001606    -0.263276    -0.190451
	   92 D(10,6,8,21)    =   -179.928697    -0.000911    -0.148665  -180.077362
	   93 D(10,9,1,14)    =     -0.019997     0.005010     0.822185     0.802188
	   94 D(10,9,2,15)    =     -0.008685    -0.005006    -0.821705    -0.830390
	   95 D(11,3,1,14)    =   -179.967773     0.001058     0.173020  -179.794752
	   96 D(11,4,2,15)    =    179.997347    -0.001056    -0.172473   179.824874
	   97 D(12,7,5,18)    =    179.918728     0.001120     0.182851   180.101580
	   98 D(12,8,6,19)    =    179.945492    -0.001115    -0.183071   179.762421
	   99 D(13,11,3,16)   =     -0.011889     0.000258     0.042050     0.030161
	  100 D(13,11,4,17)   =     -0.103475    -0.000257    -0.041462    -0.144937
	  101 D(14,1,3,16)    =      0.076530     0.000557     0.090856     0.167386
	  102 D(15,2,4,17)    =      0.063839    -0.000556    -0.091224    -0.027384
	  103 D(18,5,7,20)    =      0.003402     0.000421     0.068751     0.072153
	  104 D(19,6,8,21)    =     -0.056030    -0.000420    -0.068460    -0.124490
	 ---------------------------------------------------------------------------
	Successfully symmetrized geometry.
	 Forces used to impose fixed constraints are not included.
	  Forces zeroed: 61 

  ==> Convergence Check <==

  Measures of convergence in internal coordinates in au.
  Criteria marked as inactive (o), active & met (*), and active & unmet ( ).
  --------------------------------------------------------------------------------------------- ~
   Step     Total Energy     Delta E     MAX Force     RMS Force      MAX Disp      RMS Disp    ~
  --------------------------------------------------------------------------------------------- ~
    Convergence Criteria    1.00e-06 *    3.00e-04 *             o    1.20e-03 *             o  ~
  --------------------------------------------------------------------------------------------- ~
      1    -553.16730577   -5.53e+02      7.87e-01      1.51e-01 o    6.35e-02      9.80e-03 o  ~
  ---------------------------------------------------------------------------------------------

	Writing optimization data to binary file.
	Structure for next step:
	Cartesian Geometry (in Angstrom)
	    C    -1.2732588869   0.7360393456  -0.5678532705
	    C    -0.3026729177   0.0795771595   1.5447141654
	    C    -2.3442937010   1.3214321945   0.1052809340
	    C    -1.3735601622   0.6648664506   2.2191522376
	    C     1.9190976589  -1.0444968510   0.1688856568
	    C     0.9059534725  -0.4759855678  -1.9380000111
	    C     2.9734288520  -1.5880766013  -0.5467786350
	    C     2.0074257485  -1.0446931375  -2.5583700503
	    C    -0.2546631264   0.1083229601   0.1507000520
	    C     0.8653614257  -0.4857035568  -0.5475038576
	    C    -2.3965058502   1.2856074167   1.4994156499
	    N     3.0448728817  -1.6040785540  -1.8968424625
	    O    -3.3807818664   1.8237420567   2.1187742507
	    H    -1.2463864473   0.7758467180  -1.6541884672
	    H     0.4875859374  -0.3974530582   2.1192946277
	    H    -3.1275448639   1.8012056775  -0.4799584838
	    H    -1.3875755445   0.6266113795   3.3067016586
	    H     1.9279089751  -1.0646117780   1.2531662428
	    H     0.1080726957  -0.0397987957  -2.5299270359
	    H     3.8180456704  -2.0403607754  -0.0349542030
	    H     2.0853151474  -1.0630444179  -3.6405717171
			--------------------------
			 OPTKING Finished Execution 
			--------------------------

    Structure for next step:
    Molecular point group: c1
    Full point group: C1

    Geometry (in Angstrom), charge = -1, multiplicity = 1:

    C           -1.273048913129     0.736164754532    -0.567913672284
    C           -0.302462943921     0.079702568452     1.544653763636
    C           -2.344083727264     1.321557603484     0.105220532245
    C           -1.373350188396     0.664991859557     2.219091835845
    C            1.919307632715    -1.044371442012     0.168825255049
    C            0.906163446302    -0.475860158863    -1.938060412862
    C            2.973638825785    -1.587951192368    -0.546839036747
    C            2.007635722243    -1.044567728577    -2.558430452049
    C           -0.254453152599     0.108448369022     0.150639650248
    C            0.865571399505    -0.485578147852    -0.547564259394
    C           -2.396295876399     1.285732825615     1.499355248086
    N            3.045082855471    -1.603953145067    -1.896902864308
    O           -3.380571892641     1.823867465693     2.118713848920
    H           -1.246176473490     0.775972126941    -1.654248868975
    H            0.487795911147    -0.397327649211     2.119234225948
    H           -3.127334890163     1.801331086395    -0.480018885635
    H           -1.387365570686     0.626736788412     3.306641256755
    H            1.928118948882    -1.064486369014     1.253105840963
    H            0.108282669465    -0.039673386747    -2.529987437716
    H            3.818255644165    -2.040235366413    -0.035014604831
    H            2.085525121131    -1.062919008978    -3.640632118880

gradient() will perform analytic gradient computation.

*** tstart() called on gpu-2-14.local
*** at Sun Nov 12 04:11:48 2017

    SCF Algorithm Type (re)set to DF.

*** tstart() called on gpu-2-14.local
*** at Sun Nov 12 04:11:48 2017

   => Loading Basis Set <=

    Name: AUG-CC-PVTZ
    Role: ORBITAL
    Keyword: BASIS
    atoms 1-11  entry C          line   221 file /cbio/jclab/home/chayas/anaconda/envs/py35/share/psi4/basis/aug-cc-pvtz.gbs 
    atoms 12    entry N          line   267 file /cbio/jclab/home/chayas/anaconda/envs/py35/share/psi4/basis/aug-cc-pvtz.gbs 
    atoms 13    entry O          line   313 file /cbio/jclab/home/chayas/anaconda/envs/py35/share/psi4/basis/aug-cc-pvtz.gbs 
    atoms 14-21 entry H          line    34 file /cbio/jclab/home/chayas/anaconda/envs/py35/share/psi4/basis/aug-cc-pvtz.gbs 


         ---------------------------------------------------------
                                   SCF
            by Justin Turney, Rob Parrish, and Andy Simmonett
                              RHF Reference
                        8 Threads,   4768 MiB Core
         ---------------------------------------------------------

  ==> Geometry <==

    Molecular point group: c1
    Full point group: C1

    Geometry (in Angstrom), charge = -1, multiplicity = 1:

       Center              X                  Y                   Z               Mass       
    ------------   -----------------  -----------------  -----------------  -----------------
           C         -1.273048913129     0.736164754532    -0.567913672284    12.000000000000
           C         -0.302462943921     0.079702568452     1.544653763636    12.000000000000
           C         -2.344083727264     1.321557603484     0.105220532245    12.000000000000
           C         -1.373350188396     0.664991859557     2.219091835845    12.000000000000
           C          1.919307632715    -1.044371442012     0.168825255049    12.000000000000
           C          0.906163446302    -0.475860158863    -1.938060412862    12.000000000000
           C          2.973638825785    -1.587951192368    -0.546839036747    12.000000000000
           C          2.007635722243    -1.044567728577    -2.558430452049    12.000000000000
           C         -0.254453152599     0.108448369022     0.150639650248    12.000000000000
           C          0.865571399505    -0.485578147852    -0.547564259394    12.000000000000
           C         -2.396295876399     1.285732825615     1.499355248086    12.000000000000
           N          3.045082855471    -1.603953145067    -1.896902864308    14.003074004780
           O         -3.380571892641     1.823867465693     2.118713848920    15.994914619560
           H         -1.246176473490     0.775972126941    -1.654248868975     1.007825032070
           H          0.487795911147    -0.397327649211     2.119234225948     1.007825032070
           H         -3.127334890163     1.801331086395    -0.480018885635     1.007825032070
           H         -1.387365570686     0.626736788412     3.306641256755     1.007825032070
           H          1.928118948882    -1.064486369014     1.253105840963     1.007825032070
           H          0.108282669465    -0.039673386747    -2.529987437716     1.007825032070
           H          3.818255644165    -2.040235366413    -0.035014604831     1.007825032070
           H          2.085525121131    -1.062919008978    -3.640632118880     1.007825032070

  Running in c1 symmetry.

  Rotational constants: A =      0.09729  B =      0.01405  C =      0.01228 [cm^-1]
  Rotational constants: A =   2916.81053  B =    421.35016  C =    368.21986 [MHz]
  Nuclear repulsion =  687.346753488046261

  Charge       = -1
  Multiplicity = 1
  Electrons    = 90
  Nalpha       = 45
  Nbeta        = 45

  ==> Algorithm <==

  SCF Algorithm Type is DF.
  DIIS enabled.
  MOM disabled.
  Fractional occupation disabled.
  Guess Type is READ.
  Energy threshold   = 1.00e-10
  Density threshold  = 1.00e-10
  Integral threshold = 0.00e+00

  ==> Primary Basis <==

  Basis Set: AUG-CC-PVTZ
    Blend: AUG-CC-PVTZ
    Number of shells: 254
    Number of basis function: 782
    Number of Cartesian functions: 915
    Spherical Harmonics?: true
    Max angular momentum: 3

   => Loading Basis Set <=

    Name: (AUG-CC-PVTZ AUX)
    Role: JKFIT
    Keyword: DF_BASIS_SCF
    atoms 1-11  entry C          line   161 file /cbio/jclab/home/chayas/anaconda/envs/py35/share/psi4/basis/aug-cc-pvtz-jkfit.gbs 
    atoms 12    entry N          line   223 file /cbio/jclab/home/chayas/anaconda/envs/py35/share/psi4/basis/aug-cc-pvtz-jkfit.gbs 
    atoms 13    entry O          line   285 file /cbio/jclab/home/chayas/anaconda/envs/py35/share/psi4/basis/aug-cc-pvtz-jkfit.gbs 
    atoms 14-21 entry H          line    69 file /cbio/jclab/home/chayas/anaconda/envs/py35/share/psi4/basis/aug-cc-pvtz-jkfit.gbs 

  Reading orbitals from file 180, no projection.

  ==> Pre-Iterations <==

   -------------------------------------------------------
    Irrep   Nso     Nmo     Nalpha   Nbeta   Ndocc  Nsocc
   -------------------------------------------------------
     A        782     782       0       0       0       0
   -------------------------------------------------------
    Total     782     782      45      45      45       0
   -------------------------------------------------------

  ==> Integral Setup <==

  ==> DFJK: Density-Fitted J/K Matrices <==

    J tasked:                  Yes
    K tasked:                  Yes
    wK tasked:                  No
    OpenMP threads:              8
    Integrals threads:           8
    Memory (MB):              3576
    Algorithm:                Disk
    Integral Cache:           NONE
    Schwarz Cutoff:          1E-12
    Fitting Condition:       1E-12

   => Auxiliary Basis Set <=

  Basis Set: (AUG-CC-PVTZ AUX)
    Blend: AUG-CC-PVTZ-JKFIT
    Number of shells: 502
    Number of basis function: 1720
    Number of Cartesian functions: 2143
    Spherical Harmonics?: true
    Max angular momentum: 4

  Minimum eigenvalue in the overlap matrix is 3.3380037092E-07.
  Using Symmetric Orthogonalization.

  SCF Guess: Orbitals guess was supplied from a previous computation.

  ==> Iterations <==

                           Total Energy        Delta E     RMS |[F,P]|

   @DF-RHF iter   0:  -550.71921464215586   -5.50719e+02   4.97921e-04 
   @DF-RHF iter   1:  -550.71201657883694    7.19806e-03   6.32773e-05 
   @DF-RHF iter   2:  -550.71243904329197   -4.22464e-04   2.28967e-05 DIIS
   @DF-RHF iter   3:  -550.71249215625039   -5.31130e-05   1.23886e-05 DIIS
   @DF-RHF iter   4:  -550.71250754118012   -1.53849e-05   4.66642e-06 DIIS
   @DF-RHF iter   5:  -550.71251002031215   -2.47913e-06   1.85295e-06 DIIS
   @DF-RHF iter   6:  -550.71251065060187   -6.30290e-07   5.54936e-07 DIIS
   @DF-RHF iter   7:  -550.71251072722430   -7.66224e-08   2.14376e-07 DIIS
   @DF-RHF iter   8:  -550.71251073605220   -8.82790e-09   1.13924e-07 DIIS
   @DF-RHF iter   9:  -550.71251073796043   -1.90823e-09   3.28466e-08 DIIS
   @DF-RHF iter  10:  -550.71251073825988   -2.99451e-10   1.24697e-08 DIIS
   @DF-RHF iter  11:  -550.71251073825829    1.59162e-12   4.27486e-09 DIIS
   @DF-RHF iter  12:  -550.71251073826181   -3.52429e-12   1.62661e-09 DIIS
   @DF-RHF iter  13:  -550.71251073827432   -1.25056e-11   7.56517e-10 DIIS
   @DF-RHF iter  14:  -550.71251073828273   -8.41283e-12   3.89935e-10 DIIS
   @DF-RHF iter  15:  -550.71251073827716    5.57066e-12   1.83113e-10 DIIS
   @DF-RHF iter  16:  -550.71251073827807   -9.09495e-13   7.50467e-11 DIIS

  ==> Post-Iterations <==

    Orbital Energies (a.u.)
    -----------------------

    Doubly Occupied:                                                      

       1A    -20.303800     2A    -15.442339     3A    -11.164405  
       4A    -11.164381     5A    -11.142797     6A    -11.120991  
       7A    -11.113802     8A    -11.113768     9A    -11.102989  
      10A    -11.102893    11A    -11.076652    12A    -11.064843  
      13A    -11.064804    14A     -1.134528    15A     -1.133396  
      16A     -1.020397    17A     -0.956800    18A     -0.920484  
      19A     -0.871334    20A     -0.838637    21A     -0.747645  
      22A     -0.731835    23A     -0.679631    24A     -0.649454  
      25A     -0.600183    26A     -0.547900    27A     -0.546706  
      28A     -0.498832    29A     -0.493045    30A     -0.480830  
      31A     -0.480611    32A     -0.440976    33A     -0.433078  
      34A     -0.409864    35A     -0.407576    36A     -0.383565  
      37A     -0.354179    38A     -0.354104    39A     -0.318469  
      40A     -0.303164    41A     -0.242168    42A     -0.240739  
      43A     -0.220083    44A     -0.201154    45A     -0.106758  

    Virtual:                                                              

      46A      0.098944    47A      0.099761    48A      0.115752  
      49A      0.115875    50A      0.128046    51A      0.134392  
      52A      0.148646    53A      0.150985    54A      0.160915  
      55A      0.166438    56A      0.177835    57A      0.183532  
      58A      0.185006    59A      0.186526    60A      0.192050  
      61A      0.199044    62A      0.204100    63A      0.206527  
      64A      0.208896    65A      0.212679    66A      0.214081  
      67A      0.219134    68A      0.223975    69A      0.225014  
      70A      0.227402    71A      0.234440    72A      0.236491  
      73A      0.240110    74A      0.244737    75A      0.246904  
      76A      0.253820    77A      0.261224    78A      0.262797  
      79A      0.264396    80A      0.271580    81A      0.272966  
      82A      0.273915    83A      0.281416    84A      0.294960  
      85A      0.298005    86A      0.300134    87A      0.305734  
      88A      0.311353    89A      0.314390    90A      0.321462  
      91A      0.331241    92A      0.332977    93A      0.337782  
      94A      0.338172    95A      0.342455    96A      0.349388  
      97A      0.361125    98A      0.363424    99A      0.369432  
     100A      0.377201   101A      0.377749   102A      0.378449  
     103A      0.385978   104A      0.387274   105A      0.389404  
     106A      0.393679   107A      0.399715   108A      0.401666  
     109A      0.407544   110A      0.412060   111A      0.422244  
     112A      0.424633   113A      0.430579   114A      0.431665  
     115A      0.434058   116A      0.440983   117A      0.449842  
     118A      0.455512   119A      0.458606   120A      0.459902  
     121A      0.472089   122A      0.476227   123A      0.483203  
     124A      0.488073   125A      0.492653   126A      0.494845  
     127A      0.510246   128A      0.514219   129A      0.524063  
     130A      0.525878   131A      0.526936   132A      0.530522  
     133A      0.534262   134A      0.537798   135A      0.541246  
     136A      0.548182   137A      0.554613   138A      0.560225  
     139A      0.562237   140A      0.564509   141A      0.569713  
     142A      0.571327   143A      0.575634   144A      0.576510  
     145A      0.578091   146A      0.584882   147A      0.588410  
     148A      0.595143   149A      0.601572   150A      0.606626  
     151A      0.606807   152A      0.610189   153A      0.612163  
     154A      0.613940   155A      0.614748   156A      0.620582  
     157A      0.621762   158A      0.631946   159A      0.635958  
     160A      0.646176   161A      0.649257   162A      0.653054  
     163A      0.657704   164A      0.659734   165A      0.661306  
     166A      0.664554   167A      0.670520   168A      0.672119  
     169A      0.680001   170A      0.683285   171A      0.693019  
     172A      0.696219   173A      0.706708   174A      0.710436  
     175A      0.711146   176A      0.715528   177A      0.725716  
     178A      0.728693   179A      0.737096   180A      0.750843  
     181A      0.752375   182A      0.766617   183A      0.773963  
     184A      0.774724   185A      0.784015   186A      0.786345  
     187A      0.792010   188A      0.792708   189A      0.803252  
     190A      0.804886   191A      0.809374   192A      0.812232  
     193A      0.819461   194A      0.825310   195A      0.830220  
     196A      0.840640   197A      0.847748   198A      0.853464  
     199A      0.862465   200A      0.865849   201A      0.866969  
     202A      0.879231   203A      0.882086   204A      0.883613  
     205A      0.891395   206A      0.906107   207A      0.909357  
     208A      0.909842   209A      0.915496   210A      0.926344  
     211A      0.938349   212A      0.940413   213A      0.946696  
     214A      0.956178   215A      0.959165   216A      0.964154  
     217A      0.972095   218A      0.978933   219A      0.990481  
     220A      0.992427   221A      0.992859   222A      0.996020  
     223A      1.001027   224A      1.006107   225A      1.012879  
     226A      1.015028   227A      1.019154   228A      1.021607  
     229A      1.028117   230A      1.032277   231A      1.048206  
     232A      1.050250   233A      1.051207   234A      1.051573  
     235A      1.062693   236A      1.064191   237A      1.066216  
     238A      1.070992   239A      1.073119   240A      1.081102  
     241A      1.085856   242A      1.089126   243A      1.092285  
     244A      1.094852   245A      1.096759   246A      1.111759  
     247A      1.112604   248A      1.115168   249A      1.120406  
     250A      1.122159   251A      1.126402   252A      1.129279  
     253A      1.132148   254A      1.133988   255A      1.138034  
     256A      1.140562   257A      1.143570   258A      1.150709  
     259A      1.163852   260A      1.164447   261A      1.167122  
     262A      1.175785   263A      1.177151   264A      1.182268  
     265A      1.186406   266A      1.197513   267A      1.199810  
     268A      1.206650   269A      1.214698   270A      1.220758  
     271A      1.230965   272A      1.234306   273A      1.236740  
     274A      1.239106   275A      1.244351   276A      1.255482  
     277A      1.259247   278A      1.259625   279A      1.278884  
     280A      1.282778   281A      1.288254   282A      1.291112  
     283A      1.296305   284A      1.298658   285A      1.304026  
     286A      1.307424   287A      1.308711   288A      1.312688  
     289A      1.316478   290A      1.320667   291A      1.332768  
     292A      1.343947   293A      1.348527   294A      1.350065  
     295A      1.357129   296A      1.363218   297A      1.365295  
     298A      1.369949   299A      1.371275   300A      1.372196  
     301A      1.383974   302A      1.388714   303A      1.402114  
     304A      1.404148   305A      1.418815   306A      1.420811  
     307A      1.429904   308A      1.431241   309A      1.434807  
     310A      1.440507   311A      1.446077   312A      1.450081  
     313A      1.453892   314A      1.468841   315A      1.474810  
     316A      1.485374   317A      1.488520   318A      1.494899  
     319A      1.507931   320A      1.511122   321A      1.529071  
     322A      1.532516   323A      1.538786   324A      1.550596  
     325A      1.553234   326A      1.558449   327A      1.569520  
     328A      1.580043   329A      1.587337   330A      1.596535  
     331A      1.614613   332A      1.625483   333A      1.626523  
     334A      1.627697   335A      1.634609   336A      1.649726  
     337A      1.658323   338A      1.665335   339A      1.669873  
     340A      1.679595   341A      1.685922   342A      1.690093  
     343A      1.709543   344A      1.713523   345A      1.723519  
     346A      1.730063   347A      1.749392   348A      1.774299  
     349A      1.778084   350A      1.783462   351A      1.791170  
     352A      1.792907   353A      1.795707   354A      1.797567  
     355A      1.800974   356A      1.818701   357A      1.821978  
     358A      1.828235   359A      1.836152   360A      1.839856  
     361A      1.843979   362A      1.851473   363A      1.859000  
     364A      1.862522   365A      1.865929   366A      1.879416  
     367A      1.901900   368A      1.903574   369A      1.912375  
     370A      1.919369   371A      1.932110   372A      1.946650  
     373A      1.947608   374A      1.959649   375A      1.961482  
     376A      1.976139   377A      1.979485   378A      1.999550  
     379A      2.001294   380A      2.007950   381A      2.015930  
     382A      2.032165   383A      2.037784   384A      2.054238  
     385A      2.064274   386A      2.071299   387A      2.077673  
     388A      2.091008   389A      2.100999   390A      2.105452  
     391A      2.112373   392A      2.121379   393A      2.129309  
     394A      2.131614   395A      2.133451   396A      2.136434  
     397A      2.138364   398A      2.144230   399A      2.169840  
     400A      2.172534   401A      2.177338   402A      2.179346  
     403A      2.185086   404A      2.188918   405A      2.190983  
     406A      2.197087   407A      2.209607   408A      2.215919  
     409A      2.216622   410A      2.235506   411A      2.251475  
     412A      2.254664   413A      2.259582   414A      2.265353  
[...]
      52A      0.132482    53A      0.135022    54A      0.160961  
      55A      0.167578    56A      0.174227    57A      0.178078  
      58A      0.181466    59A      0.184878    60A      0.187826  
      61A      0.191953    62A      0.195986    63A      0.200263  
      64A      0.206253    65A      0.210114    66A      0.214289  
      67A      0.214622    68A      0.216295    69A      0.221819  
      70A      0.223732    71A      0.228994    72A      0.233653  
      73A      0.234981    74A      0.240412    75A      0.242253  
      76A      0.247872    77A      0.248988    78A      0.253590  
      79A      0.255607    80A      0.262807    81A      0.267646  
      82A      0.271614    83A      0.280365    84A      0.288280  
      85A      0.292684    86A      0.295617    87A      0.298950  
      88A      0.299892    89A      0.306727    90A      0.315167  
      91A      0.323791    92A      0.329263    93A      0.332783  
      94A      0.333846    95A      0.337157    96A      0.343035  
      97A      0.345048    98A      0.351172    99A      0.355922  
     100A      0.363389   101A      0.368854   102A      0.375951  
     103A      0.379895   104A      0.386255   105A      0.389184  
     106A      0.392263   107A      0.395058   108A      0.397069  
     109A      0.406265   110A      0.408998   111A      0.411757  
     112A      0.414575   113A      0.423425   114A      0.424212  
     115A      0.427731   116A      0.437405   117A      0.441454  
     118A      0.444294   119A      0.454160   120A      0.457506  
     121A      0.462004   122A      0.464092   123A      0.472608  
     124A      0.477399   125A      0.477742   126A      0.481720  
     127A      0.489473   128A      0.491665   129A      0.501640  
     130A      0.505368   131A      0.511321   132A      0.514748  
     133A      0.525421   134A      0.535370   135A      0.537140  
     136A      0.542345   137A      0.544536   138A      0.549144  
     139A      0.552789   140A      0.555462   141A      0.556905  
     142A      0.560317   143A      0.565637   144A      0.571117  
     145A      0.573037   146A      0.583671   147A      0.584592  
     148A      0.588689   149A      0.591615   150A      0.593851  
     151A      0.597963   152A      0.600344   153A      0.606580  
     154A      0.610524   155A      0.612439   156A      0.617083  
     157A      0.621064   158A      0.626245   159A      0.628907  
     160A      0.632909   161A      0.635924   162A      0.641468  
     163A      0.644281   164A      0.646321   165A      0.650096  
     166A      0.659150   167A      0.663081   168A      0.665971  
     169A      0.671413   170A      0.676737   171A      0.681748  
     172A      0.682459   173A      0.688963   174A      0.693977  
     175A      0.697756   176A      0.706997   177A      0.710165  
     178A      0.718113   179A      0.726343   180A      0.728872  
     181A      0.733513   182A      0.742123   183A      0.748612  
     184A      0.757836   185A      0.761396   186A      0.765032  
     187A      0.771955   188A      0.778287   189A      0.783581  
     190A      0.787365   191A      0.790105   192A      0.792843  
     193A      0.800902   194A      0.807737   195A      0.814542  
     196A      0.821736   197A      0.832276   198A      0.839245  
     199A      0.849947   200A      0.854672   201A      0.860332  
     202A      0.862484   203A      0.865963   204A      0.873411  
     205A      0.876433   206A      0.888902   207A      0.894904  
     208A      0.897081   209A      0.900484   210A      0.901391  
     211A      0.909284   212A      0.915841   213A      0.920304  
     214A      0.928421   215A      0.936609   216A      0.941142  
     217A      0.947550   218A      0.956254   219A      0.961965  
     220A      0.966257   221A      0.974714   222A      0.977721  
     223A      0.988073   224A      0.995602   225A      0.998264  
     226A      1.002598   227A      1.008918   228A      1.014912  
     229A      1.015421   230A      1.022332   231A      1.028066  
     232A      1.034754   233A      1.037661   234A      1.042272  
     235A      1.044506   236A      1.047014   237A      1.053656  
     238A      1.059698   239A      1.063030   240A      1.064642  
     241A      1.069438   242A      1.073564   243A      1.077986  
     244A      1.082490   245A      1.085161   246A      1.091808  
     247A      1.097876   248A      1.106731   249A      1.112622  
     250A      1.114453   251A      1.119865   252A      1.124706  
     253A      1.129725   254A      1.132908   255A      1.135087  
     256A      1.145570   257A      1.147836   258A      1.152990  
     259A      1.160356   260A      1.163068   261A      1.166640  
     262A      1.173754   263A      1.178761   264A      1.183856  
     265A      1.185509   266A      1.190607   267A      1.192180  
     268A      1.198998   269A      1.204631   270A      1.209862  
     271A      1.220200   272A      1.221584   273A      1.230931  
     274A      1.232654   275A      1.236613   276A      1.240931  
     277A      1.246785   278A      1.252110   279A      1.257942  
     280A      1.262570   281A      1.264769   282A      1.268758  
     283A      1.280066   284A      1.283776   285A      1.286438  
     286A      1.290900   287A      1.294742   288A      1.298194  
     289A      1.301590   290A      1.307019   291A      1.319950  
     292A      1.324053   293A      1.328610   294A      1.332701  
     295A      1.337165   296A      1.345413   297A      1.349328  
     298A      1.356263   299A      1.358455   300A      1.363958  
     301A      1.368413   302A      1.378397   303A      1.384112  
     304A      1.389317   305A      1.390206   306A      1.398037  
     307A      1.403259   308A      1.406999   309A      1.417512  
     310A      1.422050   311A      1.428259   312A      1.436020  
     313A      1.443991   314A      1.447616   315A      1.459116  
     316A      1.467439   317A      1.474516   318A      1.478466  
     319A      1.486369   320A      1.496970   321A      1.505284  
     322A      1.511686   323A      1.532110   324A      1.540146  
     325A      1.547895   326A      1.558618   327A      1.562602  
     328A      1.569871   329A      1.580428   330A      1.582936  
     331A      1.587609   332A      1.590799   333A      1.603229  
     334A      1.609943   335A      1.613695   336A      1.629088  
     337A      1.631963   338A      1.642067   339A      1.647135  
     340A      1.659892   341A      1.665453   342A      1.671606  
     343A      1.674944   344A      1.681081   345A      1.699017  
     346A      1.706667   347A      1.712882   348A      1.730495  
     349A      1.742345   350A      1.744616   351A      1.749312  
     352A      1.757113   353A      1.765779   354A      1.775466  
     355A      1.783934   356A      1.788397   357A      1.800155  
     358A      1.809924   359A      1.813721   360A      1.820911  
     361A      1.831150   362A      1.840128   363A      1.845577  
     364A      1.851126   365A      1.858255   366A      1.868245  
     367A      1.878580   368A      1.883068   369A      1.896094  
     370A      1.906200   371A      1.914733   372A      1.919888  
     373A      1.926045   374A      1.929581   375A      1.946337  
     376A      1.951524   377A      1.961260   378A      1.963981  
     379A      1.966552   380A      1.975561   381A      1.982113  
     382A      1.991447   383A      1.999946   384A      2.002440  
     385A      2.011747   386A      2.020136   387A      2.034892  
     388A      2.040204   389A      2.044736   390A      2.048032  
     391A      2.060009   392A      2.071331   393A      2.081063  
     394A      2.084224   395A      2.091377   396A      2.101516  
     397A      2.109646   398A      2.112929   399A      2.124884  
     400A      2.126171   401A      2.135956   402A      2.149569  
     403A      2.157042   404A      2.162719   405A      2.165173  
     406A      2.173899   407A      2.181009   408A      2.187088  
     409A      2.199941   410A      2.211620   411A      2.214824  
     412A      2.222371   413A      2.228113   414A      2.237779  
     415A      2.248357   416A      2.254976   417A      2.261628  
     418A      2.268926   419A      2.283201   420A      2.289270  
     421A      2.292287   422A      2.297361   423A      2.307243  
     424A      2.315741   425A      2.326804   426A      2.340629  
     427A      2.351410   428A      2.357098   429A      2.360205  
     430A      2.375063   431A      2.383266   432A      2.388301  
     433A      2.393146   434A      2.404253   435A      2.405238  
     436A      2.428194   437A      2.431377   438A      2.438366  
     439A      2.440287   440A      2.451788   441A      2.463111  
     442A      2.471456   443A      2.483330   444A      2.503805  
     445A      2.524940   446A      2.529017   447A      2.546579  
     448A      2.552055   449A      2.568361   450A      2.570899  
     451A      2.580766   452A      2.590348   453A      2.605539  
     454A      2.607879   455A      2.620710   456A      2.629447  
     457A      2.635785   458A      2.649891   459A      2.652338  
     460A      2.683880   461A      2.696193   462A      2.698331  
     463A      2.722490   464A      2.724613   465A      2.733863  
     466A      2.756202   467A      2.765898   468A      2.777927  
     469A      2.800438   470A      2.805156   471A      2.826691  
     472A      2.836300   473A      2.842891   474A      2.855291  
     475A      2.874696   476A      2.882870   477A      2.895199  
     478A      2.910658   479A      2.937341   480A      2.963724  
     481A      2.978021   482A      2.993669   483A      3.016549  
     484A      3.027343   485A      3.038793   486A      3.065146  
     487A      3.100422   488A      3.112305   489A      3.142168  
     490A      3.156190   491A      3.171873   492A      3.193877  
     493A      3.201712   494A      3.217786   495A      3.220816  
     496A      3.281627   497A      3.286496   498A      3.297323  
     499A      3.333552   500A      3.347772   501A      3.355805  
     502A      3.373722   503A      3.386650   504A      3.396842  
     505A      3.422416   506A      3.439692   507A      3.452897  
     508A      3.463187   509A      3.478881   510A      3.483936  
     511A      3.501431   512A      3.510554   513A      3.517391  
     514A      3.528418   515A      3.533817   516A      3.545341  
     517A      3.562074   518A      3.564095   519A      3.578034  
     520A      3.589415   521A      3.598319   522A      3.608102  
     523A      3.621397   524A      3.630371   525A      3.632144  
     526A      3.643811   527A      3.648571   528A      3.652493  
     529A      3.665481   530A      3.671542   531A      3.678582  
     532A      3.683942   533A      3.688278   534A      3.707434  
     535A      3.711630   536A      3.716286   537A      3.726698  
     538A      3.735479   539A      3.737964   540A      3.751423  
     541A      3.756845   542A      3.774047   543A      3.780040  
     544A      3.788725   545A      3.792240   546A      3.810675  
     547A      3.817319   548A      3.825299   549A      3.832722  
     550A      3.843209   551A      3.844283   552A      3.854161  
     553A      3.866307   554A      3.879386   555A      3.892923  
     556A      3.900315   557A      3.902901   558A      3.921126  
     559A      3.926081   560A      3.948979   561A      3.953087  
     562A      3.954759   563A      3.971211   564A      3.974310  
     565A      3.984028   566A      4.006262   567A      4.010964  
     568A      4.016786   569A      4.027128   570A      4.037486  
     571A      4.039125   572A      4.050104   573A      4.060198  
     574A      4.062971   575A      4.075703   576A      4.091219  
     577A      4.096591   578A      4.099702   579A      4.109395  
     580A      4.114758   581A      4.123777   582A      4.127077  
     583A      4.142091   584A      4.150648   585A      4.162382  
     586A      4.184487   587A      4.194017   588A      4.202259  
     589A      4.205282   590A      4.207775   591A      4.223153  
     592A      4.228347   593A      4.246069   594A      4.251297  
     595A      4.260231   596A      4.274180   597A      4.278529  
     598A      4.283647   599A      4.301897   600A      4.311718  
     601A      4.318039   602A      4.334336   603A      4.344857  
     604A      4.350742   605A      4.355767   606A      4.364606  
     607A      4.369560   608A      4.380783   609A      4.391343  
     610A      4.397193   611A      4.412752   612A      4.428876  
     613A      4.433751   614A      4.450047   615A      4.455616  
     616A      4.465174   617A      4.475046   618A      4.477824  
     619A      4.484419   620A      4.496437   621A      4.507199  
     622A      4.520590   623A      4.529529   624A      4.540450  
     625A      4.552696   626A      4.557316   627A      4.561651  
     628A      4.580291   629A      4.589217   630A      4.600172  
     631A      4.608296   632A      4.625669   633A      4.632216  
     634A      4.638175   635A      4.644736   636A      4.653859  
     637A      4.657535   638A      4.679458   639A      4.688583  
     640A      4.697365   641A      4.715574   642A      4.723416  
     643A      4.730168   644A      4.763399   645A      4.766365  
     646A      4.802971   647A      4.808509   648A      4.818986  
     649A      4.847560   650A      4.853390   651A      4.876711  
     652A      4.889301   653A      4.916311   654A      4.922417  
     655A      4.934797   656A      4.946387   657A      4.974114  
     658A      4.993795   659A      5.001222   660A      5.011068  
     661A      5.032934   662A      5.046071   663A      5.059379  
     664A      5.078023   665A      5.080796   666A      5.093058  
     667A      5.100206   668A      5.104309   669A      5.116572  
     670A      5.133749   671A      5.150801   672A      5.164562  
     673A      5.165641   674A      5.179681   675A      5.201603  
     676A      5.213029   677A      5.224278   678A      5.231036  
     679A      5.237267   680A      5.243694   681A      5.262859  
     682A      5.266393   683A      5.271759   684A      5.283698  
     685A      5.288203   686A      5.297688   687A      5.306581  
     688A      5.329209   689A      5.349921   690A      5.365459  
     691A      5.366567   692A      5.386882   693A      5.405539  
     694A      5.417829   695A      5.428651   696A      5.441681  
     697A      5.463170   698A      5.479379   699A      5.522573  
     700A      5.542792   701A      5.544805   702A      5.553623  
     703A      5.573639   704A      5.588959   705A      5.615543  
     706A      5.623864   707A      5.631944   708A      5.661072  
     709A      5.691498   710A      5.695394   711A      5.721792  
     712A      5.749527   713A      5.757978   714A      5.774323  
     715A      5.800682   716A      5.823840   717A      5.834122  
     718A      5.851639   719A      5.869450   720A      5.897026  
     721A      5.916648   722A      5.931266   723A      5.992521  
     724A      6.004350   725A      6.007130   726A      6.040254  
     727A      6.043716   728A      6.097018   729A      6.196432  
     730A      6.203855   731A      6.252914   732A      6.263156  
     733A      6.287344   734A      6.298291   735A      6.329323  
     736A      6.348008   737A      6.440081   738A      6.454226  
     739A      6.514723   740A      6.557093   741A      6.627437  
     742A      6.656228   743A      6.692108   744A      6.735662  
     745A      6.784646   746A      6.793998   747A      6.819148  
     748A      6.830623   749A      6.852560   750A      6.903666  
     751A      6.955010   752A      7.021052   753A      7.039563  
     754A      7.071963   755A      7.093174   756A      7.112056  
     757A      7.128286   758A      7.180700   759A      7.216402  
     760A      7.292925   761A      7.378135   762A      7.463756  
     763A      7.602533   764A      7.649223   765A      7.902171  
     766A      7.957175   767A      8.033285   768A      8.143948  
     769A      8.207873   770A     15.839706   771A     16.078671  
     772A     16.555525   773A     17.126750   774A     17.243083  
     775A     17.289065   776A     18.388639   777A     19.147548  
     778A     19.384588   779A     19.680639   780A     19.886536  
     781A     20.412199   782A     20.470730  

    Final Occupation by Irrep:
              A 
    DOCC [    45 ]

  Energy converged.

  @DF-RHF Final Energy:  -550.64681390715566

   => Energetics <=

    Nuclear Repulsion Energy =            682.0623063694789607
    One-Electron Energy =               -2113.7377467706337484
    Two-Electron Energy =                 881.0286264939992407
    DFT Exchange-Correlation Energy =       0.0000000000000000
    Empirical Dispersion Energy =           0.0000000000000000
    PCM Polarization Energy =               0.0000000000000000
    EFP Energy =                            0.0000000000000000
    Total Energy =                       -550.6468139071556607



Properties will be evaluated at   0.000000,   0.000000,   0.000000 Bohr

Properties computed using the SCF density matrix

  Nuclear Dipole Moment: (a.u.)
     X:     2.7620      Y:    -0.6970      Z:    -1.5971

  Electronic Dipole Moment: (a.u.)
     X:     0.0450      Y:    -1.1323      Z:    -0.3150

  Dipole Moment: (a.u.)
     X:     2.8070      Y:    -1.8293      Z:    -1.9122     Total:     3.8577

  Dipole Moment: (Debye)
     X:     7.1347      Y:    -4.6495      Z:    -4.8602     Total:     9.8053


*** tstop() called on gpu-2-14.local at Mon Nov 13 03:18:58 2017
Module time:
	user time   =     822.03 seconds =      13.70 minutes
	system time =      40.05 seconds =       0.67 minutes
	total time  =        331 seconds =       5.52 minutes
Total time:
	user time   =  185830.81 seconds =    3097.18 minutes
	system time =    4125.13 seconds =      68.75 minutes
	total time  =      85402 seconds =    1423.37 minutes

  //>>>>>>>>>>>>>>>>>>>>>>>>>>>>>>>>>>>//
  //               DFMP2               //
  //<<<<<<<<<<<<<<<<<<<<<<<<<<<<<<<<<<<//

   => Loading Basis Set <=

    Name: (AUG-CC-PVTZ AUX)
    Role: RIFIT
    Keyword: DF_BASIS_MP2
    atoms 1-11  entry C          line   147 file /cbio/jclab/home/chayas/anaconda/envs/py35/share/psi4/basis/aug-cc-pvtz-ri.gbs 
    atoms 12    entry N          line   205 file /cbio/jclab/home/chayas/anaconda/envs/py35/share/psi4/basis/aug-cc-pvtz-ri.gbs 
    atoms 13    entry O          line   263 file /cbio/jclab/home/chayas/anaconda/envs/py35/share/psi4/basis/aug-cc-pvtz-ri.gbs 
    atoms 14-21 entry H          line    29 file /cbio/jclab/home/chayas/anaconda/envs/py35/share/psi4/basis/aug-cc-pvtz-ri.gbs 

	 --------------------------------------------------------
	                          DF-MP2                         
	      2nd-Order Density-Fitted Moller-Plesset Theory     
	              RMP2 Wavefunction,   8 Threads             
	                                                         
	        Rob Parrish, Justin Turney, Andy Simmonett,      
	           Ed Hohenstein, and C. David Sherrill          
	 --------------------------------------------------------

   => Auxiliary Basis Set <=

  Basis Set: (AUG-CC-PVTZ AUX)
    Blend: AUG-CC-PVTZ-RI
    Number of shells: 476
    Number of basis function: 1746
    Number of Cartesian functions: 2208
    Spherical Harmonics?: true
    Max angular momentum: 4

	 --------------------------------------------------------
	                 NBF =   782, NAUX =  1746
	 --------------------------------------------------------
	   CLASS    FOCC     OCC    AOCC    AVIR     VIR    FVIR
	   PAIRS       0      45      45     737     737       0
	 --------------------------------------------------------

