
    -----------------------------------------------------------------------
          Psi4: An Open-Source Ab Initio Electronic Structure Package
                               Psi4 1.1 release

                         Git: Rev {HEAD} add49b9 


    R. M. Parrish, L. A. Burns, D. G. A. Smith, A. C. Simmonett,
    A. E. DePrince III, E. G. Hohenstein, U. Bozkaya, A. Yu. Sokolov,
    R. Di Remigio, R. M. Richard, J. F. Gonthier, A. M. James,
    H. R. McAlexander, A. Kumar, M. Saitow, X. Wang, B. P. Pritchard,
    P. Verma, H. F. Schaefer III, K. Patkowski, R. A. King, E. F. Valeev,
    F. A. Evangelista, J. M. Turney, T. D. Crawford, and C. D. Sherrill,
    J. Chem. Theory Comput. in press (2017).
    (doi: 10.1021/acs.jctc.7b00174)

    -----------------------------------------------------------------------


    Psi4 started on: Sunday, 12 November 2017 07:52AM

    Process ID:   2659
    PSIDATADIR: /cbio/jclab/home/chayas/anaconda/envs/py35/share/psi4
    Memory:     500.0 MiB
    Threads:    8
    
  ==> Input File <==

--------------------------------------------------------------------------

memory 5 Gb

molecule phepyrOH_cation {
  symmetry C1
  1 1 
  C      1.885   -1.036   -0.112
  C      2.878   -1.652   2.002
  C      0.807   -0.463   0.561
  C      1.800   -1.079   2.676
  C      3.889   -3.451   -0.732
  C      5.269   -1.573   -0.121
  C      4.979   -3.997   -1.394
  C      6.324   -2.167   -0.798
  C      2.921   -1.631   0.608
  C      4.040   -2.225   -0.090
  C      0.764   -0.484   1.955
  N      6.151   -3.348   -1.407
  O      -0.288   0.076   2.612
  H      1.904   -1.012   -1.199
  H      3.678   -2.112   2.578
  H      0.003   -0.001   -0.006
  H      1.772   -1.098   3.762
  H      2.941   -3.982   -0.725
  H      5.415   -0.616   0.372
  H      4.953   -4.942   -1.919
  H      7.312   -1.734   -0.873
  H      6.940   -3.768   -1.898
  H      -0.175   -0.018   3.571
  units Angstrom
}

dih_string = "1 9 10 5 285"
set optking fixed_dihedral = $dih_string

optimize('MP2/aug-cc-PVTZ')
--------------------------------------------------------------------------

  Memory set to   4.657 GiB by Python driver.
gradient() will perform analytic gradient computation.

*** tstart() called on gpu-1-17.local
*** at Sun Nov 12 07:52:37 2017

    SCF Algorithm Type (re)set to DF.

*** tstart() called on gpu-1-17.local
*** at Sun Nov 12 07:52:37 2017

   => Loading Basis Set <=

    Name: AUG-CC-PVTZ
    Role: ORBITAL
    Keyword: BASIS
    atoms 1-11  entry C          line   221 file /cbio/jclab/home/chayas/anaconda/envs/py35/share/psi4/basis/aug-cc-pvtz.gbs 
    atoms 12    entry N          line   267 file /cbio/jclab/home/chayas/anaconda/envs/py35/share/psi4/basis/aug-cc-pvtz.gbs 
    atoms 13    entry O          line   313 file /cbio/jclab/home/chayas/anaconda/envs/py35/share/psi4/basis/aug-cc-pvtz.gbs 
    atoms 14-23 entry H          line    34 file /cbio/jclab/home/chayas/anaconda/envs/py35/share/psi4/basis/aug-cc-pvtz.gbs 


         ---------------------------------------------------------
                                   SCF
            by Justin Turney, Rob Parrish, and Andy Simmonett
                              RHF Reference
                        8 Threads,   4768 MiB Core
         ---------------------------------------------------------

  ==> Geometry <==

    Molecular point group: c1
    Full point group: C1

    Geometry (in Angstrom), charge = 1, multiplicity = 1:

       Center              X                  Y                   Z               Mass       
    ------------   -----------------  -----------------  -----------------  -----------------
           C         -1.271817241082     0.720178367234    -0.579397796739    12.000000000000
           C         -0.278817241082     0.104178367234     1.534602203261    12.000000000000
           C         -2.349817241082     1.293178367234     0.093602203261    12.000000000000
           C         -1.356817241082     0.677178367234     2.208602203261    12.000000000000
           C          0.732182758918    -1.694821632766    -1.199397796739    12.000000000000
           C          2.112182758918     0.183178367234    -0.588397796739    12.000000000000
           C          1.822182758918    -2.240821632766    -1.861397796739    12.000000000000
           C          3.167182758918    -0.410821632766    -1.265397796739    12.000000000000
           C         -0.235817241082     0.125178367234     0.140602203261    12.000000000000
           C          0.883182758918    -0.468821632766    -0.557397796739    12.000000000000
           C         -2.392817241082     1.272178367234     1.487602203261    12.000000000000
           N          2.994182758918    -1.591821632766    -1.874397796739    14.003074004780
           O         -3.444817241082     1.832178367234     2.144602203261    15.994914619560
           H         -1.252817241082     0.744178367234    -1.666397796739     1.007825032070
           H          0.521182758918    -0.355821632766     2.110602203261     1.007825032070
           H         -3.153817241082     1.755178367234    -0.473397796739     1.007825032070
           H         -1.384817241082     0.658178367234     3.294602203261     1.007825032070
           H         -0.215817241082    -2.225821632766    -1.192397796739     1.007825032070
           H          2.258182758918     1.140178367234    -0.095397796739     1.007825032070
           H          1.796182758918    -3.185821632766    -2.386397796739     1.007825032070
           H          4.155182758918     0.022178367234    -1.340397796739     1.007825032070
           H          3.783182758918    -2.011821632766    -2.365397796739     1.007825032070
           H         -3.331817241082     1.738178367234     3.103602203261     1.007825032070

  Running in c1 symmetry.

  Rotational constants: A =      0.09610  B =      0.01282  C =      0.01239 [cm^-1]
  Rotational constants: A =   2880.92556  B =    384.22029  C =    371.35999 [MHz]
  Nuclear repulsion =  711.849845577526253

  Charge       = 1
  Multiplicity = 1
  Electrons    = 90
  Nalpha       = 45
  Nbeta        = 45

  ==> Algorithm <==

  SCF Algorithm Type is DF.
  DIIS enabled.
  MOM disabled.
  Fractional occupation disabled.
  Guess Type is SAD.
  Energy threshold   = 1.00e-10
  Density threshold  = 1.00e-10
  Integral threshold = 0.00e+00

  ==> Primary Basis <==

  Basis Set: AUG-CC-PVTZ
    Blend: AUG-CC-PVTZ
    Number of shells: 272
    Number of basis function: 828
    Number of Cartesian functions: 965
    Spherical Harmonics?: true
    Max angular momentum: 3

   => Loading Basis Set <=

    Name: (AUG-CC-PVTZ AUX)
    Role: JKFIT
    Keyword: DF_BASIS_SCF
    atoms 1-11  entry C          line   161 file /cbio/jclab/home/chayas/anaconda/envs/py35/share/psi4/basis/aug-cc-pvtz-jkfit.gbs 
    atoms 12    entry N          line   223 file /cbio/jclab/home/chayas/anaconda/envs/py35/share/psi4/basis/aug-cc-pvtz-jkfit.gbs 
    atoms 13    entry O          line   285 file /cbio/jclab/home/chayas/anaconda/envs/py35/share/psi4/basis/aug-cc-pvtz-jkfit.gbs 
    atoms 14-23 entry H          line    69 file /cbio/jclab/home/chayas/anaconda/envs/py35/share/psi4/basis/aug-cc-pvtz-jkfit.gbs 

  ==> Pre-Iterations <==

   -------------------------------------------------------
    Irrep   Nso     Nmo     Nalpha   Nbeta   Ndocc  Nsocc
   -------------------------------------------------------
     A        828     828       0       0       0       0
   -------------------------------------------------------
    Total     828     828      45      45      45       0
   -------------------------------------------------------

  ==> Integral Setup <==

  ==> DFJK: Density-Fitted J/K Matrices <==

    J tasked:                  Yes
    K tasked:                  Yes
    wK tasked:                  No
    OpenMP threads:              8
    Integrals threads:           8
    Memory (MB):              3576
    Algorithm:                Disk
    Integral Cache:           NONE
    Schwarz Cutoff:          1E-12
    Fitting Condition:       1E-12

   => Auxiliary Basis Set <=

  Basis Set: (AUG-CC-PVTZ AUX)
    Blend: AUG-CC-PVTZ-JKFIT
    Number of shells: 530
    Number of basis function: 1812
    Number of Cartesian functions: 2253
    Spherical Harmonics?: true
    Max angular momentum: 4

  Minimum eigenvalue in the overlap matrix is 5.6672842295E-07.
  Using Symmetric Orthogonalization.

  SCF Guess: Superposition of Atomic Densities via on-the-fly atomic UHF.

  ==> Iterations <==

                           Total Energy        Delta E     RMS |[F,P]|

   @DF-RHF iter   0:  -553.42594044282339   -5.53426e+02   2.34707e-02 
   @DF-RHF iter   1:  -551.20515197477084    2.22079e+00   1.58172e-03 
   @DF-RHF iter   2:  -551.57007662160584   -3.64925e-01   1.32123e-03 DIIS
   @DF-RHF iter   3:  -551.64991491656224   -7.98383e-02   4.43011e-04 DIIS
   @DF-RHF iter   4:  -551.66693225692177   -1.70173e-02   1.44849e-04 DIIS
   @DF-RHF iter   5:  -551.66971822982543   -2.78597e-03   5.85376e-05 DIIS
   @DF-RHF iter   6:  -551.67015066358294   -4.32434e-04   2.10462e-05 DIIS
   @DF-RHF iter   7:  -551.67020329319632   -5.26296e-05   4.53439e-06 DIIS
   @DF-RHF iter   8:  -551.67020836634720   -5.07315e-06   1.95616e-06 DIIS
   @DF-RHF iter   9:  -551.67020899070872   -6.24362e-07   8.81307e-07 DIIS
   @DF-RHF iter  10:  -551.67020918066305   -1.89954e-07   4.11474e-07 DIIS
   @DF-RHF iter  11:  -551.67020923827488   -5.76118e-08   1.40143e-07 DIIS
   @DF-RHF iter  12:  -551.67020924466465   -6.38977e-09   5.03148e-08 DIIS
   @DF-RHF iter  13:  -551.67020924513395   -4.69299e-10   1.90785e-08 DIIS
   @DF-RHF iter  14:  -551.67020924520114   -6.71889e-11   7.68878e-09 DIIS
   @DF-RHF iter  15:  -551.67020924521523   -1.40972e-11   2.53006e-09 DIIS
   @DF-RHF iter  16:  -551.67020924521012    5.11591e-12   1.10607e-09 DIIS
   @DF-RHF iter  17:  -551.67020924520239    7.73070e-12   3.55005e-10 DIIS
   @DF-RHF iter  18:  -551.67020924522910   -2.67164e-11   2.35695e-10 DIIS
   @DF-RHF iter  19:  -551.67020924521057    1.85310e-11   1.06660e-10 DIIS
   @DF-RHF iter  20:  -551.67020924521057    0.00000e+00   4.87012e-11 DIIS

  ==> Post-Iterations <==

    Orbital Energies (a.u.)
    -----------------------

    Doubly Occupied:                                                      

       1A    -20.692336     2A    -15.845313     3A    -11.490488  
       4A    -11.490360     5A    -11.448820     6A    -11.421201  
       7A    -11.421164     8A    -11.420383     9A    -11.370300  
      10A    -11.368891    11A    -11.366273    12A    -11.350414  
      13A    -11.347038    14A     -1.519918    15A     -1.507880  
      16A     -1.320245    17A     -1.260754    18A     -1.243736  
      19A     -1.151562    20A     -1.141707    21A     -1.072069  
      22A     -1.055779    23A     -0.969544    24A     -0.968159  
      25A     -0.944861    26A     -0.875196    27A     -0.858773  
      28A     -0.846975    29A     -0.822358    30A     -0.801730  
      31A     -0.789113    32A     -0.776155    33A     -0.748954  
      34A     -0.729215    35A     -0.716773    36A     -0.710565  
      37A     -0.694656    38A     -0.681307    39A     -0.646051  
      40A     -0.616162    41A     -0.604950    42A     -0.576670  
      43A     -0.541899    44A     -0.462378    45A     -0.434966  

    Virtual:                                                              

      46A     -0.102585    47A     -0.087961    48A     -0.070190  
      49A     -0.063600    50A     -0.060099    51A     -0.053745  
      52A     -0.041986    53A     -0.040093    54A     -0.038861  
      55A     -0.032046    56A     -0.023750    57A     -0.018047  
      58A     -0.013359    59A     -0.010563    60A     -0.004339  
      61A     -0.003882    62A      0.001468    63A      0.007256  
      64A      0.009896    65A      0.014046    66A      0.014117  
      67A      0.016192    68A      0.018985    69A      0.026349  
      70A      0.028838    71A      0.031737    72A      0.033878  
      73A      0.035377    74A      0.038272    75A      0.042071  
      76A      0.042763    77A      0.045252    78A      0.055770  
      79A      0.058694    80A      0.061387    81A      0.063584  
      82A      0.069352    83A      0.075266    84A      0.079567  
      85A      0.085986    86A      0.088871    87A      0.093023  
      88A      0.094574    89A      0.096658    90A      0.101547  
      91A      0.103370    92A      0.107662    93A      0.117324  
      94A      0.124342    95A      0.130632    96A      0.131334  
      97A      0.136498    98A      0.137297    99A      0.142487  
     100A      0.146144   101A      0.149715   102A      0.153269  
     103A      0.159597   104A      0.162328   105A      0.164320  
     106A      0.168700   107A      0.173151   108A      0.174492  
     109A      0.176351   110A      0.178727   111A      0.183318  
     112A      0.188707   113A      0.191491   114A      0.194921  
     115A      0.197510   116A      0.204838   117A      0.207348  
     118A      0.212298   119A      0.215465   120A      0.218271  
     121A      0.221960   122A      0.224663   123A      0.229759  
     124A      0.231467   125A      0.235947   126A      0.238116  
     127A      0.246391   128A      0.247157   129A      0.252068  
     130A      0.256139   131A      0.260379   132A      0.261875  
     133A      0.274639   134A      0.276696   135A      0.279736  
     136A      0.282139   137A      0.289267   138A      0.294983  
     139A      0.297932   140A      0.301121   141A      0.305906  
     142A      0.310089   143A      0.316007   144A      0.323847  
     145A      0.326632   146A      0.328006   147A      0.328584  
     148A      0.330529   149A      0.334985   150A      0.338102  
     151A      0.341269   152A      0.345097   153A      0.349890  
     154A      0.353411   155A      0.354286   156A      0.357465  
     157A      0.362804   158A      0.365942   159A      0.367170  
     160A      0.371410   161A      0.372028   162A      0.375018  
     163A      0.377235   164A      0.384070   165A      0.388015  
     166A      0.390112   167A      0.394322   168A      0.400642  
     169A      0.402243   170A      0.408616   171A      0.412508  
     172A      0.413369   173A      0.417829   174A      0.421702  
     175A      0.425348   176A      0.428313   177A      0.431890  
     178A      0.436717   179A      0.439740   180A      0.444650  
     181A      0.450130   182A      0.455557   183A      0.462664  
     184A      0.465458   185A      0.469117   186A      0.481896  
     187A      0.485076   188A      0.487081   189A      0.491323  
     190A      0.494242   191A      0.496367   192A      0.500974  
     193A      0.511767   194A      0.515009   195A      0.529191  
     196A      0.530096   197A      0.541287   198A      0.543548  
     199A      0.551105   200A      0.555361   201A      0.569249  
     202A      0.570797   203A      0.575186   204A      0.580459  
     205A      0.585504   206A      0.589345   207A      0.593720  
     208A      0.599153   209A      0.602878   210A      0.606934  
     211A      0.612998   212A      0.615692   213A      0.621564  
     214A      0.624653   215A      0.628961   216A      0.636336  
     217A      0.640086   218A      0.641393   219A      0.643901  
     220A      0.652467   221A      0.658463   222A      0.663056  
     223A      0.675435   224A      0.676878   225A      0.682185  
     226A      0.693398   227A      0.697659   228A      0.709034  
     229A      0.719201   230A      0.720342   231A      0.725290  
     232A      0.735617   233A      0.745265   234A      0.747984  
     235A      0.749384   236A      0.752257   237A      0.753970  
     238A      0.759156   239A      0.766321   240A      0.771770  
     241A      0.775907   242A      0.779967   243A      0.781600  
     244A      0.784375   245A      0.789764   246A      0.792841  
     247A      0.794230   248A      0.797361   249A      0.802489  
     250A      0.804659   251A      0.808079   252A      0.810069  
     253A      0.813130   254A      0.824450   255A      0.830121  
     256A      0.834655   257A      0.840209   258A      0.843970  
     259A      0.852993   260A      0.857850   261A      0.859380  
     262A      0.866861   263A      0.869729   264A      0.875413  
     265A      0.880383   266A      0.881749   267A      0.886759  
     268A      0.896306   269A      0.898157   270A      0.908215  
     271A      0.909997   272A      0.910900   273A      0.916638  
     274A      0.928890   275A      0.933558   276A      0.934557  
     277A      0.940496   278A      0.945264   279A      0.946861  
     280A      0.952780   281A      0.957865   282A      0.959259  
     283A      0.962655   284A      0.968283   285A      0.974795  
     286A      0.977063   287A      0.980374   288A      0.985420  
     289A      0.989891   290A      0.995519   291A      0.998259  
     292A      1.001324   293A      1.008085   294A      1.009814  
     295A      1.013284   296A      1.019156   297A      1.023555  
     298A      1.031111   299A      1.035872   300A      1.038640  
     301A      1.044723   302A      1.045544   303A      1.055350  
     304A      1.057164   305A      1.063859   306A      1.067750  
     307A      1.071035   308A      1.072251   309A      1.079473  
     310A      1.084263   311A      1.087849   312A      1.095700  
     313A      1.098585   314A      1.106939   315A      1.113674  
     316A      1.117334   317A      1.120881   318A      1.129060  
     319A      1.135320   320A      1.137899   321A      1.141212  
     322A      1.147083   323A      1.155174   324A      1.157480  
     325A      1.163875   326A      1.168680   327A      1.181651  
     328A      1.186409   329A      1.191741   330A      1.195262  
     331A      1.209439   332A      1.214406   333A      1.221075  
     334A      1.234421   335A      1.239533   336A      1.242236  
     337A      1.247592   338A      1.253148   339A      1.259712  
     340A      1.265954   341A      1.268427   342A      1.280306  
     343A      1.283465   344A      1.290906   345A      1.297888  
     346A      1.298425   347A      1.305947   348A      1.314793  
     349A      1.317044   350A      1.326638   351A      1.335491  
     352A      1.340187   353A      1.349834   354A      1.356217  
     355A      1.363381   356A      1.374722   357A      1.383749  
     358A      1.388077   359A      1.399902   360A      1.400191  
     361A      1.411736   362A      1.420898   363A      1.422588  
     364A      1.425242   365A      1.437713   366A      1.442778  
     367A      1.445870   368A      1.449420   369A      1.453711  
     370A      1.458669   371A      1.471955   372A      1.473426  
     373A      1.482520   374A      1.496215   375A      1.501320  
     376A      1.508565   377A      1.513470   378A      1.521287  
     379A      1.531457   380A      1.539060   381A      1.541999  
     382A      1.547177   383A      1.549470   384A      1.560772  
     385A      1.570630   386A      1.592184   387A      1.596816  
     388A      1.604232   389A      1.608930   390A      1.620097  
     391A      1.627147   392A      1.631544   393A      1.638311  
     394A      1.645060   395A      1.656935   396A      1.667873  
     397A      1.674030   398A      1.677108   399A      1.686174  
     400A      1.691510   401A      1.693568   402A      1.703534  
     403A      1.720548   404A      1.725263   405A      1.732725  
     406A      1.736150   407A      1.748405   408A      1.751626  
     409A      1.752801   410A      1.774962   411A      1.780042  
     412A      1.783433   413A      1.788286   414A      1.806593  
     415A      1.810307   416A      1.812121   417A      1.822939  
     418A      1.830921   419A      1.840748   420A      1.843085  
     421A      1.852096   422A      1.857226   423A      1.865879  
     424A      1.876792   425A      1.888701   426A      1.891953  
     427A      1.897151   428A      1.905651   429A      1.913981  
     430A      1.918001   431A      1.923417   432A      1.936956  
     433A      1.943606   434A      1.944917   435A      1.955264  
     436A      1.963353   437A      1.972169   438A      1.985001  
     439A      1.989563   440A      2.001429   441A      2.006106  
     442A      2.017215   443A      2.026184   444A      2.030791  
     445A      2.038199   446A      2.044014   447A      2.051798  
     448A      2.057313   449A      2.065968   450A      2.068208  
     451A      2.081417   452A      2.090734   453A      2.096660  
     454A      2.105218   455A      2.112341   456A      2.125551  
     457A      2.142935   458A      2.152206   459A      2.159408  
     460A      2.166530   461A      2.189267   462A      2.193452  
     463A      2.200768   464A      2.223708   465A      2.229256  
     466A      2.232926   467A      2.246162   468A      2.248287  
     469A      2.258355   470A      2.275888   471A      2.280489  
     472A      2.284995   473A      2.295354   474A      2.304584  
     475A      2.310678   476A      2.312797   477A      2.317044  
     478A      2.334954   479A      2.350493   480A      2.367779  
     481A      2.390911   482A      2.393336   483A      2.402237  
     484A      2.408582   485A      2.419029   486A      2.425147  
     487A      2.439331   488A      2.447748   489A      2.462997  
     490A      2.473755   491A      2.483899   492A      2.499937  
     493A      2.512443   494A      2.519945   495A      2.525519  
     496A      2.536672   497A      2.554446   498A      2.556964  
     499A      2.575259   500A      2.586750   501A      2.593489  
     502A      2.628708   503A      2.638847   504A      2.651123  
     505A      2.696795   506A      2.697442   507A      2.709565  
     508A      2.729263   509A      2.750052   510A      2.756969  
     511A      2.765161   512A      2.787241   513A      2.816502  
     514A      2.829345   515A      2.843782   516A      2.877698  
     517A      2.883995   518A      2.922316   519A      2.937878  
     520A      2.948567   521A      2.954043   522A      2.976540  
     523A      2.994822   524A      3.020489   525A      3.052343  
     526A      3.061703   527A      3.078673   528A      3.088082  
     529A      3.101116   530A      3.114667   531A      3.121799  
     532A      3.132277   533A      3.155803   534A      3.167139  
     535A      3.174055   536A      3.181194   537A      3.195321  
     538A      3.224906   539A      3.232259   540A      3.248672  
     541A      3.258368   542A      3.260528   543A      3.263873  
     544A      3.283765   545A      3.296796   546A      3.306333  
     547A      3.306973   548A      3.313035   549A      3.318805  
     550A      3.331687   551A      3.344224   552A      3.347533  
     553A      3.357630   554A      3.373370   555A      3.378821  
     556A      3.390583   557A      3.395498   558A      3.406249  
     559A      3.412011   560A      3.414829   561A      3.432871  
     562A      3.436359   563A      3.438788   564A      3.449322  
     565A      3.450801   566A      3.455324   567A      3.476949  
     568A      3.482502   569A      3.486685   570A      3.499883  
     571A      3.511052   572A      3.518560   573A      3.535863  
     574A      3.543159   575A      3.553749   576A      3.566659  
     577A      3.581397   578A      3.587296   579A      3.594031  
     580A      3.601634   581A      3.615642   582A      3.617891  
     583A      3.622373   584A      3.647248   585A      3.657605  
     586A      3.660779   587A      3.670349   588A      3.682692  
     589A      3.686182   590A      3.689881   591A      3.698329  
     592A      3.719247   593A      3.726859   594A      3.730353  
     595A      3.735838   596A      3.751591   597A      3.760026  
     598A      3.763521   599A      3.781335   600A      3.787904  
     601A      3.795461   602A      3.799328   603A      3.799956  
     604A      3.811268   605A      3.834045   606A      3.841231  
     607A      3.850973   608A      3.863910   609A      3.866458  
     610A      3.871096   611A      3.877979   612A      3.884484  
     613A      3.890002   614A      3.900475   615A      3.904120  
     616A      3.930800   617A      3.933107   618A      3.937593  
     619A      3.950726   620A      3.968811   621A      3.973397  
     622A      3.980932   623A      3.987755   624A      4.002857  
     625A      4.005129   626A      4.021973   627A      4.027576  
     628A      4.033522   629A      4.038413   630A      4.048795  
     631A      4.061551   632A      4.064082   633A      4.065178  
     634A      4.072914   635A      4.075681   636A      4.088092  
     637A      4.098146   638A      4.106072   639A      4.120968  
     640A      4.123763   641A      4.132886   642A      4.152960  
     643A      4.157405   644A      4.164548   645A      4.174011  
     646A      4.186799   647A      4.190292   648A      4.213100  
     649A      4.224380   650A      4.227606   651A      4.235226  
     652A      4.238018   653A      4.248903   654A      4.258665  
     655A      4.270749   656A      4.277492   657A      4.279866  
     658A      4.290231   659A      4.300834   660A      4.302554  
     661A      4.318175   662A      4.323049   663A      4.330233  
     664A      4.341684   665A      4.343966   666A      4.353404  
     667A      4.361828   668A      4.365256   669A      4.383935  
     670A      4.392923   671A      4.398590   672A      4.407717  
     673A      4.420248   674A      4.432565   675A      4.436688  
     676A      4.459732   677A      4.460582   678A      4.469982  
     679A      4.478184   680A      4.494688   681A      4.518085  
     682A      4.526293   683A      4.547011   684A      4.572138  
     685A      4.597283   686A      4.604624   687A      4.606453  
     688A      4.621616   689A      4.633591   690A      4.638947  
     691A      4.652240   692A      4.673285   693A      4.677201  
     694A      4.688831   695A      4.712931   696A      4.734283  
     697A      4.742444   698A      4.759674   699A      4.764830  
     700A      4.782613   701A      4.801846   702A      4.806624  
     703A      4.809960   704A      4.817887   705A      4.827132  
     706A      4.846977   707A      4.862140   708A      4.863954  
     709A      4.888598   710A      4.903105   711A      4.907531  
     712A      4.911944   713A      4.917426   714A      4.929740  
     715A      4.939125   716A      4.948053   717A      4.960821  
     718A      4.975291   719A      4.988503   720A      4.995569  
     721A      5.004838   722A      5.020827   723A      5.029691  
     724A      5.040382   725A      5.050244   726A      5.055468  
     727A      5.073695   728A      5.081375   729A      5.091377  
     730A      5.121925   731A      5.140847   732A      5.156940  
     733A      5.165589   734A      5.179095   735A      5.198785  
     736A      5.209678   737A      5.219903   738A      5.226733  
     739A      5.232708   740A      5.255581   741A      5.265887  
     742A      5.275784   743A      5.309752   744A      5.315215  
     745A      5.331095   746A      5.350607   747A      5.363282  
     748A      5.367085   749A      5.393535   750A      5.404937  
     751A      5.414058   752A      5.450436   753A      5.486782  
     754A      5.493500   755A      5.557747   756A      5.571111  
     757A      5.573623   758A      5.596678   759A      5.603177  
     760A      5.606011   761A      5.638061   762A      5.658377  
     763A      5.693056   764A      5.697186   765A      5.736061  
     766A      5.751739   767A      5.778109   768A      5.800817  
     769A      5.829115   770A      5.896838   771A      5.921275  
     772A      5.941689   773A      5.969149   774A      5.975575  
     775A      6.013915   776A      6.034402   777A      6.063521  
     778A      6.123290   779A      6.158519   780A      6.204049  
     781A      6.233662   782A      6.247240   783A      6.302851  
     784A      6.335813   785A      6.352097   786A      6.401027  
     787A      6.418143   788A      6.467277   789A      6.478891  
     790A      6.519534   791A      6.552868   792A      6.647863  
     793A      6.665811   794A      6.735004   795A      6.769746  
     796A      6.803403   797A      6.804683   798A      6.839029  
     799A      6.879969   800A      6.912285   801A      6.954243  
     802A      6.965380   803A      6.975303   804A      7.105311  
     805A      7.170379   806A      7.329463   807A      7.341070  
     808A      7.438393   809A      7.538166   810A      7.600649  
     811A      7.609698   812A      7.665330   813A      7.924410  
     814A      8.299602   815A      8.550387   816A     15.980463  
     817A     16.111037   818A     16.421983   819A     16.633355  
     820A     16.928066   821A     18.722679   822A     19.093974  
     823A     19.475464   824A     19.645541   825A     19.961557  
     826A     20.096271   827A     20.141701   828A     21.710566  

    Final Occupation by Irrep:
              A 
    DOCC [    45 ]

  Energy converged.

  @DF-RHF Final Energy:  -551.67020924521057

   => Energetics <=

    Nuclear Repulsion Energy =            711.8498455775262528
    One-Electron Energy =               -2146.7920300006453544
    Two-Electron Energy =                 883.2719751779086437
    DFT Exchange-Correlation Energy =       0.0000000000000000
    Empirical Dispersion Energy =           0.0000000000000000
    PCM Polarization Energy =               0.0000000000000000
    EFP Energy =                            0.0000000000000000
    Total Energy =                       -551.6702092452105717



Properties will be evaluated at   0.000000,   0.000000,   0.000000 Bohr

Properties computed using the SCF density matrix

  Nuclear Dipole Moment: (a.u.)
     X:     2.9511      Y:    -1.6002      Z:    -0.9320

  Electronic Dipole Moment: (a.u.)
     X:     0.7060      Y:    -0.3646      Z:    -0.7535

  Dipole Moment: (a.u.)
     X:     3.6571      Y:    -1.9648      Z:    -1.6855     Total:     4.4806

  Dipole Moment: (Debye)
     X:     9.2953      Y:    -4.9940      Z:    -4.2842     Total:    11.3885


*** tstop() called on gpu-1-17.local at Sun Nov 12 08:01:16 2017
Module time:
	user time   =    1171.38 seconds =      19.52 minutes
	system time =      52.68 seconds =       0.88 minutes
	total time  =        519 seconds =       8.65 minutes
Total time:
	user time   =    1171.39 seconds =      19.52 minutes
	system time =      52.68 seconds =       0.88 minutes
	total time  =        519 seconds =       8.65 minutes

  //>>>>>>>>>>>>>>>>>>>>>>>>>>>>>>>>>>>//
  //               DFMP2               //
  //<<<<<<<<<<<<<<<<<<<<<<<<<<<<<<<<<<<//

   => Loading Basis Set <=

    Name: (AUG-CC-PVTZ AUX)
    Role: RIFIT
    Keyword: DF_BASIS_MP2
    atoms 1-11  entry C          line   147 file /cbio/jclab/home/chayas/anaconda/envs/py35/share/psi4/basis/aug-cc-pvtz-ri.gbs 
    atoms 12    entry N          line   205 file /cbio/jclab/home/chayas/anaconda/envs/py35/share/psi4/basis/aug-cc-pvtz-ri.gbs 
    atoms 13    entry O          line   263 file /cbio/jclab/home/chayas/anaconda/envs/py35/share/psi4/basis/aug-cc-pvtz-ri.gbs 
    atoms 14-23 entry H          line    29 file /cbio/jclab/home/chayas/anaconda/envs/py35/share/psi4/basis/aug-cc-pvtz-ri.gbs 

	 --------------------------------------------------------
	                          DF-MP2                         
	      2nd-Order Density-Fitted Moller-Plesset Theory     
	              RMP2 Wavefunction,   8 Threads             
	                                                         
	        Rob Parrish, Justin Turney, Andy Simmonett,      
	           Ed Hohenstein, and C. David Sherrill          
	 --------------------------------------------------------

   => Auxiliary Basis Set <=

  Basis Set: (AUG-CC-PVTZ AUX)
    Blend: AUG-CC-PVTZ-RI
    Number of shells: 504
    Number of basis function: 1838
    Number of Cartesian functions: 2318
    Spherical Harmonics?: true
    Max angular momentum: 4

	 --------------------------------------------------------
	                 NBF =   828, NAUX =  1838
	 --------------------------------------------------------
	   CLASS    FOCC     OCC    AOCC    AVIR     VIR    FVIR
	   PAIRS       0      45      45     783     783       0
	 --------------------------------------------------------


         ------------------------------------------------------------
                                     CPHF                           
                                  Rob Parrish                       
         ------------------------------------------------------------

  ==> Geometry <==

    Molecular point group: c1
    Full point group: C1

    Geometry (in Angstrom), charge = 1, multiplicity = 1:

       Center              X                  Y                   Z               Mass       
    ------------   -----------------  -----------------  -----------------  -----------------
           C         -1.271817241082     0.720178367234    -0.579397796739    12.000000000000
           C         -0.278817241082     0.104178367234     1.534602203261    12.000000000000
           C         -2.349817241082     1.293178367234     0.093602203261    12.000000000000
           C         -1.356817241082     0.677178367234     2.208602203261    12.000000000000
           C          0.732182758918    -1.694821632766    -1.199397796739    12.000000000000
           C          2.112182758918     0.183178367234    -0.588397796739    12.000000000000
           C          1.822182758918    -2.240821632766    -1.861397796739    12.000000000000
           C          3.167182758918    -0.410821632766    -1.265397796739    12.000000000000
           C         -0.235817241082     0.125178367234     0.140602203261    12.000000000000
           C          0.883182758918    -0.468821632766    -0.557397796739    12.000000000000
           C         -2.392817241082     1.272178367234     1.487602203261    12.000000000000
           N          2.994182758918    -1.591821632766    -1.874397796739    14.003074004780
           O         -3.444817241082     1.832178367234     2.144602203261    15.994914619560
           H         -1.252817241082     0.744178367234    -1.666397796739     1.007825032070
           H          0.521182758918    -0.355821632766     2.110602203261     1.007825032070
           H         -3.153817241082     1.755178367234    -0.473397796739     1.007825032070
           H         -1.384817241082     0.658178367234     3.294602203261     1.007825032070
           H         -0.215817241082    -2.225821632766    -1.192397796739     1.007825032070
           H          2.258182758918     1.140178367234    -0.095397796739     1.007825032070
           H          1.796182758918    -3.185821632766    -2.386397796739     1.007825032070
           H          4.155182758918     0.022178367234    -1.340397796739     1.007825032070
           H          3.783182758918    -2.011821632766    -2.365397796739     1.007825032070
           H         -3.331817241082     1.738178367234     3.103602203261     1.007825032070

  Nuclear repulsion =  711.849845577526253
  Reference energy  = -551.670209245210572

  ==> Basis Set <==

  Basis Set: AUG-CC-PVTZ
    Blend: AUG-CC-PVTZ
    Number of shells: 272
    Number of basis function: 828
    Number of Cartesian functions: 965
    Spherical Harmonics?: true
    Max angular momentum: 3

  ==> CGRSolver (by Rob Parrish) <==

   Number of roots    =         1
   Preconditioning    =    JACOBI
   Convergence cutoff =     1E-06
   Maximum iterations =       100

  ==> CPHFRHamiltonian (by Rob Parrish) <== 

  ==> DFJK: Density-Fitted J/K Matrices <==

    J tasked:                  Yes
    K tasked:                  Yes
    wK tasked:                  No
    OpenMP threads:              8
    Integrals threads:           8
    Memory (MB):              3576
    Algorithm:                Disk
    Integral Cache:           NONE
    Schwarz Cutoff:          1E-12
    Fitting Condition:       1E-12

   => Auxiliary Basis Set <=

  Basis Set: (AUG-CC-PVTZ AUX)
    Blend: AUG-CC-PVTZ-JKFIT
    Number of shells: 530
    Number of basis function: 1812
    Number of Cartesian functions: 2253
    Spherical Harmonics?: true
    Max angular momentum: 4

  ==> CPHF Iterations <==

  => Iterations <=

             Iter  Converged  Remaining    Residual
  CGR           1          0          1   1.037E-01
  CGR           2          0          1   4.643E-02
  CGR           3          0          1   2.741E-02
  CGR           4          0          1   8.629E-03
  CGR           5          0          1   3.294E-03
  CGR           6          0          1   1.445E-03
  CGR           7          0          1   4.427E-04
  CGR           8          0          1   1.813E-04
  CGR           9          0          1   9.120E-05
  CGR          10          0          1   3.626E-05
  CGR          11          0          1   1.376E-05
  CGR          12          0          1   4.674E-06
  CGR          13          0          1   1.529E-06
  CGR          14          1          0   5.545E-07

    CGRSolver converged.

  ==> DFCorrGrad: Density-Fitted Correlated Gradients <==

    OpenMP threads:              8
    Integrals threads:           8
    Memory (MB):              3576
    Schwarz Cutoff:          0E+00
    Fitting Condition:       1E-12

   => Auxiliary Basis Set <=

  Basis Set: (AUG-CC-PVTZ AUX)
    Blend: AUG-CC-PVTZ-JKFIT
    Number of shells: 530
    Number of basis function: 1812
    Number of Cartesian functions: 2253
    Spherical Harmonics?: true
    Max angular momentum: 4

	-----------------------------------------------------------
	 ==================> DF-MP2 Energies <==================== 
	-----------------------------------------------------------
	 Reference Energy          =    -551.6702092452105717 [Eh]
	 Singles Energy            =      -0.0000000000000001 [Eh]
	 Same-Spin Energy          =      -0.5959467602782957 [Eh]
	 Opposite-Spin Energy      =      -1.8247601298875196 [Eh]
	 Correlation Energy        =      -2.4207068901658153 [Eh]
	 Total Energy              =    -554.0909161353763466 [Eh]
	-----------------------------------------------------------
	 ================> DF-SCS-MP2 Energies <================== 
	-----------------------------------------------------------
	 SCS Same-Spin Scale       =       0.3333333333333333 [-]
	 SCS Opposite-Spin Scale   =       1.2000000000000000 [-]
	 SCS Same-Spin Energy      =      -0.1986489200927652 [Eh]
	 SCS Opposite-Spin Energy  =      -2.1897121558650232 [Eh]
	 SCS Correlation Energy    =      -2.3883610759577882 [Eh]
	 SCS Total Energy          =    -554.0585703211683040 [Eh]
	-----------------------------------------------------------


  -Total Gradient:
     Atom            X                  Y                   Z
    ------   -----------------  -----------------  -----------------
       1        0.007809419208    -0.000543281047    -0.004279142305
       2        0.002920438056    -0.004909438517    -0.005813855002
       3        0.001023617116    -0.000914393061     0.003151383486
       4       -0.007607021568     0.004152096851     0.007038163855
       5       -0.011331814588     0.004280492348     0.009057145022
       6       -0.011843391732     0.007621928909     0.005468085061
       7        0.009001546915     0.006881211692     0.001639231698
       8       -0.003882043414    -0.009191811773    -0.004946069946
       9        0.009157572932    -0.005033746972    -0.006321117167
      10        0.001737315938    -0.000294005433    -0.001004233540
      11        0.000372167380     0.000199037477    -0.013116161888
      12        0.001528773675    -0.001029563344    -0.000972636871
      13       -0.002792132070     0.001290562649     0.006934468641
      14       -0.000603905178     0.000191444476    -0.005186084707
      15        0.003345970026    -0.001734253897     0.003742979051
      16       -0.003322842782     0.001634872897    -0.004896332623
      17        0.000310445249     0.000083083114     0.004371470111
      18       -0.005299692325    -0.003358590566    -0.000594742572
      19        0.001471434771     0.005204611669     0.002922916506
      20        0.000918331238    -0.001970654349    -0.001742212418
      21        0.002736537443    -0.000019573980    -0.000548785921
      22        0.004794543061    -0.002575341034    -0.002913443402
      23       -0.000445269357     0.000035311895     0.008008974931


*** tstop() called on gpu-1-17.local at Sun Nov 12 08:34:36 2017
Module time:
	user time   =    5340.86 seconds =      89.01 minutes
	system time =     110.19 seconds =       1.84 minutes
	total time  =       2519 seconds =      41.98 minutes
Total time:
	user time   =    5340.87 seconds =      89.01 minutes
	system time =     110.19 seconds =       1.84 minutes
	total time  =       2519 seconds =      41.98 minutes

			-----------------------------------------
			 OPTKING 2.0: for geometry optimizations 
			  - R.A. King,  Bethel University        
			-----------------------------------------

	Internal coordinates to be generated automatically.
	Detected frag 1 with atoms:  1 2 3 4 5 6 7 8 9 10 11 12 13 14 15 16 17 18 19 20
	 21 22 23
	---Fragment 1 Bond Connectivity---
	 1 : 3 9 14
	 2 : 4 9 15
	 3 : 1 11 16
	 4 : 2 11 17
	 5 : 7 10 18
	 6 : 8 10 19
	 7 : 5 12 20
	 8 : 6 12 21
	 9 : 1 2 10
	 10 : 5 6 9
	 11 : 3 4 13
	 12 : 7 8 22
	 13 : 11 23
	 14 : 1
	 15 : 2
	 16 : 3
	 17 : 4
	 18 : 5
	 19 : 6
	 20 : 7
	 21 : 8
	 22 : 12
	 23 : 13

	Assuming in current code that numbering for constraints corresponds to unified fragment.
	Fixed dihedral atom list: 
	     1     9    10     5
	---Fragment 1 Geometry and Gradient---
	 C          -2.4033862767        1.3609398809       -1.0949031578
	 C          -0.5268882268        0.1968685830        2.8999778871
	 C          -4.4405110480        2.4437529550        0.1768825296
	 C          -2.5640129980        1.2796816572        4.1736533007
	 C           1.3836248936       -3.2027487300       -2.2665333602
	 C           3.9914469570        0.3461569475       -1.1119106930
	 C           3.4434263784       -4.2345391986       -3.5175320602
	 C           5.9851080272       -0.7763403754       -2.3912552850
	 C          -0.4456300031        0.2365528318        0.2656996578
	 C           1.6689735396       -0.8859444911       -1.0533291829
	 C          -4.5217692717        2.4040687063        2.8111607588
	 N           5.6581854062       -3.0081069383       -3.5420984999
	 O          -6.5097611635        3.4623153407        4.0527108281
	 H          -2.3674814802        1.4062933081       -3.1490354643
	 H           0.9848926795       -0.6724054381        3.9884601396
	 H          -5.9598508588        3.3168064284       -0.8945921877
	 H          -2.6169253297        1.2437768607        6.2258958810
	 H          -0.4078354804       -4.2061933066       -2.2533052773
	 H           4.2673469724        2.1546248567       -0.1802757095
	 H           3.3942934990       -6.0203303941       -4.5096382800
	 H           7.8521574464        0.0419110401       -2.5329847450
	 H           7.1491793250       -3.8017919141       -4.4699540312
	 H          -6.2962221105        3.2846810842        5.8649581896
	             0.0078094192       -0.0005432810       -0.0042791423
	             0.0029204381       -0.0049094385       -0.0058138550
	             0.0010236171       -0.0009143931        0.0031513835
	            -0.0076070216        0.0041520969        0.0070381639
	            -0.0113318146        0.0042804923        0.0090571450
	            -0.0118433917        0.0076219289        0.0054680851
	             0.0090015469        0.0068812117        0.0016392317
	            -0.0038820434       -0.0091918118       -0.0049460699
	             0.0091575729       -0.0050337470       -0.0063211172
	             0.0017373159       -0.0002940054       -0.0010042335
	             0.0003721674        0.0001990375       -0.0131161619
	             0.0015287737       -0.0010295633       -0.0009726369
	            -0.0027921321        0.0012905626        0.0069344686
	            -0.0006039052        0.0001914445       -0.0051860847
	             0.0033459700       -0.0017342539        0.0037429791
	            -0.0033228428        0.0016348729       -0.0048963326
	             0.0003104452        0.0000830831        0.0043714701
	            -0.0052996923       -0.0033585906       -0.0005947426
	             0.0014714348        0.0052046117        0.0029229165
	             0.0009183312       -0.0019706543       -0.0017422124
	             0.0027365374       -0.0000195740       -0.0005487859
	             0.0047945431       -0.0025753410       -0.0029134434
	            -0.0004452694        0.0000353119        0.0080089749

	Previous optimization step data not found.  Starting new optimization.

	---Fragment 1 Intrafragment Coordinates---
	 - Coordinate -           - BOHR/RAD -       - ANG/DEG -
	 R(1,3)           =         2.634350	       1.394038
	 R(1,9)           =         2.635962	       1.394891
	 R(1,14)          =         2.054947	       1.087431
	 R(2,4)           =         2.635263	       1.394521
	 R(2,9)           =         2.635830	       1.394821
	 R(2,15)          =         2.055702	       1.087831
	 R(3,11)          =         2.635830	       1.394821
	 R(3,16)          =         2.053941	       1.086899
	 R(4,11)          =         2.636938	       1.395407
	 R(4,17)          =         2.053239	       1.086527
	 R(5,7)           =         2.621521	       1.387249
	 R(5,10)          =         2.630755	       1.392135
	 R(5,18)          =         2.053389	       1.086607
	 R(6,8)           =         2.621337	       1.387152
	 R(6,10)          =         2.629713	       1.391584
	 R(6,19)          =         2.052954	       1.086377
	 R(7,12)          =         2.531777	       1.339759
	 R(7,20)          =         2.043462	       1.081354
	 R(8,12)          =         2.532213	       1.339989
	 R(8,21)          =         2.043403	       1.081322
	 R(9,10)          =         2.733384	       1.446444
	 R(11,13)         =         2.571662	       1.360865
	 R(12,22)         =         1.927152	       1.019805
	 R(13,23)         =         1.833410	       0.970199
	 B(1,3,11)        =         2.094553	     120.009056
	 B(1,3,16)        =         2.088505	     119.662516
	 B(1,9,2)         =         2.093692	     119.959722
	 B(1,9,10)        =         2.095161	     120.043881
	 B(2,4,11)        =         2.093699	     119.960108
	 B(2,4,17)        =         2.089577	     119.723926
	 B(2,9,10)        =         2.094332	     119.996376
	 B(3,1,9)         =         2.094940	     120.031219
	 B(3,1,14)        =         2.079469	     119.144799
	 B(3,11,4)        =         2.094306	     119.994870
	 B(3,11,13)       =         2.094549	     120.008801
	 B(4,2,9)         =         2.095181	     120.045019
	 B(4,2,15)        =         2.078675	     119.099297
	 B(4,11,13)       =         2.094331	     119.996326
	 B(5,7,12)        =         2.095913	     120.086977
	 B(5,7,20)        =         2.161261	     123.831124
	 B(5,10,6)        =         2.092246	     119.876871
	 B(5,10,9)        =         2.094721	     120.018659
	 B(6,8,12)        =         2.095581	     120.067929
	 B(6,8,21)        =         2.161916	     123.868650
	 B(6,10,9)        =         2.096218	     120.104467
	 B(7,5,10)        =         2.073114	     118.780661
	 B(7,5,18)        =         2.090058	     119.751497
	 B(7,12,8)        =         2.135860	     122.375746
	 B(7,12,22)       =         2.073697	     118.814093
	 B(8,6,10)        =         2.073656	     118.811737
	 B(8,6,19)        =         2.090342	     119.767783
	 B(8,12,22)       =         2.073628	     118.810161
	 B(9,1,14)        =         2.108776	     120.823969
	 B(9,2,15)        =         2.109330	     120.855683
	 B(10,5,18)       =         2.120013	     121.467779
	 B(10,6,19)       =         2.119187	     121.420466
	 B(11,3,16)       =         2.100127	     120.328425
	 B(11,4,17)       =         2.099910	     120.315955
	 B(11,13,23)      =         1.925489	     110.322421
	 B(12,7,20)       =         2.026011	     116.081885
	 B(12,8,21)       =         2.025688	     116.063354
	 D(1,3,11,4)      =        -0.000325	      -0.018609
	 D(1,3,11,13)     =         3.140978	     179.964785
	 D(1,9,2,4)       =         0.000325	       0.018608
	 D(1,9,2,15)      =        -3.141497	    -179.994534
	 D(1,9,10,5)      =        -1.309790	     -75.045441
	 D(1,9,10,6)      =         1.832095	     104.971302
	 D(2,4,11,3)      =         0.000301	       0.017261
	 D(2,4,11,13)     =        -3.141002	    -179.966135
	 D(2,9,1,3)       =        -0.000348	      -0.019945
	 D(2,9,1,14)      =        -3.141221	    -179.978731
	 D(2,9,10,5)      =         1.832719	     105.007062
	 D(2,9,10,6)      =        -1.308581	     -74.976195
	 D(3,1,9,10)      =        -3.141025	    -179.967461
	 D(3,11,4,17)     =         3.141223	     179.978848
	 D(3,11,13,23)    =         3.140828	     179.956172
	 D(4,2,9,10)      =         3.141002	     179.966149
	 D(4,11,3,16)     =         3.141593	     180.000000
	 D(4,11,13,23)    =        -0.001055	      -0.060434
	 D(5,7,12,8)      =        -0.001916	      -0.109752
	 D(5,7,12,22)     =         3.139532	     179.881933
	 D(5,10,6,8)      =         0.000128	       0.007319
	 D(5,10,6,19)     =        -3.140703	    -179.949041
	 D(6,8,12,7)      =         0.001410	       0.080803
	 D(6,8,12,22)     =        -3.140037	    -179.910883
	 D(6,10,5,7)      =        -0.000614	      -0.035155
	 D(6,10,5,18)     =        -3.140607	    -179.943507
	 D(7,5,10,9)      =         3.141271	     179.981550
	 D(7,12,8,21)     =         3.141422	     179.990233
	 D(8,6,10,9)      =         3.141429	     179.990599
	 D(8,12,7,20)     =         3.140382	     179.930659
	 D(9,1,3,11)      =         0.000348	       0.019955
	 D(9,1,3,16)      =        -3.141571	    -179.998735
	 D(9,2,4,11)      =        -0.000301	      -0.017270
	 D(9,2,4,17)      =        -3.141228	    -179.979086
	 D(9,10,5,18)     =         0.001278	       0.073198
	 D(9,10,6,19)     =         0.000598	       0.034240
	 D(10,5,7,12)     =         0.001482	       0.084941
	 D(10,5,7,20)     =        -3.140873	    -179.958754
	 D(10,6,8,12)     =        -0.000492	      -0.028197
	 D(10,6,8,21)     =        -3.140375	    -179.930211
	 D(10,9,1,14)     =         0.001287	       0.073752
	 D(10,9,2,15)     =        -0.000820	      -0.046992
	 D(11,3,1,14)     =         3.141234	     179.979432
	 D(11,4,2,15)     =         3.141517	     179.995641
	 D(12,7,5,18)     =         3.141504	     179.994903
	 D(12,8,6,19)     =         3.140352	     179.928900
	 D(13,11,3,16)    =        -0.000286	      -0.016400
	 D(13,11,4,17)    =        -0.000079	      -0.004548
	 D(14,1,3,16)     =        -0.000685	      -0.039257
	 D(15,2,4,17)     =         0.000590	       0.033826
	 D(18,5,7,20)     =        -0.000852	      -0.048792
	 D(19,6,8,21)     =         0.000469	       0.026886
	 D(20,7,12,22)    =        -0.001355	      -0.077655
	 D(21,8,12,22)    =        -0.000025	      -0.001452

	Current energy   :      -554.0909161354

	Generating empirical Hessian (Schlegel '84) for each fragment.
	Adding user-defined constraint: Fragment 1; Coordinate 66:
		Value =    -1.309790; Fixed value    =    -1.308997
		Force =     0.000397; Force constant =     0.500000
	Removing off-diagonal coupling between coordinate 66 and others.
	Taking RFO optimization step.
	Going to follow RFO solution 1.
	Using RFO vector 1.

	Determining step-restricting scale parameter for RS-RFO.
	Maximum step size allowed    0.10000

	 Iter      |step|        alpha        rfo_root  
	------------------------------------------------
	    0     0.18878       1.00000           1
	    1     0.14482       4.31603           1
	    2     0.12017      10.96363           1
	    3     0.10579      20.06492           1
	    4     0.10061      24.99077           1
	    5     0.10001      25.63229           1
	------------------------------------------------
	Norm of target step-size    0.10001
	Projected energy change by RFO approximation:        -0.0038698184

	Back-transformation to cartesian coordinates...
	Could not converge backtransformation.
	Using first guess instead.

	--- Internal Coordinate Step in ANG or DEG, aJ/ANG or AJ/DEG ---
	 ---------------------------------------------------------------------------
	   Coordinate                Previous        Force       Change         New 
	   ----------                --------       ------       ------       ------
	    1 R(1,3)          =      1.394038    -0.073740    -0.008417     1.385621
	    2 R(1,9)          =      1.394891    -0.016863    -0.001832     1.393059
	    3 R(1,14)         =      1.087431    -0.042658    -0.006063     1.081367
	    4 R(2,4)          =      1.394521    -0.073309    -0.008261     1.386260
	    5 R(2,9)          =      1.394821    -0.027316    -0.002975     1.391846
	    6 R(2,15)         =      1.087831    -0.042643    -0.006049     1.081782
	    7 R(3,11)         =      1.394821    -0.065722    -0.007556     1.387265
	    8 R(3,16)         =      1.086899    -0.047020    -0.006617     1.080282
	    9 R(4,11)         =      1.395407    -0.017234    -0.001985     1.393423
	   10 R(4,17)         =      1.086527    -0.035920    -0.005093     1.081434
	   11 R(5,7)          =      1.387249    -0.081524    -0.009018     1.378231
	   12 R(5,10)         =      1.392135     0.021127     0.002425     1.394560
	   13 R(5,18)         =      1.086607    -0.051584    -0.007323     1.079284
	   14 R(6,8)          =      1.387152    -0.081016    -0.008948     1.378204
	   15 R(6,10)         =      1.391584     0.024294     0.002766     1.394350
	   16 R(6,19)         =      1.086377    -0.050330    -0.007128     1.079248
	   17 R(7,12)         =      1.339759     0.014296     0.001436     1.341195
	   18 R(7,20)         =      1.081354    -0.020975    -0.002919     1.078435
	   19 R(8,12)         =      1.339989     0.012687     0.001299     1.341289
	   20 R(8,21)         =      1.081322    -0.020849    -0.002904     1.078418
	   21 R(9,10)         =      1.446444     0.108890     0.014364     1.460808
	   22 R(11,13)        =      1.360865    -0.084551    -0.007839     1.353026
	   23 R(12,22)        =      1.019805    -0.050856    -0.006000     1.013805
	   24 R(13,23)        =      0.970199    -0.064766    -0.006298     0.963901
	   25 B(1,3,11)       =    120.009056    -0.000033    -0.116802   119.892254
	   26 B(1,3,16)       =    119.662516     0.000192     0.567730   120.230246
	   27 B(1,9,2)        =    119.959722    -0.000171    -0.348703   119.611019
	   28 B(1,9,10)       =    120.043881     0.000080     0.164487   120.208369
	   29 B(2,4,11)       =    119.960108     0.000082     0.190532   120.150641
	   30 B(2,4,17)       =    119.723926    -0.000018    -0.029325   119.694601
	   31 B(2,9,10)       =    119.996376     0.000092     0.183282   120.179658
	   32 B(3,1,9)        =    120.031219     0.000164     0.374310   120.405529
	   33 B(3,1,14)       =    119.144799    -0.000032    -0.041420   119.103380
	   34 B(3,11,4)       =    119.994870    -0.000011    -0.053647   119.941223
	   35 B(3,11,13)      =    120.008801    -0.001000    -2.146069   117.862732
	   36 B(4,2,9)        =    120.045019    -0.000030    -0.046242   119.998777
	   37 B(4,2,15)       =    119.099297     0.000107     0.290116   119.389413
	   38 B(4,11,13)      =    119.996326     0.001011     2.199698   122.196024
	   39 B(5,7,12)       =    120.086977    -0.000335    -0.801099   119.285878
	   40 B(5,7,20)       =    123.831124     0.000082     0.154704   123.985828
	   41 B(5,10,6)       =    119.876871    -0.000504    -1.109950   118.766921
	   42 B(5,10,9)       =    120.018659     0.000257     0.567115   120.585774
	   43 B(6,8,12)       =    120.067929    -0.000332    -0.791193   119.276736
	   44 B(6,8,21)       =    123.868650     0.000077     0.139583   124.008232
	   45 B(6,10,9)       =    120.104467     0.000247     0.542160   120.646627
	   46 B(7,5,10)       =    118.780661     0.000425     0.975026   119.755687
	   47 B(7,5,18)       =    119.751497    -0.000163    -0.346316   119.405180
	   48 B(7,12,8)       =    122.375746     0.000329     0.769742   123.145488
	   49 B(7,12,22)      =    118.814093    -0.000164    -0.385274   118.428819
	   50 B(8,6,10)       =    118.811737     0.000417     0.957289   119.769026
	   51 B(8,6,19)       =    119.767783    -0.000164    -0.350922   119.416861
	   52 B(8,12,22)      =    118.810161    -0.000164    -0.384483   118.425678
	   53 B(9,1,14)       =    120.823969    -0.000132    -0.332989   120.490980
	   54 B(9,2,15)       =    120.855683    -0.000077    -0.244194   120.611489
	   55 B(10,5,18)      =    121.467779    -0.000262    -0.628660   120.839119
	   56 B(10,6,19)      =    121.420466    -0.000253    -0.606378   120.814087
	   57 B(11,3,16)      =    120.328425    -0.000158    -0.450927   119.877498
	   58 B(11,4,17)      =    120.315955    -0.000064    -0.161233   120.154722
	   59 B(11,13,23)     =    110.322421    -0.000222    -0.646279   109.676141
	   60 B(12,7,20)      =    116.081885     0.000253     0.646237   116.728122
	   61 B(12,8,21)      =    116.063354     0.000255     0.651676   116.715030
	   62 D(1,3,11,4)     =     -0.018609     0.000004     0.119389     0.100781
	   63 D(1,3,11,13)    =    179.964785     0.000004     0.084492   180.049278
	   64 D(1,9,2,4)      =      0.018608     0.000005     0.234017     0.252624
	   65 D(1,9,2,15)     =   -179.994534    -0.000001     0.039698  -179.954836
	   66 D(1,9,10,5)     =    -75.045441     0.000026     0.278566   -74.766875
	   67 D(1,9,10,6)     =    104.971302     0.000030     0.564813   105.536116
	   68 D(2,4,11,3)     =      0.017261     0.000003     0.057783     0.075045
	   69 D(2,4,11,13)    =   -179.966135     0.000003     0.094985  -179.871149
	   70 D(2,9,1,3)      =     -0.019945     0.000001    -0.057151    -0.077096
	   71 D(2,9,1,14)     =   -179.978731    -0.000005    -0.220942  -180.199674
	   72 D(2,9,10,5)     =    105.007062     0.000030     0.582764   105.589826
	   73 D(2,9,10,6)     =    -74.976195     0.000034     0.869012   -74.107183
	   74 D(3,1,9,10)     =   -179.967461     0.000005     0.245037  -179.722424
	   75 D(3,11,4,17)    =    179.978848     0.000002     0.026281   180.005129
	   76 D(3,11,13,23)   =    179.956172    -0.000001    -0.004551   179.951621
	   77 D(4,2,9,10)     =    179.966149     0.000001    -0.068094   179.898055
	   78 D(4,11,3,16)    =    180.000000     0.000003     0.112155   180.112155
	   79 D(4,11,13,23)   =     -0.060434    -0.000001    -0.040683    -0.101118
	   80 D(5,7,12,8)     =     -0.109752     0.000000     0.031741    -0.078011
	   81 D(5,7,12,22)    =    179.881933    -0.000000    -0.005695   179.876238
	   82 D(5,10,6,8)     =      0.007319     0.000001     0.119051     0.126370
	   83 D(5,10,6,19)    =   -179.949041    -0.000002     0.017346  -179.931695
	   84 D(6,8,12,7)     =      0.080803    -0.000002    -0.070510     0.010293
	   85 D(6,8,12,22)    =   -179.910883    -0.000002    -0.033075  -179.943958
	   86 D(6,10,5,7)     =     -0.035155    -0.000003    -0.158066    -0.193221
	   87 D(6,10,5,18)    =   -179.943507    -0.000005    -0.208234  -180.151741
	   88 D(7,5,10,9)     =    179.981550     0.000001     0.122601   180.104151
	   89 D(7,12,8,21)    =    179.990233     0.000002     0.033838   180.024071
	   90 D(8,6,10,9)     =    179.990599    -0.000003    -0.161788   179.828811
	   91 D(8,12,7,20)    =    179.930659     0.000004     0.136072   180.066731
	   92 D(9,1,3,11)     =      0.019955    -0.000006    -0.119436    -0.099481
	   93 D(9,1,3,16)     =   -179.998735    -0.000005    -0.112162  -180.110897
	   94 D(9,2,4,11)     =     -0.017270    -0.000007    -0.234964    -0.252234
	   95 D(9,2,4,17)     =   -179.979086    -0.000007    -0.203555  -180.182641
	   96 D(9,10,5,18)    =      0.073198    -0.000001     0.072432     0.145630
	   97 D(9,10,6,19)    =      0.034240    -0.000006    -0.263493    -0.229253
	   98 D(10,5,7,12)    =      0.084941     0.000002     0.084529     0.169470
	   99 D(10,5,7,20)    =   -179.958754    -0.000002    -0.027686  -179.986440
	  100 D(10,6,8,12)    =     -0.028197     0.000001    -0.007155    -0.035351
	  101 D(10,6,8,21)    =   -179.930211    -0.000003    -0.119987  -180.050199
	  102 D(10,9,1,14)    =      0.073752    -0.000001     0.081246     0.154999
	  103 D(10,9,2,15)    =     -0.046992    -0.000006    -0.262412    -0.309405
	  104 D(11,3,1,14)    =    179.979432     0.000001     0.041976   180.021408
	  105 D(11,4,2,15)    =    179.995641    -0.000001    -0.042955   179.952686
	  106 D(12,7,5,18)    =    179.994903     0.000004     0.133685   180.128588
	  107 D(12,8,6,19)    =    179.928900     0.000004     0.092997   180.021897
	  108 D(13,11,3,16)   =     -0.016400     0.000003     0.077052     0.060652
	  109 D(13,11,4,17)   =     -0.004548     0.000002     0.063482     0.058934
	  110 D(14,1,3,16)    =     -0.039257     0.000001     0.049250     0.009993
	  111 D(15,2,4,17)    =      0.033826     0.000000    -0.011545     0.022280
	  112 D(18,5,7,20)    =     -0.048792     0.000000     0.021471    -0.027321
	  113 D(19,6,8,21)    =      0.026886    -0.000000    -0.019836     0.007050
	  114 D(20,7,12,22)   =     -0.077655     0.000003     0.098635     0.020980
	  115 D(21,8,12,22)   =     -0.001452     0.000003     0.071273     0.069821
	 ---------------------------------------------------------------------------
	Successfully symmetrized geometry.
	 Forces used to impose fixed constraints are not included.
	  Forces zeroed: 66 

  ==> Convergence Check <==

  Measures of convergence in internal coordinates in au.
  Criteria marked as inactive (o), active & met (*), and active & unmet ( ).
  --------------------------------------------------------------------------------------------- ~
   Step     Total Energy     Delta E     MAX Force     RMS Force      MAX Disp      RMS Disp    ~
  --------------------------------------------------------------------------------------------- ~
    Convergence Criteria    1.00e-06 *    3.00e-04 *             o    1.20e-03 *             o  ~
  --------------------------------------------------------------------------------------------- ~
      1    -554.09091614   -5.54e+02      1.33e-02      3.83e-03 o    3.84e-02      9.31e-03 o  ~
  ---------------------------------------------------------------------------------------------

	Writing optimization data to binary file.
	Structure for next step:
	Cartesian Geometry (in Angstrom)
	    C    -1.2838838309   0.7173418543  -0.5583458423
	    C    -0.2796467904   0.1100464231   1.5432312756
	    C    -2.3533886869   1.2892624400   0.1117366108
	    C    -1.3512629575   0.6789080674   2.2138677853
	    C     0.7465152254  -1.6965858571  -1.2110134829
	    C     2.1236888408   0.1692319605  -0.5923828204
	    C     1.8230443020  -2.2446320081  -1.8745276122
	    C     3.1770028612  -0.4114116966  -1.2653086266
	    C    -0.2424658561   0.1244409954   0.1519565315
	    C     0.8859314101  -0.4718889563  -0.5587263399
	    C    -2.3903067504   1.2706001650   1.4983851856
	    N     2.9934888749  -1.5897724326  -1.8791846681
	    O    -3.4542844594   1.8399289640   2.1103446582
	    H    -1.2679657328   0.7393998653  -1.6393711065
	    H     0.5206935877  -0.3453148520   2.1109932224
	    H    -3.1585980150   1.7498650897  -0.4418811906
	    H    -1.3765529189   0.6623433338   3.2948792803
	    H    -0.1957002659  -2.2229303128  -1.2042668781
	    H     2.2687378364   1.1175262444  -0.0979380211
	    H     1.7915855274  -3.1855270939  -2.4005959212
	    H     4.1611890256   0.0238046864  -1.3356624096
	    H     3.7772693726  -2.0056528220  -2.3696252472
	    H    -3.3598871447   1.7601183887   3.0662862918
			--------------------------
			 OPTKING Finished Execution 
			--------------------------

    Structure for next step:
    Molecular point group: c1
    Full point group: C1

    Geometry (in Angstrom), charge = 1, multiplicity = 1:

    C           -1.284553876149     0.718086602899    -0.557891108788
    C           -0.280316835608     0.110791171680     1.543686009172
    C           -2.354058732191     1.290007188596     0.112191344319
    C           -1.351933002701     0.679652816058     2.214322518841
    C            0.745845180191    -1.695841108498    -1.210558749332
    C            2.123018795529     0.169976709084    -0.591928086843
    C            1.822374256739    -2.243887259471    -1.874072878628
    C            3.176332815970    -0.410666947992    -1.264853893107
    C           -0.243135901355     0.125185744066     0.152411265041
    C            0.885261364862    -0.471144207690    -0.558271606340
    C           -2.390976795602     1.271344913585     1.498839919155
    N            2.992818829664    -1.589027684007    -1.878729934518
    O           -3.454954504634     1.840673712663     2.110799391690
    H           -1.268635778074     0.740144613920    -1.638916372927
    H            0.520023542468    -0.344570103369     2.111447955985
    H           -3.159268060264     1.750609838332    -0.441426457088
    H           -1.377222964176     0.663088082384     3.295334013824
    H           -0.196370311176    -2.222185564165    -1.203812144544
    H            2.268067791205     1.118270993003    -0.097483287609
    H            1.790915482124    -3.184782345272    -2.400141187617
    H            4.160518980317     0.024549435049    -1.335207676023
    H            3.776599327395    -2.004908073412    -2.369170513686
    H           -3.360557189953     1.760863137351     3.066741025342

gradient() will perform analytic gradient computation.

*** tstart() called on gpu-1-17.local
*** at Sun Nov 12 08:34:37 2017

    SCF Algorithm Type (re)set to DF.

*** tstart() called on gpu-1-17.local
*** at Sun Nov 12 08:34:37 2017

   => Loading Basis Set <=

    Name: AUG-CC-PVTZ
    Role: ORBITAL
    Keyword: BASIS
    atoms 1-11  entry C          line   221 file /cbio/jclab/home/chayas/anaconda/envs/py35/share/psi4/basis/aug-cc-pvtz.gbs 
    atoms 12    entry N          line   267 file /cbio/jclab/home/chayas/anaconda/envs/py35/share/psi4/basis/aug-cc-pvtz.gbs 
    atoms 13    entry O          line   313 file /cbio/jclab/home/chayas/anaconda/envs/py35/share/psi4/basis/aug-cc-pvtz.gbs 
    atoms 14-23 entry H          line    34 file /cbio/jclab/home/chayas/anaconda/envs/py35/share/psi4/basis/aug-cc-pvtz.gbs 


         ---------------------------------------------------------
                                   SCF
            by Justin Turney, Rob Parrish, and Andy Simmonett
                              RHF Reference
                        8 Threads,   4768 MiB Core
         ---------------------------------------------------------

  ==> Geometry <==

    Molecular point group: c1
    Full point group: C1

    Geometry (in Angstrom), charge = 1, multiplicity = 1:

       Center              X                  Y                   Z               Mass       
    ------------   -----------------  -----------------  -----------------  -----------------
           C         -1.284553876149     0.718086602899    -0.557891108788    12.000000000000
           C         -0.280316835608     0.110791171680     1.543686009172    12.000000000000
           C         -2.354058732191     1.290007188596     0.112191344319    12.000000000000
           C         -1.351933002701     0.679652816058     2.214322518841    12.000000000000
           C          0.745845180191    -1.695841108498    -1.210558749332    12.000000000000
           C          2.123018795529     0.169976709084    -0.591928086843    12.000000000000
           C          1.822374256739    -2.243887259471    -1.874072878628    12.000000000000
           C          3.176332815970    -0.410666947992    -1.264853893107    12.000000000000
           C         -0.243135901355     0.125185744066     0.152411265041    12.000000000000
           C          0.885261364862    -0.471144207690    -0.558271606340    12.000000000000
           C         -2.390976795602     1.271344913585     1.498839919155    12.000000000000
           N          2.992818829664    -1.589027684007    -1.878729934518    14.003074004780
           O         -3.454954504634     1.840673712663     2.110799391690    15.994914619560
           H         -1.268635778074     0.740144613920    -1.638916372927     1.007825032070
           H          0.520023542468    -0.344570103369     2.111447955985     1.007825032070
           H         -3.159268060264     1.750609838332    -0.441426457088     1.007825032070
           H         -1.377222964176     0.663088082384     3.295334013824     1.007825032070
           H         -0.196370311176    -2.222185564165    -1.203812144544     1.007825032070
           H          2.268067791205     1.118270993003    -0.097483287609     1.007825032070
           H          1.790915482124    -3.184782345272    -2.400141187617     1.007825032070
           H          4.160518980317     0.024549435049    -1.335207676023     1.007825032070
           H          3.776599327395    -2.004908073412    -2.369170513686     1.007825032070
           H         -3.360557189953     1.760863137351     3.066741025342     1.007825032070

  Running in c1 symmetry.

  Rotational constants: A =      0.09651  B =      0.01279  C =      0.01235 [cm^-1]
  Rotational constants: A =   2893.36944  B =    383.39984  C =    370.24377 [MHz]
  Nuclear repulsion =  712.417505934255814

  Charge       = 1
  Multiplicity = 1
  Electrons    = 90
  Nalpha       = 45
  Nbeta        = 45

  ==> Algorithm <==

  SCF Algorithm Type is DF.
  DIIS enabled.
  MOM disabled.
  Fractional occupation disabled.
  Guess Type is READ.
  Energy threshold   = 1.00e-10
  Density threshold  = 1.00e-10
  Integral threshold = 0.00e+00

  ==> Primary Basis <==

  Basis Set: AUG-CC-PVTZ
    Blend: AUG-CC-PVTZ
    Number of shells: 272
    Number of basis function: 828
    Number of Cartesian functions: 965
    Spherical Harmonics?: true
    Max angular momentum: 3

   => Loading Basis Set <=

    Name: (AUG-CC-PVTZ AUX)
    Role: JKFIT
    Keyword: DF_BASIS_SCF
    atoms 1-11  entry C          line   161 file /cbio/jclab/home/chayas/anaconda/envs/py35/share/psi4/basis/aug-cc-pvtz-jkfit.gbs 
    atoms 12    entry N          line   223 file /cbio/jclab/home/chayas/anaconda/envs/py35/share/psi4/basis/aug-cc-pvtz-jkfit.gbs 
    atoms 13    entry O          line   285 file /cbio/jclab/home/chayas/anaconda/envs/py35/share/psi4/basis/aug-cc-pvtz-jkfit.gbs 
    atoms 14-23 entry H          line    69 file /cbio/jclab/home/chayas/anaconda/envs/py35/share/psi4/basis/aug-cc-pvtz-jkfit.gbs 

  Reading orbitals from file 180, no projection.

  ==> Pre-Iterations <==

   -------------------------------------------------------
    Irrep   Nso     Nmo     Nalpha   Nbeta   Ndocc  Nsocc
   -------------------------------------------------------
     A        828     828       0       0       0       0
   -------------------------------------------------------
    Total     828     828      45      45      45       0
   -------------------------------------------------------

  ==> Integral Setup <==

  ==> DFJK: Density-Fitted J/K Matrices <==

    J tasked:                  Yes
    K tasked:                  Yes
    wK tasked:                  No
    OpenMP threads:              8
    Integrals threads:           8
    Memory (MB):              3576
    Algorithm:                Disk
    Integral Cache:           NONE
    Schwarz Cutoff:          1E-12
    Fitting Condition:       1E-12

   => Auxiliary Basis Set <=

  Basis Set: (AUG-CC-PVTZ AUX)
    Blend: AUG-CC-PVTZ-JKFIT
    Number of shells: 530
    Number of basis function: 1812
    Number of Cartesian functions: 2253
    Spherical Harmonics?: true
    Max angular momentum: 4

  Minimum eigenvalue in the overlap matrix is 5.4922201711E-07.
  Using Symmetric Orthogonalization.

  SCF Guess: Orbitals guess was supplied from a previous computation.

  ==> Iterations <==

                           Total Energy        Delta E     RMS |[F,P]|

   @DF-RHF iter   0:  -551.74760793843700   -5.51748e+02   2.79971e-04 
   @DF-RHF iter   1:  -551.67422316046259    7.33848e-02   7.11711e-05 
   @DF-RHF iter   2:  -551.67447969946102   -2.56539e-04   4.02263e-05 DIIS
   @DF-RHF iter   3:  -551.67462123197311   -1.41533e-04   6.36257e-06 DIIS
   @DF-RHF iter   4:  -551.67462755450151   -6.32253e-06   4.23685e-06 DIIS
   @DF-RHF iter   5:  -551.67462900339308   -1.44889e-06   1.05423e-06 DIIS
   @DF-RHF iter   6:  -551.67462915662702   -1.53234e-07   4.70992e-07 DIIS
   @DF-RHF iter   7:  -551.67462919834520   -4.17182e-08   2.35316e-07 DIIS
   @DF-RHF iter   8:  -551.67462921267645   -1.43312e-08   8.77571e-08 DIIS
   @DF-RHF iter   9:  -551.67462921536060   -2.68415e-09   3.98543e-08 DIIS
   @DF-RHF iter  10:  -551.67462921566187   -3.01270e-10   9.66358e-09 DIIS
   @DF-RHF iter  11:  -551.67462921570961   -4.77485e-11   2.18242e-09 DIIS
   @DF-RHF iter  12:  -551.67462921572110   -1.14824e-11   1.63165e-09 DIIS
   @DF-RHF iter  13:  -551.67462921570029    2.08047e-11   4.20986e-10 DIIS
   @DF-RHF iter  14:  -551.67462921569916    1.13687e-12   1.89226e-10 DIIS
   @DF-RHF iter  15:  -551.67462921571200   -1.28466e-11   1.49200e-10 DIIS
   @DF-RHF iter  16:  -551.67462921571132    6.82121e-13   3.76649e-11 DIIS

  ==> Post-Iterations <==

    Orbital Energies (a.u.)
    -----------------------

    Doubly Occupied:                                                      

       1A    -20.693517     2A    -15.843577     3A    -11.489124  
       4A    -11.489013     5A    -11.451080     6A    -11.418907  
       7A    -11.418837     8A    -11.418234     9A    -11.368621  
      10A    -11.367035    11A    -11.365645    12A    -11.348454  
      13A    -11.342322    14A     -1.519278    15A     -1.514077  
      16A     -1.318376    17A     -1.263607    18A     -1.246231  
      19A     -1.152061    20A     -1.144296    21A     -1.070751  
      22A     -1.058018    23A     -0.971599    24A     -0.969506  
      25A     -0.945667    26A     -0.875491    27A     -0.859808  
      28A     -0.849743    29A     -0.822001    30A     -0.805371  
      31A     -0.789728    32A     -0.777150    33A     -0.750126  
      34A     -0.729574    35A     -0.714841    36A     -0.711979  
      37A     -0.698117    38A     -0.683668    39A     -0.647643  
      40A     -0.617132    41A     -0.606627    42A     -0.576389  
      43A     -0.543819    44A     -0.463786    45A     -0.435022  

    Virtual:                                                              

      46A     -0.103700    47A     -0.087467    48A     -0.067942  
      49A     -0.063485    50A     -0.059907    51A     -0.053713  
      52A     -0.041925    53A     -0.039964    54A     -0.038731  
      55A     -0.031873    56A     -0.023681    57A     -0.017930  
      58A     -0.013213    59A     -0.010557    60A     -0.003901  
      61A     -0.003523    62A      0.002518    63A      0.007493  
      64A      0.009892    65A      0.014164    66A      0.014354  
      67A      0.016381    68A      0.019165    69A      0.026502  
      70A      0.029060    71A      0.031591    72A      0.034063  
      73A      0.035436    74A      0.038494    75A      0.042299  
      76A      0.043027    77A      0.045430    78A      0.055946  
      79A      0.058786    80A      0.061717    81A      0.063551  
      82A      0.069547    83A      0.075782    84A      0.079799  
      85A      0.086012    86A      0.089021    87A      0.093191  
      88A      0.094226    89A      0.096619    90A      0.101861  
      91A      0.103309    92A      0.108549    93A      0.117646  
      94A      0.124740    95A      0.130943    96A      0.131371  
      97A      0.136563    98A      0.137217    99A      0.142672  
     100A      0.146525   101A      0.150083   102A      0.153407  
     103A      0.159961   104A      0.162442   105A      0.164699  
     106A      0.168437   107A      0.173497   108A      0.174488  
     109A      0.176471   110A      0.179181   111A      0.183408  
     112A      0.189068   113A      0.191057   114A      0.195246  
     115A      0.198486   116A      0.205377   117A      0.207892  
     118A      0.213317   119A      0.216868   120A      0.219804  
     121A      0.223048   122A      0.224803   123A      0.230377  
     124A      0.232422   125A      0.235914   126A      0.239758  
     127A      0.246612   128A      0.247773   129A      0.251425  
     130A      0.256465   131A      0.260303   132A      0.261872  
     133A      0.275182   134A      0.277639   135A      0.279632  
     136A      0.282335   137A      0.289745   138A      0.294956  
     139A      0.298364   140A      0.301015   141A      0.306617  
     142A      0.310692   143A      0.316660   144A      0.324231  
     145A      0.326337   146A      0.328162   147A      0.329290  
     148A      0.330730   149A      0.335202   150A      0.338085  
     151A      0.341775   152A      0.345843   153A      0.350125  
     154A      0.353827   155A      0.355053   156A      0.357602  
     157A      0.363116   158A      0.366005   159A      0.367876  
     160A      0.371278   161A      0.372068   162A      0.375351  
     163A      0.377106   164A      0.384944   165A      0.387804  
     166A      0.390783   167A      0.395360   168A      0.401632  
     169A      0.404487   170A      0.408525   171A      0.412177  
     172A      0.413616   173A      0.419148   174A      0.421918  
     175A      0.426230   176A      0.429127   177A      0.432264  
     178A      0.437096   179A      0.441105   180A      0.444305  
     181A      0.451695   182A      0.456357   183A      0.462983  
     184A      0.466484   185A      0.469367   186A      0.480606  
     187A      0.486619   188A      0.486826   189A      0.491458  
     190A      0.494379   191A      0.496580   192A      0.501121  
     193A      0.512914   194A      0.516731   195A      0.530216  
     196A      0.530914   197A      0.541853   198A      0.544675  
     199A      0.550845   200A      0.555644   201A      0.570438  
     202A      0.571101   203A      0.576394   204A      0.580047  
     205A      0.585571   206A      0.590312   207A      0.594781  
     208A      0.599654   209A      0.602749   210A      0.607124  
     211A      0.613414   212A      0.615321   213A      0.622902  
     214A      0.625209   215A      0.629374   216A      0.636571  
     217A      0.641343   218A      0.643862   219A      0.645660  
     220A      0.654030   221A      0.658828   222A      0.662874  
     223A      0.676340   224A      0.677236   225A      0.682691  
     226A      0.693214   227A      0.698274   228A      0.709627  
     229A      0.718810   230A      0.722565   231A      0.724284  
     232A      0.735292   233A      0.745077   234A      0.748477  
     235A      0.750062   236A      0.752699   237A      0.753688  
     238A      0.760521   239A      0.766825   240A      0.772220  
     241A      0.777446   242A      0.781296   243A      0.782421  
     244A      0.784269   245A      0.790285   246A      0.792918  
     247A      0.797302   248A      0.798324   249A      0.802769  
     250A      0.804498   251A      0.807326   252A      0.810874  
     253A      0.812989   254A      0.825333   255A      0.830668  
[...]
	 B(6,8,12)        =         2.078062	     119.064179
	 B(6,8,21)        =         2.164782	     124.032862
	 B(6,10,9)        =         2.108175	     120.789506
	 B(7,5,10)        =         2.101660	     120.416228
	 B(7,5,18)        =         2.082455	     119.315911
	 B(7,12,8)        =         2.150060	     123.189345
	 B(7,12,22)       =         2.066646	     118.410101
	 B(8,6,10)        =         2.101073	     120.382618
	 B(8,6,19)        =         2.083178	     119.357292
	 B(8,12,22)       =         2.066464	     118.399670
	 B(9,1,14)        =         2.096852	     120.140762
	 B(9,2,15)        =         2.098867	     120.256202
	 B(10,5,18)       =         2.099070	     120.267857
	 B(10,6,19)       =         2.098851	     120.255313
	 B(11,3,16)       =         2.074252	     118.845905
	 B(11,4,17)       =         2.096283	     120.108144
	 B(11,13,23)      =         1.926042	     110.354061
	 B(12,7,20)       =         2.040615	     116.918630
	 B(12,8,21)       =         2.040336	     116.902651
	 D(1,3,11,4)      =         0.014149	       0.810652
	 D(1,3,11,13)     =        -3.132612	    -179.485428
	 D(1,9,2,4)       =         0.049479	       2.834923
	 D(1,9,2,15)      =        -3.119253	    -178.720057
	 D(1,9,10,5)      =        -1.296747	     -74.298128
	 D(1,9,10,6)      =         1.921548	     110.096612
	 D(2,4,11,3)      =         0.001987	       0.113818
	 D(2,4,11,13)     =        -3.134081	    -179.569614
	 D(2,9,1,3)       =        -0.033352	      -1.910931
	 D(2,9,1,14)      =         3.102374	     177.752948
	 D(2,9,10,5)      =         1.947029	     111.556547
	 D(2,9,10,6)      =        -1.117861	     -64.048713
	 D(3,1,9,10)      =        -3.073197	    -176.081237
	 D(3,11,4,17)     =         3.139261	     179.866406
	 D(3,11,13,23)    =        -3.140661	    -179.946631
	 D(4,2,9,10)      =         3.089678	     177.025522
	 D(4,11,3,16)     =        -3.120263	    -178.777916
	 D(4,11,13,23)    =        -0.004433	      -0.254016
	 D(5,7,12,8)      =         0.002506	       0.143598
	 D(5,7,12,22)     =         3.138024	     179.795545
	 D(5,10,6,8)      =         0.028990	       1.661003
	 D(5,10,6,19)     =        -3.126569	    -179.139218
	 D(6,8,12,7)      =        -0.006278	      -0.359683
	 D(6,8,12,22)     =         3.141389	     179.988335
	 D(6,10,5,7)      =        -0.032773	      -1.877766
	 D(6,10,5,18)     =         3.109242	     178.146448
	 D(7,5,10,9)      =        -3.099814	    -177.606251
	 D(7,12,8,21)     =         3.138696	     179.834048
	 D(8,6,10,9)      =         3.096330	     177.406651
	 D(8,12,7,20)     =        -3.123258	    -178.949524
	 D(9,1,3,11)      =         0.001666	       0.095466
	 D(9,1,3,16)      =         3.135912	     179.674524
	 D(9,2,4,11)      =        -0.033940	      -1.944620
	 D(9,2,4,17)      =         3.111959	     178.302134
	 D(9,10,5,18)     =         0.042201	       2.417963
	 D(9,10,6,19)     =        -0.059229	      -3.393570
	 D(10,5,7,12)     =         0.017607	       1.008831
	 D(10,5,7,20)     =        -3.141019	    -179.967116
	 D(10,6,8,12)     =        -0.010070	      -0.576952
	 D(10,6,8,21)     =         3.127884	     179.214574
	 D(10,9,1,14)     =         0.062529	       3.582643
	 D(10,9,2,15)     =        -0.079054	      -4.529458
	 D(11,3,1,14)     =        -3.134094	    -179.570333
	 D(11,4,2,15)     =         3.134600	     179.599375
	 D(12,7,5,18)     =        -3.124404	    -179.015154
	 D(12,8,6,19)     =        -3.137821	    -179.783884
	 D(13,11,3,16)    =         0.016162	       0.926004
	 D(13,11,4,17)    =         0.003193	       0.182973
	 D(14,1,3,16)     =         0.000152	       0.008724
	 D(15,2,4,17)     =        -0.002686	      -0.153871
	 D(18,5,7,20)     =         0.000155	       0.008899
	 D(19,6,8,21)     =         0.000133	       0.007642
	 D(20,7,12,22)    =         0.012260	       0.702424
	 D(21,8,12,22)    =         0.003178	       0.182066

	Current energy   :      -554.0940403108

	Energy change for the previous step:
		Projected    :         0.0000008669
		Actual       :        -0.0000007963

	Performing BFGS update.
	Previous computed or guess Hessian on step 1.
	Steps to be used in Hessian update: 6 5
	Adding user-defined constraint: Fragment 1; Coordinate 66:
		Value =    -1.296747; Fixed value    =    -1.309000
		Force =    -0.007964; Force constant =     0.650000
	Removing off-diagonal coupling between coordinate 66 and others.
	Taking RFO optimization step.
	Going to follow RFO solution 1.
	Rejecting RFO root 1 because normalization gives large value.
	Rejecting RFO root 2 because normalization gives large value.
	Using RFO vector 3.
	Norm of target step-size    0.00716
	Projected energy change by RFO approximation:        -0.0000020108

	Back-transformation to cartesian coordinates...
	Could not converge backtransformation.
	Using first guess instead.

	--- Internal Coordinate Step in ANG or DEG, aJ/ANG or AJ/DEG ---
	 ---------------------------------------------------------------------------
	   Coordinate                Previous        Force       Change         New 
	   ----------                --------       ------       ------       ------
	    1 R(1,3)          =      1.381421     0.000075     0.000112     1.381534
	    2 R(1,9)          =      1.394548    -0.000013    -0.000002     1.394546
	    3 R(1,14)         =      1.080148     0.000116     0.000048     1.080195
	    4 R(2,4)          =      1.384312    -0.000091    -0.000045     1.384267
	    5 R(2,9)          =      1.392507     0.000209     0.000074     1.392581
	    6 R(2,15)         =      1.080315     0.000086     0.000055     1.080371
	    7 R(3,11)         =      1.391312    -0.000064    -0.000177     1.391135
	    8 R(3,16)         =      1.078593     0.000043     0.000006     1.078599
	    9 R(4,11)         =      1.391333     0.000044     0.000183     1.391516
	   10 R(4,17)         =      1.080418     0.000076     0.000019     1.080437
	   11 R(5,7)          =      1.375820     0.000044     0.000019     1.375839
	   12 R(5,10)         =      1.395875     0.000021     0.000064     1.395938
	   13 R(5,18)         =      1.078228     0.000136     0.000027     1.078255
	   14 R(6,8)          =      1.375783     0.000014     0.000007     1.375790
	   15 R(6,10)         =      1.395950     0.000140     0.000082     1.396032
	   16 R(6,19)         =      1.078229     0.000113     0.000006     1.078235
	   17 R(7,12)         =      1.342166     0.000007    -0.000009     1.342157
	   18 R(7,20)         =      1.077212     0.000028     0.000041     1.077253
	   19 R(8,12)         =      1.342056     0.000060    -0.000030     1.342026
	   20 R(8,21)         =      1.077257     0.000045     0.000045     1.077302
	   21 R(9,10)         =      1.459775    -0.000342    -0.000155     1.459620
	   22 R(11,13)        =      1.348259    -0.000134     0.000146     1.348405
	   23 R(12,22)        =      1.012662     0.000073     0.000004     1.012666
	   24 R(13,23)        =      0.963136     0.000073     0.000005     0.963140
	   25 B(1,3,11)       =    120.037620     0.000000    -0.006512   120.031108
	   26 B(1,3,16)       =    121.115167    -0.000001    -0.040403   121.074764
	   27 B(1,9,2)        =    119.514779    -0.000001    -0.013083   119.501695
	   28 B(1,9,10)       =    120.285604     0.000002     0.021386   120.306990
	   29 B(2,4,11)       =    120.047978     0.000000     0.005433   120.053412
	   30 B(2,4,17)       =    119.843416     0.000000    -0.003614   119.839802
	   31 B(2,9,10)       =    119.942310    -0.000002    -0.012138   119.930172
	   32 B(3,1,9)        =    120.289402     0.000001     0.016288   120.305690
	   33 B(3,1,14)       =    119.568990    -0.000001    -0.023107   119.545882
	   34 B(3,11,4)       =    119.881249    -0.000000    -0.002145   119.879103
	   35 B(3,11,13)      =    116.752032     0.000001     0.045422   116.797454
	   36 B(4,2,9)        =    120.175614     0.000000     0.001238   120.176852
	   37 B(4,2,15)       =    119.550071    -0.000000    -0.005328   119.544744
	   38 B(4,11,13)      =    123.366010    -0.000001    -0.043222   123.322788
	   39 B(5,7,12)       =    119.025025     0.000000     0.008222   119.033247
	   40 B(5,7,20)       =    124.049592    -0.000000    -0.014478   124.035114
	   41 B(5,10,6)       =    117.897305    -0.000001    -0.003573   117.893731
	   42 B(5,10,9)       =    121.172995     0.000002     0.030203   121.203198
	   43 B(6,8,12)       =    119.064179     0.000000     0.004881   119.069060
	   44 B(6,8,21)       =    124.032862    -0.000000    -0.010311   124.022552
	   45 B(6,10,9)       =    120.789506    -0.000002    -0.025052   120.764454
	   46 B(7,5,10)       =    120.416228     0.000000    -0.002804   120.413424
	   47 B(7,5,18)       =    119.315911    -0.000001    -0.015561   119.300350
	   48 B(7,12,8)       =    123.189345    -0.000001    -0.005437   123.183908
	   49 B(7,12,22)      =    118.410101     0.000000     0.004423   118.414523
	   50 B(8,6,10)       =    120.382618     0.000000     0.001195   120.383813
	   51 B(8,6,19)       =    119.357292    -0.000000    -0.010097   119.347194
	   52 B(8,12,22)      =    118.399670     0.000000     0.001470   118.401140
	   53 B(9,1,14)       =    120.140762     0.000000     0.006370   120.147132
	   54 B(9,2,15)       =    120.256202    -0.000000     0.004663   120.260865
	   55 B(10,5,18)      =    120.267857     0.000000     0.018344   120.286201
	   56 B(10,6,19)      =    120.255313    -0.000000     0.009879   120.265192
	   57 B(11,3,16)      =    118.845905     0.000001     0.046706   118.892610
	   58 B(11,4,17)      =    120.108144    -0.000000    -0.002074   120.106069
	   59 B(11,13,23)     =    110.354061    -0.000000    -0.014847   110.339214
	   60 B(12,7,20)      =    116.918630    -0.000000     0.005114   116.923743
	   61 B(12,8,21)      =    116.902651    -0.000000     0.005637   116.908288
	   62 D(1,3,11,4)     =      0.810652     0.000000    -0.025134     0.785519
	   63 D(1,3,11,13)    =   -179.485428    -0.000000    -0.013559  -179.498987
	   64 D(1,9,2,4)      =      2.834923     0.000002    -0.031150     2.803773
	   65 D(1,9,2,15)     =   -178.720057     0.000001    -0.006444  -178.726501
	   66 D(1,9,10,5)     =    -74.298128    -0.000008    -0.045285   -74.343413
	   67 D(1,9,10,6)     =    110.096612    -0.000005    -0.069870   110.026742
	   68 D(2,4,11,3)     =      0.113818    -0.000000     0.041877     0.155695
	   69 D(2,4,11,13)    =   -179.569614     0.000000     0.029229  -179.540385
	   70 D(2,9,1,3)      =     -1.910931    -0.000001     0.047769    -1.863162
	   71 D(2,9,1,14)     =    177.752948    -0.000001    -0.031981   177.720968
	   72 D(2,9,10,5)     =    111.556547    -0.000005    -0.001162   111.555385
	   73 D(2,9,10,6)     =    -64.048713    -0.000001    -0.025747   -64.074460
	   74 D(3,1,9,10)     =   -176.081237     0.000002     0.091660  -175.989576
	   75 D(3,11,4,17)    =    179.866406    -0.000000    -0.019034   179.847371
	   76 D(3,11,13,23)   =   -179.946631     0.000000     0.005712  -179.940919
	   77 D(4,2,9,10)     =    177.025522    -0.000002    -0.072890   176.952633
	   78 D(4,11,3,16)    =   -178.777916     0.000000     0.006735  -178.771181
	   79 D(4,11,13,23)   =     -0.254016    -0.000000     0.017869    -0.236147
	   80 D(5,7,12,8)     =      0.143598     0.000000    -0.143598     0.000000
	   81 D(5,7,12,22)    =    179.795545    -0.000000    -0.036976   179.758569
	   82 D(5,10,6,8)     =      1.661003     0.000001    -0.080626     1.580378
	   83 D(5,10,6,19)    =   -179.139218     0.000001     0.005779  -179.133438
	   84 D(6,8,12,7)     =     -0.359683    -0.000000     0.139968    -0.219715
	   85 D(6,8,12,22)    =    179.988335     0.000000     0.034148   180.022483
	   86 D(6,10,5,7)     =     -1.877766    -0.000002     0.077868    -1.799898
	   87 D(6,10,5,18)    =    178.146448    -0.000001    -0.004593   178.141855
	   88 D(7,5,10,9)     =   -177.606251     0.000002     0.054943  -177.551307
	   89 D(7,12,8,21)    =    179.834048    -0.000000     0.057003   179.891052
	   90 D(8,6,10,9)     =    177.406651    -0.000002    -0.055337   177.351314
	   91 D(8,12,7,20)    =   -178.949524     0.000001    -0.068971  -179.018495
	   92 D(9,1,3,11)     =      0.095466     0.000001    -0.019655     0.075812
	   93 D(9,1,3,16)     =    179.674524     0.000000    -0.051863   179.622661
	   94 D(9,2,4,11)     =     -1.944620    -0.000001    -0.013913    -1.958533
	   95 D(9,2,4,17)     =    178.302134    -0.000000     0.046832   178.348966
	   96 D(9,10,5,18)    =      2.417963     0.000002    -0.027518     2.390445
	   97 D(9,10,6,19)    =     -3.393570    -0.000002     0.031068    -3.362502
	   98 D(10,5,7,12)    =      1.008831     0.000001     0.029276     1.038107
	   99 D(10,5,7,20)    =   -179.967116     0.000000    -0.049947  -180.017063
	  100 D(10,6,8,12)    =     -0.576952    -0.000001    -0.023597    -0.600549
	  101 D(10,6,8,21)    =    179.214574    -0.000000     0.065701   179.280275
	  102 D(10,9,1,14)    =      3.582643     0.000002     0.011910     3.594553
	  103 D(10,9,2,15)    =     -4.529458    -0.000002    -0.048184    -4.577641
	  104 D(11,3,1,14)    =   -179.570333     0.000000     0.059519  -179.510814
	  105 D(11,4,2,15)    =    179.599375    -0.000000    -0.038597   179.560778
	  106 D(12,7,5,18)    =   -179.015154     0.000001     0.110937  -178.904217
	  107 D(12,8,6,19)    =   -179.783884    -0.000000    -0.109371  -179.893255
	  108 D(13,11,3,16)   =      0.926004     0.000000     0.018309     0.944313
	  109 D(13,11,4,17)   =      0.182973    -0.000000    -0.031682     0.151291
	  110 D(14,1,3,16)    =      0.008724     0.000000     0.027310     0.036035
	  111 D(15,2,4,17)    =     -0.153871    -0.000000     0.022148    -0.131723
	  112 D(18,5,7,20)    =      0.008899     0.000000     0.031713     0.040613
	  113 D(19,6,8,21)    =      0.007642    -0.000000    -0.020073    -0.012431
	  114 D(20,7,12,22)   =      0.702424     0.000000     0.036852     0.739276
	  115 D(21,8,12,22)   =      0.182066    -0.000000    -0.048816     0.133250
	 ---------------------------------------------------------------------------
	Successfully symmetrized geometry.
	 Forces used to impose fixed constraints are not included.
	  Forces zeroed: 66 

  ==> Convergence Check <==

  Measures of convergence in internal coordinates in au.
  Criteria marked as inactive (o), active & met (*), and active & unmet ( ).
  ---------------------------------------------------------------------------------------------
   Step     Total Energy     Delta E     MAX Force     RMS Force      MAX Disp      RMS Disp   
  ---------------------------------------------------------------------------------------------
    Convergence Criteria    1.00e-06 *    3.00e-04 *             o    1.20e-03 *             o
  ---------------------------------------------------------------------------------------------
      7    -554.09404031   -7.96e-07 *    2.79e-04 *    5.36e-05 o    2.51e-03      6.68e-04 o  ~
  ---------------------------------------------------------------------------------------------


  **** Optimization is complete! (in 7 steps) ****

  ==> Optimization Summary <==

  Measures of convergence in internal coordinates in au.
  --------------------------------------------------------------------------------------------------------------- ~
   Step         Total Energy             Delta E       MAX Force       RMS Force        MAX Disp        RMS Disp  ~
  --------------------------------------------------------------------------------------------------------------- ~
      1    -554.090916135376   -554.090916135376      0.01328448      0.00382776      0.03839197      0.00931246  ~
      2    -554.093349655522     -0.002433520145      0.00417143      0.00097995      0.05418878      0.00931495  ~
      3    -554.093792948125     -0.000443292604      0.00113167      0.00028272      0.06073423      0.00931082  ~
      4    -554.093960207575     -0.000167259450      0.00061365      0.00013394      0.06021600      0.00930446  ~
      5    -554.094062897604     -0.000102690028      0.00076333      0.00015862      0.00294106      0.00061406  ~
      6    -554.094039514536      0.000023383068      0.00035821      0.00006018      0.00278891      0.00057049  ~
      7    -554.094040310850     -0.000000796314      0.00047000      0.00006926      0.00250625      0.00066815  ~
  --------------------------------------------------------------------------------------------------------------- ~

	Writing optimization data to binary file.
	Final energy is   -554.0940403108497
	Final (previous) structure:
	Cartesian Geometry (in Angstrom)
	    C    -1.3451312600   0.6625763981  -0.5611730462
	    C    -0.2592292142   0.1376566662   1.5226888862
	    C    -2.3820551234   1.2614391520   0.1276501809
	    C    -1.3073176222   0.7206730124   2.2140087833
	    C     0.7464537070  -1.6887212866  -1.2832864593
	    C     2.1025662752   0.1386143958  -0.5468268936
	    C     1.8410308615  -2.2239426266  -1.9222863842
	    C     3.1807339439  -0.4223325207  -1.1915531722
	    C    -0.2852785884   0.0782702306   0.1316925259
	    C     0.8514953334  -0.4787638105  -0.5952200013
	    C    -2.3718227076   1.2856518096   1.5187137860
	    N     3.0146315734  -1.5760408790  -1.8567456039
	    O    -3.4216486771   1.8775508730   2.1231340062
	    H    -1.3573043317   0.6542459381  -1.6412201319
	    H     0.5663564867  -0.2928700625   2.0705356520
	    H    -3.2057258553   1.7218794455  -0.3947716394
	    H    -1.2945710380   0.7393413621   3.2941907045
	    H    -0.1947996774  -2.2134204482  -1.3194549329
	    H     2.2298708995   1.0672530967  -0.0139085561
	    H     1.8260004263  -3.1516054133  -2.4696453023
	    H     4.1677084166   0.0092140252  -1.2030614742
	    H     3.8149133051  -1.9799229622  -2.3278216634
	    H    -3.3202187675   1.8431208105   3.0802948973
	Saving final (previous) structure.
			--------------------------
			 OPTKING Finished Execution 
			--------------------------

    Final optimized geometry and variables:
    Molecular point group: c1
    Full point group: C1

    Geometry (in Angstrom), charge = 1, multiplicity = 1:

    C           -1.345131260018     0.662576398120    -0.561173046200
    C           -0.259229214155     0.137656666202     1.522688886221
    C           -2.382055123434     1.261439151992     0.127650180908
    C           -1.307317622222     0.720673012381     2.214008783337
    C            0.746453707041    -1.688721286604    -1.283286459252
    C            2.102566275196     0.138614395822    -0.546826893582
    C            1.841030861515    -2.223942626593    -1.922286384183
    C            3.180733943871    -0.422332520674    -1.191553172173
    C           -0.285278588384     0.078270230634     0.131692525939
    C            0.851495333393    -0.478763810520    -0.595220001305
    C           -2.371822707643     1.285651809638     1.518713786015
    N            3.014631573429    -1.576040879018    -1.856745603912
    O           -3.421648677104     1.877550873032     2.123134006233
    H           -1.357304331667     0.654245938064    -1.641220131946
    H            0.566356486701    -0.292870062523     2.070535652029
    H           -3.205725855275     1.721879445541    -0.394771639387
    H           -1.294571038046     0.739341362101     3.294190704482
    H           -0.194799677370    -2.213420448175    -1.319454932876
    H            2.229870899481     1.067253096665    -0.013908556075
    H            1.826000426264    -3.151605413269    -2.469645302288
    H            4.167708416630     0.009214025241    -1.203061474190
    H            3.814913305056    -1.979922962161    -2.327821663409
    H           -3.320218767502     1.843120810499     3.080294897304

	Cleaning optimization helper files.

*** Psi4 exiting successfully. Buy a developer a beer!
