
    -----------------------------------------------------------------------
          Psi4: An Open-Source Ab Initio Electronic Structure Package
                               Psi4 1.1 release

                         Git: Rev {HEAD} add49b9 


    R. M. Parrish, L. A. Burns, D. G. A. Smith, A. C. Simmonett,
    A. E. DePrince III, E. G. Hohenstein, U. Bozkaya, A. Yu. Sokolov,
    R. Di Remigio, R. M. Richard, J. F. Gonthier, A. M. James,
    H. R. McAlexander, A. Kumar, M. Saitow, X. Wang, B. P. Pritchard,
    P. Verma, H. F. Schaefer III, K. Patkowski, R. A. King, E. F. Valeev,
    F. A. Evangelista, J. M. Turney, T. D. Crawford, and C. D. Sherrill,
    J. Chem. Theory Comput. in press (2017).
    (doi: 10.1021/acs.jctc.7b00174)

    -----------------------------------------------------------------------


    Psi4 started on: Saturday, 11 November 2017 11:26PM

    Process ID:  18794
    PSIDATADIR: /cbio/jclab/home/chayas/anaconda/envs/py35/share/psi4
    Memory:     500.0 MiB
    Threads:    8
    
  ==> Input File <==

--------------------------------------------------------------------------

memory 5 Gb

molecule phepyrFOH_neutral {
  symmetry C1
  0 1 
  C      1.885   -1.036   -0.112
  C      0.807   -0.463   0.561
  C      3.825   -3.269   -0.988
  C      5.328   -1.753   0.119
  C      1.800   -1.079   2.676
  C      4.927   -3.802   -1.637
  C      6.363   -2.354   -0.579
  C      2.921   -1.631   0.608
  C      4.038   -2.225   -0.095
  C      0.764   -0.484   1.955
  C      2.878   -1.652   2.002
  N      6.195   -3.370   -1.455
  O      -0.289   0.076   2.612
  F      3.866   -2.220   2.709
  H      1.904   -1.012   -1.199
  H      0.002   -0.002   -0.006
  H      2.833   -3.663   -1.183
  H      5.532   -0.940   0.809
  H      1.772   -1.099   3.762
  H      4.814   -4.616   -2.345
  H      7.387   -2.023   -0.446
  H      -0.301   -0.216   3.537
  units Angstrom
}

dih_string = "2 10 13 22 165"
set optking fixed_dihedral = $dih_string

optimize('MP2/aug-cc-PVTZ')
--------------------------------------------------------------------------

  Memory set to   4.657 GiB by Python driver.
gradient() will perform analytic gradient computation.

*** tstart() called on gpu-1-8.local
*** at Sat Nov 11 23:26:34 2017

    SCF Algorithm Type (re)set to DF.

*** tstart() called on gpu-1-8.local
*** at Sat Nov 11 23:26:34 2017

   => Loading Basis Set <=

    Name: AUG-CC-PVTZ
    Role: ORBITAL
    Keyword: BASIS
    atoms 1-11  entry C          line   221 file /cbio/jclab/home/chayas/anaconda/envs/py35/share/psi4/basis/aug-cc-pvtz.gbs 
    atoms 12    entry N          line   267 file /cbio/jclab/home/chayas/anaconda/envs/py35/share/psi4/basis/aug-cc-pvtz.gbs 
    atoms 13    entry O          line   313 file /cbio/jclab/home/chayas/anaconda/envs/py35/share/psi4/basis/aug-cc-pvtz.gbs 
    atoms 14    entry F          line   359 file /cbio/jclab/home/chayas/anaconda/envs/py35/share/psi4/basis/aug-cc-pvtz.gbs 
    atoms 15-22 entry H          line    34 file /cbio/jclab/home/chayas/anaconda/envs/py35/share/psi4/basis/aug-cc-pvtz.gbs 


         ---------------------------------------------------------
                                   SCF
            by Justin Turney, Rob Parrish, and Andy Simmonett
                              RHF Reference
                        8 Threads,   4768 MiB Core
         ---------------------------------------------------------

  ==> Geometry <==

    Molecular point group: c1
    Full point group: C1

    Geometry (in Angstrom), charge = 0, multiplicity = 1:

       Center              X                  Y                   Z               Mass       
    ------------   -----------------  -----------------  -----------------  -----------------
           C         -1.321071755662     0.756056494010    -0.799313714705    12.000000000000
           C         -2.399071755662     1.329056494010    -0.126313714705    12.000000000000
           C          0.618928244338    -1.476943505990    -1.675313714705    12.000000000000
           C          2.121928244338     0.039056494010    -0.568313714705    12.000000000000
           C         -1.406071755662     0.713056494010     1.988686285295    12.000000000000
           C          1.720928244338    -2.009943505990    -2.324313714705    12.000000000000
           C          3.156928244338    -0.561943505990    -1.266313714705    12.000000000000
           C         -0.285071755662     0.161056494010    -0.079313714705    12.000000000000
           C          0.831928244338    -0.432943505990    -0.782313714705    12.000000000000
           C         -2.442071755662     1.308056494010     1.267686285295    12.000000000000
           C         -0.328071755662     0.140056494010     1.314686285295    12.000000000000
           N          2.988928244338    -1.577943505990    -2.142313714705    14.003074004780
           O         -3.495071755662     1.868056494010     1.924686285295    15.994914619560
           F          0.659928244338    -0.427943505990     2.021686285295    18.998403224000
           H         -1.302071755662     0.780056494010    -1.886313714705     1.007825032070
           H         -3.204071755662     1.790056494010    -0.693313714705     1.007825032070
           H         -0.373071755662    -1.870943505990    -1.870313714705     1.007825032070
           H          2.325928244338     0.852056494010     0.121686285295     1.007825032070
           H         -1.434071755662     0.693056494010     3.074686285295     1.007825032070
           H          1.607928244338    -2.823943505990    -3.032313714705     1.007825032070
           H          4.180928244338    -0.230943505990    -1.133313714705     1.007825032070
           H         -3.507071755662     1.576056494010     2.849686285295     1.007825032070

  Running in c1 symmetry.

  Rotational constants: A =      0.06326  B =      0.01307  C =      0.01165 [cm^-1]
  Rotational constants: A =   1896.56069  B =    391.93075  C =    349.26101 [MHz]
  Nuclear repulsion =  814.015322547784081

  Charge       = 0
  Multiplicity = 1
  Electrons    = 98
  Nalpha       = 49
  Nbeta        = 49

  ==> Algorithm <==

  SCF Algorithm Type is DF.
  DIIS enabled.
  MOM disabled.
  Fractional occupation disabled.
  Guess Type is SAD.
  Energy threshold   = 1.00e-10
  Density threshold  = 1.00e-10
  Integral threshold = 0.00e+00

  ==> Primary Basis <==

  Basis Set: AUG-CC-PVTZ
    Blend: AUG-CC-PVTZ
    Number of shells: 268
    Number of basis function: 828
    Number of Cartesian functions: 970
    Spherical Harmonics?: true
    Max angular momentum: 3

   => Loading Basis Set <=

    Name: (AUG-CC-PVTZ AUX)
    Role: JKFIT
    Keyword: DF_BASIS_SCF
    atoms 1-11  entry C          line   161 file /cbio/jclab/home/chayas/anaconda/envs/py35/share/psi4/basis/aug-cc-pvtz-jkfit.gbs 
    atoms 12    entry N          line   223 file /cbio/jclab/home/chayas/anaconda/envs/py35/share/psi4/basis/aug-cc-pvtz-jkfit.gbs 
    atoms 13    entry O          line   285 file /cbio/jclab/home/chayas/anaconda/envs/py35/share/psi4/basis/aug-cc-pvtz-jkfit.gbs 
    atoms 14    entry F          line   347 file /cbio/jclab/home/chayas/anaconda/envs/py35/share/psi4/basis/aug-cc-pvtz-jkfit.gbs 
    atoms 15-22 entry H          line    69 file /cbio/jclab/home/chayas/anaconda/envs/py35/share/psi4/basis/aug-cc-pvtz-jkfit.gbs 

  ==> Pre-Iterations <==

   -------------------------------------------------------
    Irrep   Nso     Nmo     Nalpha   Nbeta   Ndocc  Nsocc
   -------------------------------------------------------
     A        828     828       0       0       0       0
   -------------------------------------------------------
    Total     828     828      49      49      49       0
   -------------------------------------------------------

  ==> Integral Setup <==

  ==> DFJK: Density-Fitted J/K Matrices <==

    J tasked:                  Yes
    K tasked:                  Yes
    wK tasked:                  No
    OpenMP threads:              8
    Integrals threads:           8
    Memory (MB):              3576
    Algorithm:                Disk
    Integral Cache:           NONE
    Schwarz Cutoff:          1E-12
    Fitting Condition:       1E-12

   => Auxiliary Basis Set <=

  Basis Set: (AUG-CC-PVTZ AUX)
    Blend: AUG-CC-PVTZ-JKFIT
    Number of shells: 532
    Number of basis function: 1824
    Number of Cartesian functions: 2274
    Spherical Harmonics?: true
    Max angular momentum: 4

  Minimum eigenvalue in the overlap matrix is 7.3787109617E-07.
  Using Symmetric Orthogonalization.

  SCF Guess: Superposition of Atomic Densities via on-the-fly atomic UHF.

  ==> Iterations <==

                           Total Energy        Delta E     RMS |[F,P]|

   @DF-RHF iter   0:  -657.87377990719233   -6.57874e+02   2.44074e-02 
   @DF-RHF iter   1:  -649.77523321002741    8.09855e+00   2.13751e-03 
   @DF-RHF iter   2:  -650.09581382398051   -3.20581e-01   1.02511e-03 DIIS
   @DF-RHF iter   3:  -650.15526777241166   -5.94539e-02   4.12196e-04 DIIS
   @DF-RHF iter   4:  -650.17115800783438   -1.58902e-02   1.17686e-04 DIIS
   @DF-RHF iter   5:  -650.17297679145179   -1.81878e-03   5.12177e-05 DIIS
   @DF-RHF iter   6:  -650.17329380622982   -3.17015e-04   1.98520e-05 DIIS
   @DF-RHF iter   7:  -650.17333872571635   -4.49195e-05   7.03355e-06 DIIS
   @DF-RHF iter   8:  -650.17334395565513   -5.22994e-06   2.38291e-06 DIIS
   @DF-RHF iter   9:  -650.17334487504218   -9.19387e-07   1.02832e-06 DIIS
   @DF-RHF iter  10:  -650.17334512450623   -2.49464e-07   5.21164e-07 DIIS
   @DF-RHF iter  11:  -650.17334520377642   -7.92702e-08   2.34109e-07 DIIS
   @DF-RHF iter  12:  -650.17334521844725   -1.46708e-08   8.63345e-08 DIIS
   @DF-RHF iter  13:  -650.17334522003705   -1.58980e-09   2.12274e-08 DIIS
   @DF-RHF iter  14:  -650.17334522017825   -1.41199e-10   6.40978e-09 DIIS
   @DF-RHF iter  15:  -650.17334522019758   -1.93268e-11   2.84827e-09 DIIS
   @DF-RHF iter  16:  -650.17334522019246    5.11591e-12   1.41430e-09 DIIS
   @DF-RHF iter  17:  -650.17334522018712    5.34328e-12   6.41140e-10 DIIS
   @DF-RHF iter  18:  -650.17334522019098   -3.86535e-12   3.08375e-10 DIIS
   @DF-RHF iter  19:  -650.17334522018496    6.02540e-12   1.46387e-10 DIIS
   @DF-RHF iter  20:  -650.17334522018382    1.13687e-12   4.12628e-11 DIIS

  ==> Post-Iterations <==

    Orbital Energies (a.u.)
    -----------------------

    Doubly Occupied:                                                      

       1A    -26.327567     2A    -20.608405     3A    -15.565401  
       4A    -11.349522     5A    -11.327332     6A    -11.275025  
       7A    -11.274240     8A    -11.265483     9A    -11.265086  
      10A    -11.254212    11A    -11.253178    12A    -11.245969  
      13A    -11.239737    14A    -11.238416    15A     -1.645769  
      16A     -1.423347    17A     -1.250557    18A     -1.181838  
      19A     -1.110288    20A     -1.041379    21A     -1.034567  
      22A     -1.019547    23A     -0.891809    24A     -0.876789  
      25A     -0.853810    26A     -0.824842    27A     -0.773059  
      28A     -0.746901    29A     -0.725145    30A     -0.712117  
      31A     -0.697428    32A     -0.664655    33A     -0.661222  
      34A     -0.641861    35A     -0.635718    36A     -0.617288  
      37A     -0.607371    38A     -0.599328    39A     -0.575743  
      40A     -0.541780    41A     -0.534540    42A     -0.533338  
      43A     -0.521544    44A     -0.494791    45A     -0.419507  
      46A     -0.387455    47A     -0.359960    48A     -0.349290  
      49A     -0.324873  

    Virtual:                                                              

      50A      0.021945    51A      0.029121    52A      0.034287  
      53A      0.036566    54A      0.044612    55A      0.047071  
      56A      0.052916    57A      0.054827    58A      0.076082  
      59A      0.082105    60A      0.082663    61A      0.085341  
      62A      0.092307    63A      0.094508    64A      0.097247  
      65A      0.101243    66A      0.104734    67A      0.108256  
      68A      0.111467    69A      0.112186    70A      0.113307  
      71A      0.118551    72A      0.121849    73A      0.124269  
      74A      0.129599    75A      0.131748    76A      0.133808  
      77A      0.134794    78A      0.139879    79A      0.143709  
      80A      0.147982    81A      0.151866    82A      0.153931  
      83A      0.155119    84A      0.155756    85A      0.167113  
      86A      0.171024    87A      0.173306    88A      0.183766  
      89A      0.185748    90A      0.193042    91A      0.200161  
      92A      0.207574    93A      0.213290    94A      0.214468  
      95A      0.227454    96A      0.229648    97A      0.235919  
      98A      0.236866    99A      0.240036   100A      0.240736  
     101A      0.244397   102A      0.249437   103A      0.252602  
     104A      0.257309   105A      0.260486   106A      0.264110  
     107A      0.266565   108A      0.269241   109A      0.272933  
     110A      0.279243   111A      0.281785   112A      0.284948  
     113A      0.291895   114A      0.294815   115A      0.300374  
     116A      0.301885   117A      0.309904   118A      0.313471  
     119A      0.317518   120A      0.319499   121A      0.322083  
     122A      0.327685   123A      0.328450   124A      0.330793  
     125A      0.333116   126A      0.343662   127A      0.346547  
     128A      0.350422   129A      0.353602   130A      0.360165  
     131A      0.369139   132A      0.377139   133A      0.379563  
     134A      0.384017   135A      0.390326   136A      0.395131  
     137A      0.400342   138A      0.405054   139A      0.408045  
     140A      0.410651   141A      0.416322   142A      0.421616  
     143A      0.423976   144A      0.427578   145A      0.431325  
     146A      0.435190   147A      0.441291   148A      0.445227  
     149A      0.450536   150A      0.450726   151A      0.458291  
     152A      0.463343   153A      0.467172   154A      0.470138  
     155A      0.474514   156A      0.475881   157A      0.479919  
     158A      0.484470   159A      0.486566   160A      0.489995  
     161A      0.493533   162A      0.496698   163A      0.498591  
     164A      0.502395   165A      0.509215   166A      0.511065  
     167A      0.512009   168A      0.513034   169A      0.521000  
     170A      0.523322   171A      0.524574   172A      0.530253  
     173A      0.535910   174A      0.540897   175A      0.545159  
     176A      0.545585   177A      0.550779   178A      0.554451  
     179A      0.559158   180A      0.565013   181A      0.572068  
     182A      0.575283   183A      0.576725   184A      0.586227  
     185A      0.592021   186A      0.594122   187A      0.607405  
     188A      0.611362   189A      0.619594   190A      0.624498  
     191A      0.626178   192A      0.634671   193A      0.639026  
     194A      0.642674   195A      0.649321   196A      0.656636  
     197A      0.658190   198A      0.671488   199A      0.679681  
     200A      0.681476   201A      0.692768   202A      0.698642  
     203A      0.702680   204A      0.705119   205A      0.710843  
     206A      0.717408   207A      0.720610   208A      0.723530  
     209A      0.729463   210A      0.735051   211A      0.737450  
     212A      0.740139   213A      0.750479   214A      0.753333  
     215A      0.761693   216A      0.766833   217A      0.770598  
     218A      0.779159   219A      0.787992   220A      0.793630  
     221A      0.797501   222A      0.802126   223A      0.805956  
     224A      0.818932   225A      0.821220   226A      0.829071  
     227A      0.837969   228A      0.841936   229A      0.848916  
     230A      0.853802   231A      0.858112   232A      0.861803  
     233A      0.865511   234A      0.871063   235A      0.877170  
     236A      0.879695   237A      0.886638   238A      0.890238  
     239A      0.895942   240A      0.900710   241A      0.903448  
     242A      0.907688   243A      0.910393   244A      0.922674  
     245A      0.928817   246A      0.931875   247A      0.933147  
     248A      0.937211   249A      0.942087   250A      0.944618  
     251A      0.952309   252A      0.956230   253A      0.959455  
     254A      0.962841   255A      0.966581   256A      0.972057  
     257A      0.974076   258A      0.984966   259A      0.987682  
     260A      0.993925   261A      0.998179   262A      0.999466  
     263A      1.008372   264A      1.012249   265A      1.018812  
     266A      1.021359   267A      1.025845   268A      1.027542  
     269A      1.031707   270A      1.038419   271A      1.040536  
     272A      1.046615   273A      1.049396   274A      1.052114  
     275A      1.060175   276A      1.063737   277A      1.073367  
     278A      1.075449   279A      1.080589   280A      1.082108  
     281A      1.088262   282A      1.091879   283A      1.100914  
     284A      1.103319   285A      1.105501   286A      1.112184  
     287A      1.119638   288A      1.121171   289A      1.132016  
     290A      1.133640   291A      1.134728   292A      1.143536  
     293A      1.146720   294A      1.151035   295A      1.156260  
     296A      1.159462   297A      1.164506   298A      1.170102  
     299A      1.173216   300A      1.180820   301A      1.187226  
     302A      1.189816   303A      1.197841   304A      1.199375  
     305A      1.206156   306A      1.213959   307A      1.217088  
     308A      1.222304   309A      1.227555   310A      1.232534  
     311A      1.237824   312A      1.245599   313A      1.253961  
     314A      1.255457   315A      1.264262   316A      1.267995  
     317A      1.274362   318A      1.278590   319A      1.284395  
     320A      1.296111   321A      1.297339   322A      1.305732  
     323A      1.313616   324A      1.317646   325A      1.328074  
     326A      1.329103   327A      1.341575   328A      1.348407  
     329A      1.357229   330A      1.358593   331A      1.369767  
     332A      1.371488   333A      1.374914   334A      1.380794  
     335A      1.390293   336A      1.393660   337A      1.398775  
     338A      1.407076   339A      1.414471   340A      1.429824  
     341A      1.435821   342A      1.441837   343A      1.446561  
     344A      1.454695   345A      1.463164   346A      1.471583  
     347A      1.483969   348A      1.493410   349A      1.499796  
     350A      1.505128   351A      1.513486   352A      1.519991  
     353A      1.528949   354A      1.544029   355A      1.551025  
     356A      1.553707   357A      1.561079   358A      1.567029  
     359A      1.572625   360A      1.586162   361A      1.590949  
     362A      1.600177   363A      1.607136   364A      1.608990  
     365A      1.620876   366A      1.631240   367A      1.636987  
     368A      1.642553   369A      1.646956   370A      1.657317  
     371A      1.666803   372A      1.669092   373A      1.676058  
     374A      1.682535   375A      1.692084   376A      1.696669  
     377A      1.706528   378A      1.711895   379A      1.720359  
     380A      1.725220   381A      1.731545   382A      1.738604  
     383A      1.744758   384A      1.749751   385A      1.763258  
     386A      1.769080   387A      1.779999   388A      1.783340  
     389A      1.787654   390A      1.793282   391A      1.805649  
     392A      1.810089   393A      1.819635   394A      1.826972  
     395A      1.834180   396A      1.847175   397A      1.862192  
     398A      1.873235   399A      1.882693   400A      1.884411  
     401A      1.888140   402A      1.890021   403A      1.902789  
     404A      1.906739   405A      1.907581   406A      1.927764  
     407A      1.933443   408A      1.937929   409A      1.942523  
     410A      1.944326   411A      1.953631   412A      1.963422  
     413A      1.976282   414A      1.982579   415A      1.993218  
     416A      2.002713   417A      2.006499   418A      2.015051  
     419A      2.021400   420A      2.029724   421A      2.034202  
     422A      2.045462   423A      2.051144   424A      2.061079  
     425A      2.064835   426A      2.080852   427A      2.085996  
     428A      2.090679   429A      2.096794   430A      2.111104  
     431A      2.115878   432A      2.118182   433A      2.123751  
     434A      2.129316   435A      2.139569   436A      2.149101  
     437A      2.166649   438A      2.168100   439A      2.178543  
     440A      2.190028   441A      2.195343   442A      2.199738  
     443A      2.204551   444A      2.217961   445A      2.224126  
     446A      2.234576   447A      2.245945   448A      2.258571  
     449A      2.265567   450A      2.271165   451A      2.277805  
     452A      2.289477   453A      2.297556   454A      2.304102  
     455A      2.315106   456A      2.322925   457A      2.337481  
     458A      2.342019   459A      2.356465   460A      2.365805  
     461A      2.378796   462A      2.382072   463A      2.407025  
     464A      2.413587   465A      2.422853   466A      2.424713  
     467A      2.444150   468A      2.454842   469A      2.462507  
     470A      2.466973   471A      2.478478   472A      2.487606  
     473A      2.515277   474A      2.525146   475A      2.547977  
     476A      2.563745   477A      2.571429   478A      2.576086  
     479A      2.581180   480A      2.586309   481A      2.596248  
     482A      2.610347   483A      2.620787   484A      2.633876  
     485A      2.642201   486A      2.667861   487A      2.680417  
     488A      2.687558   489A      2.713404   490A      2.720527  
     491A      2.735526   492A      2.756750   493A      2.763520  
     494A      2.786288   495A      2.806654   496A      2.810667  
     497A      2.827815   498A      2.833301   499A      2.837000  
     500A      2.848335   501A      2.868828   502A      2.891195  
     503A      2.941072   504A      2.952314   505A      2.966883  
     506A      2.993125   507A      3.013452   508A      3.034078  
     509A      3.054838   510A      3.057981   511A      3.062552  
     512A      3.081249   513A      3.108030   514A      3.113094  
     515A      3.132142   516A      3.154461   517A      3.159815  
     518A      3.173459   519A      3.183705   520A      3.193839  
     521A      3.195702   522A      3.207901   523A      3.229551  
     524A      3.247546   525A      3.266150   526A      3.268478  
     527A      3.282412   528A      3.292294   529A      3.307887  
     530A      3.314655   531A      3.330568   532A      3.343231  
     533A      3.353370   534A      3.364647   535A      3.374929  
     536A      3.395317   537A      3.399514   538A      3.412495  
     539A      3.420939   540A      3.428148   541A      3.438579  
     542A      3.440551   543A      3.448734   544A      3.452563  
     545A      3.456308   546A      3.483511   547A      3.487079  
     548A      3.493185   549A      3.500004   550A      3.504020  
     551A      3.523900   552A      3.538252   553A      3.543589  
     554A      3.547502   555A      3.558901   556A      3.564067  
     557A      3.567398   558A      3.580427   559A      3.585112  
     560A      3.588096   561A      3.599563   562A      3.614404  
     563A      3.617351   564A      3.625937   565A      3.631220  
     566A      3.635807   567A      3.650367   568A      3.655741  
     569A      3.666209   570A      3.677042   571A      3.687919  
     572A      3.702920   573A      3.707769   574A      3.714435  
     575A      3.735530   576A      3.739211   577A      3.747238  
     578A      3.755334   579A      3.760663   580A      3.775285  
     581A      3.782361   582A      3.791349   583A      3.802406  
     584A      3.809527   585A      3.821074   586A      3.825084  
     587A      3.826800   588A      3.846574   589A      3.852484  
     590A      3.863211   591A      3.870265   592A      3.885174  
     593A      3.891331   594A      3.900075   595A      3.906739  
     596A      3.914847   597A      3.919826   598A      3.928046  
     599A      3.934493   600A      3.943805   601A      3.951197  
     602A      3.955602   603A      3.959819   604A      3.966294  
     605A      3.981223   606A      3.982329   607A      4.002814  
     608A      4.015847   609A      4.023790   610A      4.033874  
     611A      4.035971   612A      4.047557   613A      4.051159  
     614A      4.068790   615A      4.078447   616A      4.082572  
     617A      4.094742   618A      4.097478   619A      4.107757  
     620A      4.114746   621A      4.130037   622A      4.136756  
     623A      4.143464   624A      4.153856   625A      4.162828  
     626A      4.182564   627A      4.187076   628A      4.191534  
     629A      4.201809   630A      4.213577   631A      4.220427  
     632A      4.222455   633A      4.233648   634A      4.239142  
     635A      4.251415   636A      4.264000   637A      4.282260  
     638A      4.293431   639A      4.303651   640A      4.307883  
     641A      4.316744   642A      4.322682   643A      4.330395  
     644A      4.337859   645A      4.353312   646A      4.356714  
     647A      4.358685   648A      4.371750   649A      4.382958  
     650A      4.388519   651A      4.408312   652A      4.417947  
     653A      4.420428   654A      4.422434   655A      4.441771  
     656A      4.453014   657A      4.462610   658A      4.469467  
     659A      4.474365   660A      4.480583   661A      4.492817  
     662A      4.505668   663A      4.514970   664A      4.528939  
     665A      4.535393   666A      4.544850   667A      4.573972  
     668A      4.581877   669A      4.586735   670A      4.596173  
     671A      4.602534   672A      4.611756   673A      4.624400  
     674A      4.649115   675A      4.653103   676A      4.685150  
     677A      4.695356   678A      4.703896   679A      4.723582  
     680A      4.724331   681A      4.742457   682A      4.748052  
     683A      4.753606   684A      4.783849   685A      4.792265  
     686A      4.801055   687A      4.817575   688A      4.845913  
     689A      4.867007   690A      4.869426   691A      4.891505  
     692A      4.894322   693A      4.913861   694A      4.942998  
     695A      4.956408   696A      4.962644   697A      4.967224  
     698A      4.974299   699A      4.990218   700A      5.004300  
     701A      5.015241   702A      5.026478   703A      5.033810  
     704A      5.038104   705A      5.048718   706A      5.056655  
     707A      5.069644   708A      5.091390   709A      5.100945  
     710A      5.105972   711A      5.125054   712A      5.132139  
     713A      5.145352   714A      5.169603   715A      5.173396  
     716A      5.179285   717A      5.184205   718A      5.189435  
     719A      5.192119   720A      5.205194   721A      5.226933  
     722A      5.266875   723A      5.279777   724A      5.298337  
     725A      5.308014   726A      5.320189   727A      5.339357  
     728A      5.354726   729A      5.366853   730A      5.381091  
     731A      5.399424   732A      5.432656   733A      5.443941  
     734A      5.455447   735A      5.466048   736A      5.470693  
     737A      5.472024   738A      5.499570   739A      5.527642  
     740A      5.553191   741A      5.561610   742A      5.575527  
     743A      5.593104   744A      5.615507   745A      5.644020  
     746A      5.687538   747A      5.710050   748A      5.741766  
     749A      5.756294   750A      5.766111   751A      5.797300  
     752A      5.801679   753A      5.833810   754A      5.843653  
     755A      5.875541   756A      5.881918   757A      5.909716  
     758A      5.957633   759A      6.016041   760A      6.038906  
     761A      6.081253   762A      6.112363   763A      6.128288  
     764A      6.180559   765A      6.231514   766A      6.255235  
     767A      6.285640   768A      6.303451   769A      6.317804  
     770A      6.360146   771A      6.377255   772A      6.460783  
     773A      6.493717   774A      6.513136   775A      6.527123  
     776A      6.571114   777A      6.683411   778A      6.694679  
     779A      6.704209   780A      6.715339   781A      6.737768  
     782A      6.830301   783A      6.871817   784A      6.895707  
     785A      6.926974   786A      6.955236   787A      6.982719  
     788A      7.053395   789A      7.062217   790A      7.084719  
     791A      7.192066   792A      7.264212   793A      7.378242  
     794A      7.416586   795A      7.435771   796A      7.475568  
     797A      7.663060   798A      7.693467   799A      7.744524  
     800A      7.968724   801A      8.363505   802A      8.609484  
     803A      9.002502   804A      9.045904   805A      9.268292  
     806A      9.287481   807A      9.403705   808A      9.518293  
     809A      9.537326   810A      9.591675   811A      9.639460  
     812A      9.713732   813A     10.030468   814A     10.075405  
     815A     15.531912   816A     16.141695   817A     16.549321  
     818A     16.593199   819A     16.678466   820A     16.812453  
     821A     18.459465   822A     18.695307   823A     19.194596  
     824A     19.674176   825A     20.149385   826A     20.193655  
     827A     20.402878   828A     21.789002  

    Final Occupation by Irrep:
              A 
    DOCC [    49 ]

  Energy converged.

  @DF-RHF Final Energy:  -650.17334522018382

   => Energetics <=

    Nuclear Repulsion Energy =            814.0153225477840806
    One-Electron Energy =               -2502.8392845043158559
    Two-Electron Energy =                1038.6506167363479562
    DFT Exchange-Correlation Energy =       0.0000000000000000
    Empirical Dispersion Energy =           0.0000000000000000
    PCM Polarization Energy =               0.0000000000000000
    EFP Energy =                            0.0000000000000000
    Total Energy =                       -650.1733452201838190



Properties will be evaluated at   0.000000,   0.000000,   0.000000 Bohr

Properties computed using the SCF density matrix

  Nuclear Dipole Moment: (a.u.)
     X:    -2.2469      Y:     1.1348      Z:    -4.3005

  Electronic Dipole Moment: (a.u.)
     X:     1.1826      Y:    -0.7219      Z:     4.9099

  Dipole Moment: (a.u.)
     X:    -1.0644      Y:     0.4129      Z:     0.6094     Total:     1.2941

  Dipole Moment: (Debye)
     X:    -2.7053      Y:     1.0495      Z:     1.5489     Total:     3.2893


*** tstop() called on gpu-1-8.local at Sat Nov 11 23:37:21 2017
Module time:
	user time   =    1305.51 seconds =      21.76 minutes
	system time =      53.55 seconds =       0.89 minutes
	total time  =        647 seconds =      10.78 minutes
Total time:
	user time   =    1305.52 seconds =      21.76 minutes
	system time =      53.55 seconds =       0.89 minutes
	total time  =        647 seconds =      10.78 minutes

  //>>>>>>>>>>>>>>>>>>>>>>>>>>>>>>>>>>>//
  //               DFMP2               //
  //<<<<<<<<<<<<<<<<<<<<<<<<<<<<<<<<<<<//

   => Loading Basis Set <=

    Name: (AUG-CC-PVTZ AUX)
    Role: RIFIT
    Keyword: DF_BASIS_MP2
    atoms 1-11  entry C          line   147 file /cbio/jclab/home/chayas/anaconda/envs/py35/share/psi4/basis/aug-cc-pvtz-ri.gbs 
    atoms 12    entry N          line   205 file /cbio/jclab/home/chayas/anaconda/envs/py35/share/psi4/basis/aug-cc-pvtz-ri.gbs 
    atoms 13    entry O          line   263 file /cbio/jclab/home/chayas/anaconda/envs/py35/share/psi4/basis/aug-cc-pvtz-ri.gbs 
    atoms 14    entry F          line   321 file /cbio/jclab/home/chayas/anaconda/envs/py35/share/psi4/basis/aug-cc-pvtz-ri.gbs 
    atoms 15-22 entry H          line    29 file /cbio/jclab/home/chayas/anaconda/envs/py35/share/psi4/basis/aug-cc-pvtz-ri.gbs 

	 --------------------------------------------------------
	                          DF-MP2                         
	      2nd-Order Density-Fitted Moller-Plesset Theory     
	              RMP2 Wavefunction,   8 Threads             
	                                                         
	        Rob Parrish, Justin Turney, Andy Simmonett,      
	           Ed Hohenstein, and C. David Sherrill          
	 --------------------------------------------------------

   => Auxiliary Basis Set <=

  Basis Set: (AUG-CC-PVTZ AUX)
    Blend: AUG-CC-PVTZ-RI
    Number of shells: 504
    Number of basis function: 1852
    Number of Cartesian functions: 2344
    Spherical Harmonics?: true
    Max angular momentum: 4

	 --------------------------------------------------------
	                 NBF =   828, NAUX =  1852
	 --------------------------------------------------------
	   CLASS    FOCC     OCC    AOCC    AVIR     VIR    FVIR
	   PAIRS       0      49      49     779     779       0
	 --------------------------------------------------------


         ------------------------------------------------------------
                                     CPHF                           
                                  Rob Parrish                       
         ------------------------------------------------------------

  ==> Geometry <==

    Molecular point group: c1
    Full point group: C1

    Geometry (in Angstrom), charge = 0, multiplicity = 1:

       Center              X                  Y                   Z               Mass       
    ------------   -----------------  -----------------  -----------------  -----------------
           C         -1.321071755662     0.756056494010    -0.799313714705    12.000000000000
           C         -2.399071755662     1.329056494010    -0.126313714705    12.000000000000
           C          0.618928244338    -1.476943505990    -1.675313714705    12.000000000000
           C          2.121928244338     0.039056494010    -0.568313714705    12.000000000000
           C         -1.406071755662     0.713056494010     1.988686285295    12.000000000000
           C          1.720928244338    -2.009943505990    -2.324313714705    12.000000000000
           C          3.156928244338    -0.561943505990    -1.266313714705    12.000000000000
           C         -0.285071755662     0.161056494010    -0.079313714705    12.000000000000
           C          0.831928244338    -0.432943505990    -0.782313714705    12.000000000000
           C         -2.442071755662     1.308056494010     1.267686285295    12.000000000000
           C         -0.328071755662     0.140056494010     1.314686285295    12.000000000000
           N          2.988928244338    -1.577943505990    -2.142313714705    14.003074004780
           O         -3.495071755662     1.868056494010     1.924686285295    15.994914619560
           F          0.659928244338    -0.427943505990     2.021686285295    18.998403224000
           H         -1.302071755662     0.780056494010    -1.886313714705     1.007825032070
           H         -3.204071755662     1.790056494010    -0.693313714705     1.007825032070
           H         -0.373071755662    -1.870943505990    -1.870313714705     1.007825032070
           H          2.325928244338     0.852056494010     0.121686285295     1.007825032070
           H         -1.434071755662     0.693056494010     3.074686285295     1.007825032070
           H          1.607928244338    -2.823943505990    -3.032313714705     1.007825032070
           H          4.180928244338    -0.230943505990    -1.133313714705     1.007825032070
           H         -3.507071755662     1.576056494010     2.849686285295     1.007825032070

  Nuclear repulsion =  814.015322547784081
  Reference energy  = -650.173345220183819

  ==> Basis Set <==

  Basis Set: AUG-CC-PVTZ
    Blend: AUG-CC-PVTZ
    Number of shells: 268
    Number of basis function: 828
    Number of Cartesian functions: 970
    Spherical Harmonics?: true
    Max angular momentum: 3

  ==> CGRSolver (by Rob Parrish) <==

   Number of roots    =         1
   Preconditioning    =    JACOBI
   Convergence cutoff =     1E-06
   Maximum iterations =       100

  ==> CPHFRHamiltonian (by Rob Parrish) <== 

  ==> DFJK: Density-Fitted J/K Matrices <==

    J tasked:                  Yes
    K tasked:                  Yes
    wK tasked:                  No
    OpenMP threads:              8
    Integrals threads:           8
    Memory (MB):              3576
    Algorithm:                Disk
    Integral Cache:           NONE
    Schwarz Cutoff:          1E-12
    Fitting Condition:       1E-12

   => Auxiliary Basis Set <=

  Basis Set: (AUG-CC-PVTZ AUX)
    Blend: AUG-CC-PVTZ-JKFIT
    Number of shells: 532
    Number of basis function: 1824
    Number of Cartesian functions: 2274
    Spherical Harmonics?: true
    Max angular momentum: 4

  ==> CPHF Iterations <==

  => Iterations <=

             Iter  Converged  Remaining    Residual
  CGR           1          0          1   1.023E-01
  CGR           2          0          1   3.411E-02
  CGR           3          0          1   2.242E-02
  CGR           4          0          1   9.798E-03
  CGR           5          0          1   4.071E-03
  CGR           6          0          1   1.523E-03
  CGR           7          0          1   4.473E-04
  CGR           8          0          1   1.482E-04
  CGR           9          0          1   4.719E-05
  CGR          10          0          1   1.312E-05
  CGR          11          0          1   5.236E-06
  CGR          12          0          1   1.558E-06
  CGR          13          1          0   7.135E-07

    CGRSolver converged.

  ==> DFCorrGrad: Density-Fitted Correlated Gradients <==

    OpenMP threads:              8
    Integrals threads:           8
    Memory (MB):              3576
    Schwarz Cutoff:          0E+00
    Fitting Condition:       1E-12

   => Auxiliary Basis Set <=

  Basis Set: (AUG-CC-PVTZ AUX)
    Blend: AUG-CC-PVTZ-JKFIT
    Number of shells: 532
    Number of basis function: 1824
    Number of Cartesian functions: 2274
    Spherical Harmonics?: true
    Max angular momentum: 4

	-----------------------------------------------------------
	 ==================> DF-MP2 Energies <==================== 
	-----------------------------------------------------------
	 Reference Energy          =    -650.1733452201838190 [Eh]
	 Singles Energy            =      -0.0000000000000002 [Eh]
	 Same-Spin Energy          =      -0.6774938078664450 [Eh]
	 Opposite-Spin Energy      =      -2.0193504527588257 [Eh]
	 Correlation Energy        =      -2.6968442606252707 [Eh]
	 Total Energy              =    -652.8701894808091311 [Eh]
	-----------------------------------------------------------
	 ================> DF-SCS-MP2 Energies <================== 
	-----------------------------------------------------------
	 SCS Same-Spin Scale       =       0.3333333333333333 [-]
	 SCS Opposite-Spin Scale   =       1.2000000000000000 [-]
	 SCS Same-Spin Energy      =      -0.2258312692888150 [Eh]
	 SCS Opposite-Spin Energy  =      -2.4232205433105909 [Eh]
	 SCS Correlation Energy    =      -2.6490518125994060 [Eh]
	 SCS Total Energy          =    -652.8223970327832149 [Eh]
	-----------------------------------------------------------


  -Total Gradient:
     Atom            X                  Y                   Z
    ------   -----------------  -----------------  -----------------
       1        0.009989825701    -0.003234755124    -0.014194990067
       2        0.003280361836    -0.002659656590     0.003197904720
       3       -0.007251426948    -0.000979252494     0.003027560948
       4       -0.003826864215     0.005896375672     0.003715086321
       5       -0.007884518266     0.004616563769     0.000947277410
       6       -0.014000920690    -0.001029431276     0.002614823415
       7       -0.003131910622     0.009537323003     0.008717893987
       8       -0.001207888108     0.000628712364    -0.002657648741
       9       -0.001588999442     0.001086736576    -0.000925810820
      10       -0.008221366609     0.007120313490    -0.003599762571
      11        0.021297184428    -0.014505705520     0.005485155867
      12        0.013500509077    -0.006736122004    -0.008448671594
      13        0.004882217572     0.000246941121     0.000377113088
      14        0.001586271281    -0.000298150738     0.002201246490
      15       -0.002784778334     0.001363930216    -0.006264797296
      16       -0.003200039589     0.001834244975    -0.005403386861
      17       -0.003124482575    -0.002582168908    -0.002756165726
      18        0.002899853636     0.003635370571     0.002813918655
      19       -0.001022944070     0.000300014095     0.004455883991
      20        0.000392596634    -0.001766317690    -0.001983360185
      21        0.002492914957     0.000169276373     0.000089638886
      22       -0.003075595674    -0.002644241880     0.008591090085


*** tstop() called on gpu-1-8.local at Sun Nov 12 00:17:01 2017
Module time:
	user time   =    6199.89 seconds =     103.33 minutes
	system time =     111.18 seconds =       1.85 minutes
	total time  =       3027 seconds =      50.45 minutes
Total time:
	user time   =    6199.90 seconds =     103.33 minutes
	system time =     111.18 seconds =       1.85 minutes
	total time  =       3027 seconds =      50.45 minutes

			-----------------------------------------
			 OPTKING 2.0: for geometry optimizations 
			  - R.A. King,  Bethel University        
			-----------------------------------------

	Internal coordinates to be generated automatically.
	Detected frag 1 with atoms:  1 2 3 4 5 6 7 8 9 10 11 12 13 14 15 16 17 18 19 20
	 21 22
	---Fragment 1 Bond Connectivity---
	 1 : 2 8 15
	 2 : 1 10 16
	 3 : 6 9 17
	 4 : 7 9 18
	 5 : 10 11 19
	 6 : 3 12 20
	 7 : 4 12 21
	 8 : 1 9 11
	 9 : 3 4 8
	 10 : 2 5 13
	 11 : 5 8 14
	 12 : 6 7
	 13 : 10 22
	 14 : 11
	 15 : 1
	 16 : 2
	 17 : 3
	 18 : 4
	 19 : 5
	 20 : 6
	 21 : 7
	 22 : 13

	Assuming in current code that numbering for constraints corresponds to unified fragment.
	Fixed dihedral atom list: 
	     2    10    13    22
	---Fragment 1 Geometry and Gradient---
	 C          -2.4964638201        1.4287397147       -1.5104840151
	 C          -4.5335885913        2.5115527888       -0.2386983276
	 C           1.1696048777       -2.7910187401       -3.1658841075
	 C           4.0098632554        0.0738060774       -1.0739572784
	 C          -2.6570905414        1.3474814910        3.7580724434
	 C           3.2520830761       -3.7982427689       -4.3923163677
	 C           5.9657298030       -1.0619193285       -2.3929861191
	 C          -0.5387075464        0.3043526656       -0.1498811994
	 C           1.5721165440       -0.8181446573       -1.4783586708
	 C          -4.6148468151        2.4718685400        2.3955799016
	 C          -0.6199657701        0.2646684168        2.4843970299
	 N           5.6482558126       -2.9818810795       -4.0483862115
	 O          -6.6047284330        3.5301151744        3.6371299709
	 F           1.2470836492       -0.8086960267        3.8204334058
	 H          -2.4605590236        1.4740931419       -3.5646163215
	 H          -6.0548181283        3.3827165361       -1.3101730450
	 H          -0.7050034461       -3.5355708364       -3.5343807034
	 H           4.3953673865        1.6101534234        0.2299537533
	 H          -2.7100028731        1.3096869683        5.8103150237
	 H           3.0385440231       -5.3364798411       -5.7302424698
	 H           7.9008093630       -0.4364199785       -2.1416525434
	 H          -6.6274051466        2.9783151436        5.3851266438
	             0.0099898257       -0.0032347551       -0.0141949901
	             0.0032803618       -0.0026596566        0.0031979047
	            -0.0072514269       -0.0009792525        0.0030275609
	            -0.0038268642        0.0058963757        0.0037150863
	            -0.0078845183        0.0046165638        0.0009472774
	            -0.0140009207       -0.0010294313        0.0026148234
	            -0.0031319106        0.0095373230        0.0087178940
	            -0.0012078881        0.0006287124       -0.0026576487
	            -0.0015889994        0.0010867366       -0.0009258108
	            -0.0082213666        0.0071203135       -0.0035997626
	             0.0212971844       -0.0145057055        0.0054851559
	             0.0135005091       -0.0067361220       -0.0084486716
	             0.0048822176        0.0002469411        0.0003771131
	             0.0015862713       -0.0002981507        0.0022012465
	            -0.0027847783        0.0013639302       -0.0062647973
	            -0.0032000396        0.0018342450       -0.0054033869
	            -0.0031244826       -0.0025821689       -0.0027561657
	             0.0028998536        0.0036353706        0.0028139187
	            -0.0010229441        0.0003000141        0.0044558840
	             0.0003925966       -0.0017663177       -0.0019833602
	             0.0024929150        0.0001692764        0.0000896389
	            -0.0030755957       -0.0026442419        0.0085910901

	Previous optimization step data not found.  Starting new optimization.

	---Fragment 1 Intrafragment Coordinates---
	 - Coordinate -           - BOHR/RAD -       - ANG/DEG -
	 R(1,2)           =         2.634350	       1.394038
	 R(1,8)           =         2.635962	       1.394891
	 R(1,15)          =         2.054947	       1.087431
	 R(2,10)          =         2.635830	       1.394821
	 R(2,16)          =         2.054537	       1.087214
	 R(3,6)           =         2.618273	       1.385530
	 R(3,9)           =         2.627164	       1.390235
	 R(3,17)          =         2.050440	       1.085046
	 R(4,7)           =         2.618229	       1.385507
	 R(4,9)           =         2.627114	       1.390209
	 R(4,18)          =         2.051624	       1.085673
	 R(5,10)          =         2.636938	       1.395407
	 R(5,11)          =         2.635263	       1.394521
	 R(5,19)          =         2.053272	       1.086545
	 R(6,12)          =         2.554678	       1.351877
	 R(6,20)          =         2.049834	       1.084725
	 R(7,12)          =         2.554876	       1.351982
	 R(7,21)          =         2.049134	       1.084355
	 R(8,9)           =         2.735038	       1.447320
	 R(8,11)          =         2.635830	       1.394821
	 R(10,13)         =         2.573123	       1.361638
	 R(11,14)         =         2.534359	       1.341125
	 R(13,22)         =         1.833164	       0.970069
	 B(1,2,10)        =         2.094553	     120.009056
	 B(1,2,16)        =         2.088723	     119.675016
	 B(1,8,9)         =         2.091569	     119.838095
	 B(1,8,11)        =         2.093692	     119.959722
	 B(2,1,8)         =         2.094940	     120.031219
	 B(2,1,15)        =         2.079469	     119.144799
	 B(2,10,5)        =         2.094306	     119.994870
	 B(2,10,13)       =         2.094247	     119.991510
	 B(3,6,12)        =         2.165211	     124.057445
	 B(3,6,20)        =         2.107791	     120.767548
	 B(3,9,4)         =         2.089790	     119.736135
	 B(3,9,8)         =         2.096656	     120.129524
	 B(4,7,12)        =         2.164668	     124.026364
	 B(4,7,21)        =         2.107421	     120.746344
	 B(4,9,8)         =         2.096739	     120.134309
	 B(5,10,13)       =         2.094633	     120.013619
	 B(5,11,8)        =         2.095181	     120.045019
	 B(5,11,14)       =         2.081414	     119.256220
	 B(6,3,9)         =         2.057714	     117.898335
	 B(6,3,17)        =         2.098197	     120.217854
	 B(6,12,7)        =         2.030771	     116.354583
	 B(7,4,9)         =         2.058217	     117.927126
	 B(7,4,18)        =         2.099769	     120.307895
	 B(8,1,15)        =         2.108776	     120.823969
	 B(8,11,14)       =         2.106591	     120.698759
	 B(9,3,17)        =         2.127271	     121.883627
	 B(9,4,18)        =         2.125200	     121.764971
	 B(9,8,11)        =         2.097924	     120.202184
	 B(10,2,16)       =         2.099909	     120.315896
	 B(10,5,11)       =         2.093699	     119.960108
	 B(10,5,19)       =         2.100355	     120.341451
	 B(10,13,22)      =         1.923952	     110.234334
	 B(11,5,19)       =         2.089132	     119.698439
	 B(12,6,20)       =         2.010181	     115.174900
	 B(12,7,21)       =         2.011095	     115.227270
	 D(1,2,10,5)      =        -0.000325	      -0.018609
	 D(1,2,10,13)     =         3.141388	     179.988267
	 D(1,8,9,3)       =        -1.047732	     -60.030615
	 D(1,8,9,4)       =         2.092736	     119.904915
	 D(1,8,11,5)      =         0.000325	       0.018608
	 D(1,8,11,14)     =        -3.141528	    -179.996269
	 D(2,1,8,9)       =         3.141277	     179.981897
	 D(2,1,8,11)      =        -0.000348	      -0.019945
	 D(2,10,5,11)     =         0.000301	       0.017261
	 D(2,10,5,19)     =        -3.141029	    -179.967685
	 D(2,10,13,22)    =         2.880023	     165.013155
	 D(3,6,12,7)      =         0.000000	       0.000000
	 D(3,9,4,7)       =        -0.000043	      -0.002444
	 D(3,9,4,18)      =        -3.141070	    -179.970061
	 D(3,9,8,11)      =         2.093893	     119.971231
	 D(4,7,12,6)      =        -0.000490	      -0.028079
	 D(4,9,3,6)       =        -0.000394	      -0.022595
	 D(4,9,3,17)      =        -3.139269	    -179.866889
	 D(4,9,8,11)      =        -1.048825	     -60.093239
	 D(5,10,2,16)     =         3.140149	     179.917291
	 D(5,10,13,22)    =        -0.261450	     -14.979968
	 D(5,11,8,9)      =        -3.141300	    -179.983240
	 D(6,3,9,8)       =         3.140078	     179.913192
	 D(6,12,7,21)     =         3.140154	     179.917593
	 D(7,4,9,8)       =        -3.140515	    -179.938228
	 D(7,12,6,20)     =         3.139530	     179.881843
	 D(8,1,2,10)      =         0.000348	       0.019955
	 D(8,1,2,16)      =        -3.140133	    -179.916358
	 D(8,9,3,17)      =         0.001202	       0.068898
	 D(8,9,4,18)      =         0.001643	       0.094154
	 D(8,11,5,10)     =        -0.000301	      -0.017270
	 D(8,11,5,19)     =         3.141030	     179.967774
	 D(9,3,6,12)      =         0.000430	       0.024638
	 D(9,3,6,20)      =        -3.138988	    -179.850775
	 D(9,4,7,12)      =         0.000513	       0.029399
	 D(9,4,7,21)      =        -3.140081	    -179.913416
	 D(9,8,1,15)      =         0.000403	       0.023110
	 D(9,8,11,14)     =         0.000033	       0.001883
	 D(10,2,1,15)     =         3.141234	     179.979432
	 D(10,5,11,14)    =         3.141547	     179.997392
	 D(11,5,10,13)    =        -3.141411	    -179.989616
	 D(11,8,1,15)     =        -3.141221	    -179.978731
	 D(12,6,3,17)     =         3.139352	     179.871634
	 D(12,7,4,18)     =         3.141549	     179.997508
	 D(13,10,2,16)    =        -0.001324	      -0.075833
	 D(13,10,5,19)    =         0.000444	       0.025437
	 D(14,11,5,19)    =        -0.000307	      -0.017564
	 D(15,1,2,16)     =         0.000753	       0.043120
	 D(17,3,6,20)     =        -0.000066	      -0.003779
	 D(18,4,7,21)     =         0.000955	       0.054693
	 R(4,14)          =         5.689185	       3.010587

	Current energy   :      -652.8701894808

	Generating empirical Hessian (Schlegel '84) for each fragment.
	Adding user-defined constraint: Fragment 1; Coordinate 69:
		Value =     2.880023; Fixed value    =     2.879793
		Force =    -0.000115; Force constant =     0.500000
	Removing off-diagonal coupling between coordinate 69 and others.
	Taking RFO optimization step.
	Going to follow RFO solution 1.
	Using RFO vector 1.

	Determining step-restricting scale parameter for RS-RFO.
	Maximum step size allowed    0.10000

	 Iter      |step|        alpha        rfo_root  
	------------------------------------------------
	    0     0.21579       1.00000           1
	    1     0.16402       4.21188           1
	    2     0.13108      12.46569           1
	    3     0.10992      25.73702           1
	    4     0.10141      34.48882           1
	    5     0.10003      36.16753           1
	    6     0.10000      36.21100           1
	------------------------------------------------
	Norm of target step-size    0.10000
	Projected energy change by RFO approximation:        -0.0048651426

	Back-transformation to cartesian coordinates...
	Could not converge backtransformation.
	Using first guess instead.

	--- Internal Coordinate Step in ANG or DEG, aJ/ANG or AJ/DEG ---
	 ---------------------------------------------------------------------------
	   Coordinate                Previous        Force       Change         New 
	   ----------                --------       ------       ------       ------
	    1 R(1,2)          =      1.394038    -0.055432    -0.005558     1.388480
	    2 R(1,8)          =      1.394891    -0.028429    -0.002607     1.392284
	    3 R(1,15)         =      1.087431    -0.051440    -0.006323     1.081108
	    4 R(2,10)         =      1.394821    -0.081467    -0.008216     1.386606
	    5 R(2,16)         =      1.087214    -0.049144    -0.005975     1.081239
	    6 R(3,6)          =      1.385530     0.005994     0.000583     1.386113
	    7 R(3,9)          =      1.390235    -0.017428    -0.001295     1.388940
	    8 R(3,17)         =      1.085046    -0.035340    -0.004318     1.080728
	    9 R(4,7)          =      1.385507     0.002178     0.000196     1.385703
	   10 R(4,9)          =      1.390209    -0.017798    -0.001252     1.388957
	   11 R(4,18)         =      1.085673    -0.041652    -0.005096     1.080577
	   12 R(5,10)         =      1.395407    -0.046928    -0.004759     1.390649
	   13 R(5,11)         =      1.394521    -0.105561    -0.010578     1.383943
	   14 R(5,19)         =      1.086545    -0.036864    -0.004441     1.082104
	   15 R(6,12)         =      1.351877    -0.121084    -0.011103     1.340774
	   16 R(6,20)         =      1.084725    -0.021249    -0.002593     1.082133
	   17 R(7,12)         =      1.351982    -0.117062    -0.010758     1.341225
	   18 R(7,21)         =      1.084355    -0.019912    -0.002422     1.081933
	   19 R(8,9)          =      1.447320     0.131635     0.015400     1.462720
	   20 R(8,11)         =      1.394821    -0.077672    -0.007494     1.387327
	   21 R(10,13)        =      1.361638    -0.016017    -0.001267     1.360371
	   22 R(11,14)        =      1.341125    -0.021782    -0.001823     1.339303
	   23 R(13,22)        =      0.970069    -0.074364    -0.006766     0.963302
	   24 B(1,2,10)       =    120.009056    -0.000171    -0.317745   119.691311
	   25 B(1,2,16)       =    119.675016     0.000295     0.638732   120.313748
	   26 B(1,8,9)        =    119.838095     0.000652     1.112156   120.950251
	   27 B(1,8,11)       =    119.959722    -0.000921    -1.678738   118.280984
	   28 B(2,1,8)        =    120.031219     0.000521     1.027742   121.058961
	   29 B(2,1,15)       =    119.144799    -0.000016     0.043151   119.187950
	   30 B(2,10,5)       =    119.994870    -0.000012    -0.020358   119.974512
	   31 B(2,10,13)      =    119.991510    -0.000719    -1.288106   118.703404
	   32 B(3,6,12)       =    124.057445    -0.000032    -0.121028   123.936418
	   33 B(3,6,20)       =    120.767548    -0.000038    -0.064603   120.702944
	   34 B(3,9,4)        =    119.736135    -0.000830    -1.405465   118.330670
	   35 B(3,9,8)        =    120.129524     0.000415     0.667540   120.797064
	   36 B(4,7,12)       =    124.026364    -0.000010    -0.081591   123.944773
	   37 B(4,7,21)       =    120.746344    -0.000041    -0.064806   120.681538
	   38 B(4,9,8)        =    120.134309     0.000415     0.737894   120.872203
	   39 B(5,10,13)      =    120.013619     0.000731     1.308441   121.322060
	   40 B(5,11,8)       =    120.045019     0.000788     1.391006   121.436025
	   41 B(5,11,14)      =    119.256220    -0.000189    -0.379159   118.877061
	   42 B(6,3,9)        =    117.898335     0.000367     0.764282   118.662617
	   43 B(6,3,17)       =    120.217854    -0.000007     0.020159   120.238013
	   44 B(6,12,7)       =    116.354583     0.000152     0.108353   116.462937
	   45 B(7,4,9)        =    117.927126     0.000354     0.735404   118.662530
	   46 B(7,4,18)       =    120.307895    -0.000021    -0.013210   120.294685
	   47 B(8,1,15)       =    120.823969    -0.000505    -1.070883   119.753086
	   48 B(8,11,14)      =    120.698759    -0.000599    -1.011886   119.686873
	   49 B(9,3,17)       =    121.883627    -0.000360    -0.784330   121.099296
	   50 B(9,4,18)       =    121.764971    -0.000333    -0.722191   121.042780
	   51 B(9,8,11)       =    120.202184     0.000268     0.566581   120.768765
	   52 B(10,2,16)      =    120.315896    -0.000125    -0.320956   119.994940
	   53 B(10,5,11)      =    119.960108    -0.000205    -0.401931   119.558177
	   54 B(10,5,19)      =    120.341451     0.000179     0.375101   120.716553
	   55 B(10,13,22)     =    110.234334    -0.000344    -0.783647   109.450686
	   56 B(11,5,19)      =    119.698439     0.000026     0.026831   119.725270
	   57 B(12,6,20)      =    115.174900     0.000071     0.185736   115.360636
	   58 B(12,7,21)      =    115.227270     0.000051     0.146419   115.373689
	   59 D(1,2,10,5)     =     -0.018609    -0.000000    -0.022677    -0.041286
	   60 D(1,2,10,13)    =    179.988267    -0.000006    -0.085386   179.902880
	   61 D(1,8,9,3)      =    -60.030615     0.000033     0.575774   -59.454841
	   62 D(1,8,9,4)      =    119.904915     0.000033     0.547838   120.452752
	   63 D(1,8,11,5)     =      0.018608     0.000002     0.022955     0.041563
	   64 D(1,8,11,14)    =   -179.996269    -0.000000    -0.036531  -180.032800
	   65 D(2,1,8,9)      =    179.981897    -0.000002    -0.044460   179.937436
	   66 D(2,1,8,11)     =     -0.019945    -0.000003    -0.036485    -0.056429
	   67 D(2,10,5,11)    =      0.017261    -0.000001     0.009283     0.026544
	   68 D(2,10,5,19)    =   -179.967685    -0.000002    -0.012284  -179.979969
	   69 D(2,10,13,22)   =    165.013155     0.000011     0.077585   165.090740
	   70 D(3,6,12,7)     =      0.000000    -0.000001    -0.019724    -0.019724
	   71 D(3,9,4,7)      =     -0.002444     0.000003     0.047906     0.045462
	   72 D(3,9,4,18)     =   -179.970061     0.000000    -0.010385  -179.980447
	   73 D(3,9,8,11)     =    119.971231     0.000033     0.567641   120.538872
	   74 D(4,7,12,6)     =     -0.028079     0.000000     0.002849    -0.025230
	   75 D(4,9,3,6)      =     -0.022595    -0.000004    -0.063497    -0.086092
	   76 D(4,9,3,17)     =   -179.866889    -0.000008    -0.120956  -179.987845
	   77 D(4,9,8,11)     =    -60.093239     0.000033     0.539705   -59.553535
	   78 D(5,10,2,16)    =    179.917291     0.000003     0.037321   179.954612
	   79 D(5,10,13,22)   =    -14.979968     0.000006     0.014090   -14.965878
	   80 D(5,11,8,9)     =   -179.983240     0.000001     0.030926  -179.952315
	   81 D(6,3,9,8)      =    179.913192    -0.000005    -0.089391   179.823801
	   82 D(6,12,7,21)    =    179.917593     0.000003     0.053345   179.970937
	   83 D(7,4,9,8)      =   -179.938228     0.000004     0.073867  -179.864361
	   84 D(7,12,6,20)    =    179.881843     0.000005     0.084374   179.966217
	   85 D(8,1,2,10)     =      0.019955     0.000002     0.037030     0.056984
	   86 D(8,1,2,16)     =   -179.916358    -0.000001    -0.022542  -179.938900
	   87 D(8,9,3,17)     =      0.068898    -0.000008    -0.146849    -0.077951
	   88 D(8,9,4,18)     =      0.094154     0.000000     0.015576     0.109730
	   89 D(8,11,5,10)    =     -0.017270     0.000000    -0.009911    -0.027181
	   90 D(8,11,5,19)    =    179.967774     0.000001     0.011493   179.979266
	   91 D(9,3,6,12)     =      0.024638     0.000003     0.051597     0.076235
	   92 D(9,3,6,20)     =   -179.850775    -0.000003    -0.058216  -179.908990
	   93 D(9,4,7,12)     =      0.029399    -0.000001    -0.017739     0.011660
	   94 D(9,4,7,21)     =   -179.913416    -0.000004    -0.070897  -179.984313
	   95 D(9,8,1,15)     =      0.023110    -0.000004    -0.065305    -0.042195
	   96 D(9,8,11,14)    =      0.001883    -0.000001    -0.028560    -0.026677
	   97 D(10,2,1,15)    =    179.979432     0.000003     0.057296   180.036729
	   98 D(10,5,11,14)   =    179.997392     0.000002     0.049202   180.046594
	   99 D(11,5,10,13)   =   -179.989616     0.000005     0.073488  -179.916128
	  100 D(11,8,1,15)    =   -179.978731    -0.000004    -0.057329  -180.036060
	  101 D(12,6,3,17)    =    179.871634     0.000006     0.107225   179.978859
	  102 D(12,7,4,18)    =    179.997508     0.000002     0.039861   180.037369
	  103 D(13,10,2,16)   =     -0.075833    -0.000002    -0.025389    -0.101222
	  104 D(13,10,5,19)   =      0.025437     0.000003     0.051921     0.077359
	  105 D(14,11,5,19)   =     -0.017564     0.000003     0.070605     0.053041
	  106 D(15,1,2,16)    =      0.043120    -0.000000    -0.002275     0.040844
	  107 D(17,3,6,20)    =     -0.003779    -0.000000    -0.002587    -0.006366
	  108 D(18,4,7,21)    =      0.054693    -0.000001    -0.013298     0.041396
	  109 R(4,14)         =      3.010587     0.009616     0.002758     3.013345
	 ---------------------------------------------------------------------------
	Successfully symmetrized geometry.
	 Forces used to impose fixed constraints are not included.
	  Forces zeroed: 69 

  ==> Convergence Check <==

  Measures of convergence in internal coordinates in au.
  Criteria marked as inactive (o), active & met (*), and active & unmet ( ).
  --------------------------------------------------------------------------------------------- ~
   Step     Total Energy     Delta E     MAX Force     RMS Force      MAX Disp      RMS Disp    ~
  --------------------------------------------------------------------------------------------- ~
    Convergence Criteria    1.00e-06 *    3.00e-04 *             o    1.20e-03 *             o  ~
  --------------------------------------------------------------------------------------------- ~
      1    -652.87018948   -6.53e+02      1.60e-02      4.68e-03 o    2.93e-02      9.58e-03 o  ~
  ---------------------------------------------------------------------------------------------

	Writing optimization data to binary file.
	Structure for next step:
	Cartesian Geometry (in Angstrom)
	    C    -1.3406452527   0.7597032397  -0.7758281267
	    C    -2.4151918356   1.3296597737  -0.1062184904
	    C     0.6414251887  -1.4757920003  -1.6850300054
	    C     2.1327417704   0.0203131470  -0.5773222012
	    C    -1.4105273104   0.7207064121   1.9921617104
	    C     1.7435159006  -2.0100144117  -2.3341150544
	    C     3.1689325820  -0.5802060601  -1.2743568196
	    C    -0.2927947643   0.1653275815  -0.0778436949
	    C     0.8374005902  -0.4356061023  -0.7857188122
	    C    -2.4493010327   1.3101442425   1.2798300607
	    C    -0.3474751703   0.1570903750   1.3083808453
	    N     3.0011736462  -1.5844247621  -2.1474462741
	    O    -3.5106500193   1.8761213979   1.9152957375
	    F     0.6451006006  -0.4077528616   2.0080072603
	    H    -1.3220894462   0.7800131786  -1.8565864126
	    H    -3.2230251662   1.7872135647  -0.6604103099
	    H    -0.3474286792  -1.8651687370  -1.8813133125
	    H     2.3353564127   0.8268709008   0.1126471292
	    H    -1.4250169910   0.6984493826   3.0739399443
	    H     1.6286393959  -2.8200878025  -3.0423492247
	    H     4.1903984123  -0.2511205172  -1.1369154623
	    H    -3.5231174563   1.5908029271   2.8352897896
			--------------------------
			 OPTKING Finished Execution 
			--------------------------

    Structure for next step:
    Molecular point group: c1
    Full point group: C1

    Geometry (in Angstrom), charge = 0, multiplicity = 1:

    C           -1.338775359818     0.757779694851    -0.774265921061
    C           -2.413321942668     1.327736228864    -0.104656284674
    C            0.643295081625    -1.477715545122    -1.683467799739
    C            2.134611663273     0.018389602208    -0.575759995492
    C           -1.408657417458     0.718782867253     1.993723916119
    C            1.745385793465    -2.011937956552    -2.332552848701
    C            3.170802474957    -0.582129604947    -1.272794613920
    C           -0.290924871425     0.163404036689    -0.076281489261
    C            0.839270483137    -0.437529647093    -0.784156606471
    C           -2.447431139761     1.308220697659     1.281392266417
    C           -0.345605277395     0.155166830222     1.309943050976
    N            3.003043539095    -1.586348306938    -2.145884068384
    O           -3.508780126434     1.874197853098     1.916857943190
    F            0.646970493522    -0.409676406417     2.009569466037
    H           -1.320219553301     0.778089633749    -1.855024206866
    H           -3.221155273293     1.785290019837    -0.658848104234
    H           -0.345558786306    -1.867092281862    -1.879751106831
    H            2.337226305629     0.824947355966     0.114209334898
    H           -1.423147098104     0.696525837799     3.075502150010
    H            1.630509288774    -2.822011347276    -3.040787019036
    H            4.192268305232    -0.253044061973    -1.135353256604
    H           -3.521247563348     1.588879382312     2.836851995260

gradient() will perform analytic gradient computation.

*** tstart() called on gpu-1-8.local
*** at Sun Nov 12 00:17:02 2017

    SCF Algorithm Type (re)set to DF.

*** tstart() called on gpu-1-8.local
*** at Sun Nov 12 00:17:02 2017

   => Loading Basis Set <=

    Name: AUG-CC-PVTZ
    Role: ORBITAL
    Keyword: BASIS
    atoms 1-11  entry C          line   221 file /cbio/jclab/home/chayas/anaconda/envs/py35/share/psi4/basis/aug-cc-pvtz.gbs 
    atoms 12    entry N          line   267 file /cbio/jclab/home/chayas/anaconda/envs/py35/share/psi4/basis/aug-cc-pvtz.gbs 
    atoms 13    entry O          line   313 file /cbio/jclab/home/chayas/anaconda/envs/py35/share/psi4/basis/aug-cc-pvtz.gbs 
    atoms 14    entry F          line   359 file /cbio/jclab/home/chayas/anaconda/envs/py35/share/psi4/basis/aug-cc-pvtz.gbs 
    atoms 15-22 entry H          line    34 file /cbio/jclab/home/chayas/anaconda/envs/py35/share/psi4/basis/aug-cc-pvtz.gbs 


         ---------------------------------------------------------
                                   SCF
            by Justin Turney, Rob Parrish, and Andy Simmonett
                              RHF Reference
                        8 Threads,   4768 MiB Core
         ---------------------------------------------------------

  ==> Geometry <==

    Molecular point group: c1
    Full point group: C1

    Geometry (in Angstrom), charge = 0, multiplicity = 1:

       Center              X                  Y                   Z               Mass       
    ------------   -----------------  -----------------  -----------------  -----------------
           C         -1.338775359818     0.757779694851    -0.774265921061    12.000000000000
           C         -2.413321942668     1.327736228864    -0.104656284674    12.000000000000
           C          0.643295081625    -1.477715545122    -1.683467799739    12.000000000000
           C          2.134611663273     0.018389602208    -0.575759995492    12.000000000000
           C         -1.408657417458     0.718782867253     1.993723916119    12.000000000000
           C          1.745385793465    -2.011937956552    -2.332552848701    12.000000000000
           C          3.170802474957    -0.582129604947    -1.272794613920    12.000000000000
           C         -0.290924871425     0.163404036689    -0.076281489261    12.000000000000
           C          0.839270483137    -0.437529647093    -0.784156606471    12.000000000000
           C         -2.447431139761     1.308220697659     1.281392266417    12.000000000000
           C         -0.345605277395     0.155166830222     1.309943050976    12.000000000000
           N          3.003043539095    -1.586348306938    -2.145884068384    14.003074004780
           O         -3.508780126434     1.874197853098     1.916857943190    15.994914619560
           F          0.646970493522    -0.409676406417     2.009569466037    18.998403224000
           H         -1.320219553301     0.778089633749    -1.855024206866     1.007825032070
           H         -3.221155273293     1.785290019837    -0.658848104234     1.007825032070
           H         -0.345558786306    -1.867092281862    -1.879751106831     1.007825032070
           H          2.337226305629     0.824947355966     0.114209334898     1.007825032070
           H         -1.423147098104     0.696525837799     3.075502150010     1.007825032070
           H          1.630509288774    -2.822011347276    -3.040787019036     1.007825032070
           H          4.192268305232    -0.253044061973    -1.135353256604     1.007825032070
           H         -3.521247563348     1.588879382312     2.836851995260     1.007825032070

  Running in c1 symmetry.

  Rotational constants: A =      0.06433  B =      0.01296  C =      0.01157 [cm^-1]
  Rotational constants: A =   1928.66462  B =    388.43514  C =    346.76248 [MHz]
  Nuclear repulsion =  814.570781944493660

  Charge       = 0
  Multiplicity = 1
  Electrons    = 98
  Nalpha       = 49
  Nbeta        = 49

  ==> Algorithm <==

  SCF Algorithm Type is DF.
  DIIS enabled.
  MOM disabled.
  Fractional occupation disabled.
  Guess Type is READ.
  Energy threshold   = 1.00e-10
  Density threshold  = 1.00e-10
  Integral threshold = 0.00e+00

  ==> Primary Basis <==

  Basis Set: AUG-CC-PVTZ
    Blend: AUG-CC-PVTZ
    Number of shells: 268
    Number of basis function: 828
    Number of Cartesian functions: 970
    Spherical Harmonics?: true
    Max angular momentum: 3

   => Loading Basis Set <=

    Name: (AUG-CC-PVTZ AUX)
    Role: JKFIT
    Keyword: DF_BASIS_SCF
    atoms 1-11  entry C          line   161 file /cbio/jclab/home/chayas/anaconda/envs/py35/share/psi4/basis/aug-cc-pvtz-jkfit.gbs 
    atoms 12    entry N          line   223 file /cbio/jclab/home/chayas/anaconda/envs/py35/share/psi4/basis/aug-cc-pvtz-jkfit.gbs 
    atoms 13    entry O          line   285 file /cbio/jclab/home/chayas/anaconda/envs/py35/share/psi4/basis/aug-cc-pvtz-jkfit.gbs 
    atoms 14    entry F          line   347 file /cbio/jclab/home/chayas/anaconda/envs/py35/share/psi4/basis/aug-cc-pvtz-jkfit.gbs 
    atoms 15-22 entry H          line    69 file /cbio/jclab/home/chayas/anaconda/envs/py35/share/psi4/basis/aug-cc-pvtz-jkfit.gbs 

  Reading orbitals from file 180, no projection.

  ==> Pre-Iterations <==

   -------------------------------------------------------
    Irrep   Nso     Nmo     Nalpha   Nbeta   Ndocc  Nsocc
   -------------------------------------------------------
     A        828     828       0       0       0       0
   -------------------------------------------------------
    Total     828     828      49      49      49       0
   -------------------------------------------------------

  ==> Integral Setup <==

  ==> DFJK: Density-Fitted J/K Matrices <==

    J tasked:                  Yes
    K tasked:                  Yes
    wK tasked:                  No
    OpenMP threads:              8
    Integrals threads:           8
    Memory (MB):              3576
    Algorithm:                Disk
    Integral Cache:           NONE
    Schwarz Cutoff:          1E-12
    Fitting Condition:       1E-12

   => Auxiliary Basis Set <=

  Basis Set: (AUG-CC-PVTZ AUX)
    Blend: AUG-CC-PVTZ-JKFIT
    Number of shells: 532
    Number of basis function: 1824
    Number of Cartesian functions: 2274
    Spherical Harmonics?: true
    Max angular momentum: 4

  Minimum eigenvalue in the overlap matrix is 7.0952149562E-07.
  Using Symmetric Orthogonalization.

  SCF Guess: Orbitals guess was supplied from a previous computation.

  ==> Iterations <==

                           Total Energy        Delta E     RMS |[F,P]|

   @DF-RHF iter   0:  -650.23841155384980   -6.50238e+02   3.11228e-04 
   @DF-RHF iter   1:  -650.17909525171490    5.93163e-02   5.79087e-05 
   @DF-RHF iter   2:  -650.17939576550646   -3.00514e-04   5.23432e-05 DIIS
   @DF-RHF iter   3:  -650.17956016512449   -1.64400e-04   9.55064e-06 DIIS
   @DF-RHF iter   4:  -650.17956673709227   -6.57197e-06   2.91810e-06 DIIS
   @DF-RHF iter   5:  -650.17956865335771   -1.91627e-06   1.07777e-06 DIIS
   @DF-RHF iter   6:  -650.17956902588867   -3.72531e-07   5.60270e-07 DIIS
   @DF-RHF iter   7:  -650.17956915495188   -1.29063e-07   3.25647e-07 DIIS
   @DF-RHF iter   8:  -650.17956919008816   -3.51363e-08   8.93299e-08 DIIS
   @DF-RHF iter   9:  -650.17956919360893   -3.52077e-09   3.67614e-08 DIIS
   @DF-RHF iter  10:  -650.17956919397670   -3.67777e-10   1.46851e-08 DIIS
   @DF-RHF iter  11:  -650.17956919400012   -2.34195e-11   3.05894e-09 DIIS
   @DF-RHF iter  12:  -650.17956919399501    5.11591e-12   1.17693e-09 DIIS
   @DF-RHF iter  13:  -650.17956919401263   -1.76215e-11   4.13506e-10 DIIS
   @DF-RHF iter  14:  -650.17956919400967    2.95586e-12   3.19958e-10 DIIS
   @DF-RHF iter  15:  -650.17956919402184   -1.21645e-11   1.10127e-10 DIIS
   @DF-RHF iter  16:  -650.17956919401126    1.05729e-11   4.32087e-11 DIIS

  ==> Post-Iterations <==

    Orbital Energies (a.u.)
    -----------------------

    Doubly Occupied:                                                      

       1A    -26.325252     2A    -20.608529     3A    -15.563758  
       4A    -11.346713     5A    -11.325435     6A    -11.273222  
       7A    -11.272389     8A    -11.266763     9A    -11.262957  
      10A    -11.253035    11A    -11.251689    12A    -11.242298  
      13A    -11.238979    14A    -11.237529    15A     -1.645277  
      16A     -1.426244    17A     -1.256414    18A     -1.184147  
      19A     -1.111496    20A     -1.043078    21A     -1.034656  
      22A     -1.022884    23A     -0.892520    24A     -0.877023  
      25A     -0.856309    26A     -0.826787    27A     -0.774008  
      28A     -0.748233    29A     -0.725890    30A     -0.711592  
      31A     -0.696973    32A     -0.665897    33A     -0.661881  
      34A     -0.642753    35A     -0.636671    36A     -0.618718  
      37A     -0.608941    38A     -0.598011    39A     -0.577527  
      40A     -0.544281    41A     -0.537790    42A     -0.534505  
      43A     -0.521689    44A     -0.496814    45A     -0.419176  
      46A     -0.389866    47A     -0.360829    48A     -0.348457  
      49A     -0.326821  

    Virtual:                                                              

      50A      0.021948    51A      0.029261    52A      0.034336  
      53A      0.036673    54A      0.044484    55A      0.047226  
      56A      0.053002    57A      0.054855    58A      0.076231  
      59A      0.082607    60A      0.082880    61A      0.085485  
      62A      0.093351    63A      0.094828    64A      0.097293  
      65A      0.101351    66A      0.104737    67A      0.108357  
      68A      0.111509    69A      0.112467    70A      0.113470  
      71A      0.118537    72A      0.121699    73A      0.124421  
      74A      0.129569    75A      0.131892    76A      0.133902  
      77A      0.134750    78A      0.140158    79A      0.144164  
      80A      0.148295    81A      0.152043    82A      0.153556  
      83A      0.155228    84A      0.156113    85A      0.166984  
      86A      0.170958    87A      0.173270    88A      0.183482  
      89A      0.185650    90A      0.193395    91A      0.200547  
      92A      0.207519    93A      0.213433    94A      0.214199  
      95A      0.227177    96A      0.229539    97A      0.235939  
      98A      0.236858    99A      0.240023   100A      0.240806  
     101A      0.244073   102A      0.248936   103A      0.252504  
     104A      0.257207   105A      0.260915   106A      0.264085  
     107A      0.266407   108A      0.269616   109A      0.273380  
     110A      0.278984   111A      0.281895   112A      0.285446  
     113A      0.291812   114A      0.295571   115A      0.300865  
     116A      0.302344   117A      0.311074   118A      0.314055  
     119A      0.317688   120A      0.320172   121A      0.322396  
     122A      0.327994   123A      0.328472   124A      0.331724  
     125A      0.333245   126A      0.344021   127A      0.347020  
     128A      0.351144   129A      0.354483   130A      0.360307  
     131A      0.370388   132A      0.376949   133A      0.379795  
     134A      0.384907   135A      0.389947   136A      0.395741  
     137A      0.400679   138A      0.405553   139A      0.408014  
     140A      0.411716   141A      0.416079   142A      0.423052  
     143A      0.424285   144A      0.428628   145A      0.432170  
     146A      0.435506   147A      0.442524   148A      0.445411  
     149A      0.450068   150A      0.451266   151A      0.458698  
     152A      0.463441   153A      0.467234   154A      0.470580  
     155A      0.474894   156A      0.477536   157A      0.481072  
     158A      0.484306   159A      0.487268   160A      0.490045  
     161A      0.494217   162A      0.498504   163A      0.499384  
     164A      0.502327   165A      0.509703   166A      0.512127  
     167A      0.512263   168A      0.513928   169A      0.521715  
     170A      0.523675   171A      0.525059   172A      0.530856  
     173A      0.536827   174A      0.540395   175A      0.545195  
     176A      0.546397   177A      0.550635   178A      0.555768  
     179A      0.559241   180A      0.563669   181A      0.571800  
     182A      0.575728   183A      0.577523   184A      0.587464  
     185A      0.592250   186A      0.593344   187A      0.607015  
     188A      0.612034   189A      0.618413   190A      0.623771  
     191A      0.625861   192A      0.635394   193A      0.639085  
     194A      0.643006   195A      0.649671   196A      0.658636  
     197A      0.659401   198A      0.673327   199A      0.680703  
     200A      0.682353   201A      0.692546   202A      0.698565  
     203A      0.703644   204A      0.706667   205A      0.710741  
     206A      0.718209   207A      0.722171   208A      0.723833  
     209A      0.729588   210A      0.737367   211A      0.738118  
     212A      0.740653   213A      0.751194   214A      0.753939  
     215A      0.762608   216A      0.766264   217A      0.772957  
     218A      0.779218   219A      0.788517   220A      0.794104  
     221A      0.797269   222A      0.802156   223A      0.805341  
     224A      0.820677   225A      0.822570   226A      0.832206  
     227A      0.839934   228A      0.841750   229A      0.846958  
     230A      0.853903   231A      0.858022   232A      0.862228  
     233A      0.866950   234A      0.871739   235A      0.876418  
     236A      0.881087   237A      0.886729   238A      0.890227  
     239A      0.897108   240A      0.901043   241A      0.903991  
     242A      0.908609   243A      0.911373   244A      0.922195  
     245A      0.929985   246A      0.931576   247A      0.933751  
     248A      0.938343   249A      0.942384   250A      0.945884  
     251A      0.951585   252A      0.957294   253A      0.959968  
     254A      0.963679   255A      0.967062   256A      0.971262  
     257A      0.973830   258A      0.985038   259A      0.987448  
     260A      0.993726   261A      0.997332   262A      0.999145  
     263A      1.007524   264A      1.010446   265A      1.018873  
     266A      1.020331   267A      1.026407   268A      1.028186  
     269A      1.032721   270A      1.038501   271A      1.043015  
     272A      1.046966   273A      1.049345   274A      1.051213  
     275A      1.060618   276A      1.064871   277A      1.072751  
     278A      1.076796   279A      1.080559   280A      1.082262  
     281A      1.086857   282A      1.092163   283A      1.100346  
     284A      1.104449   285A      1.105305   286A      1.112510  
     287A      1.119289   288A      1.122021   289A      1.132490  
[...]
	 --------------------------------------------------------

   => Auxiliary Basis Set <=

  Basis Set: (AUG-CC-PVTZ AUX)
    Blend: AUG-CC-PVTZ-RI
    Number of shells: 504
    Number of basis function: 1852
    Number of Cartesian functions: 2344
    Spherical Harmonics?: true
    Max angular momentum: 4

	 --------------------------------------------------------
	                 NBF =   828, NAUX =  1852
	 --------------------------------------------------------
	   CLASS    FOCC     OCC    AOCC    AVIR     VIR    FVIR
	   PAIRS       0      49      49     779     779       0
	 --------------------------------------------------------


         ------------------------------------------------------------
                                     CPHF                           
                                  Rob Parrish                       
         ------------------------------------------------------------

  ==> Geometry <==

    Molecular point group: c1
    Full point group: C1

    Geometry (in Angstrom), charge = 0, multiplicity = 1:

       Center              X                  Y                   Z               Mass       
    ------------   -----------------  -----------------  -----------------  -----------------
           C         -1.358744544022     0.706475863177    -0.756307677359    12.000000000000
           C         -2.438465098340     1.270572324461    -0.100425170609    12.000000000000
           C          0.651299119050    -1.449153158000    -1.717217715591    12.000000000000
           C          2.159116129254    -0.034363608152    -0.549088175129    12.000000000000
           C         -1.402895256576     0.753407891884     2.005679682250    12.000000000000
           C          1.744042843457    -1.980705231204    -2.384959248764    12.000000000000
           C          3.188285935373    -0.626648300214    -1.263541961174    12.000000000000
           C         -0.281634688810     0.153728401673    -0.065896168147    12.000000000000
           C          0.850818569263    -0.448359760725    -0.773260799775    12.000000000000
           C         -2.457948911119     1.297431354367     1.286509810623    12.000000000000
           C         -0.344091029901     0.196619492688     1.319332239044    12.000000000000
           N          3.001248937498    -1.587293724036    -2.172330713638    14.003074004780
           O         -3.535405366883     1.870825716092     1.890161394932    15.994914619560
           F          0.658897244414    -0.336454081254     2.039742412488    18.998403224000
           H         -1.339502004107     0.691301772070    -1.835956736682     1.007825032070
           H         -3.264272988570     1.695377585462    -0.647809525771     1.007825032070
           H         -0.344536141520    -1.811486293023    -1.924832648481     1.007825032070
           H          2.370414632244     0.741394459256     0.170925565607     1.007825032070
           H         -1.391303495113     0.756186512031     3.084947311349     1.007825032070
           H          1.604525032996    -2.761371788963    -3.119989332395     1.007825032070
           H          4.210418448248    -0.313922014993    -1.102733460850     1.007825032070
           H         -3.546034982517     1.624970025519     2.820036021197     1.007825032070

  Nuclear repulsion =  813.957801023584125
  Reference energy  = -650.181482017209873

  ==> Basis Set <==

  Basis Set: AUG-CC-PVTZ
    Blend: AUG-CC-PVTZ
    Number of shells: 268
    Number of basis function: 828
    Number of Cartesian functions: 970
    Spherical Harmonics?: true
    Max angular momentum: 3

  ==> CGRSolver (by Rob Parrish) <==

   Number of roots    =         1
   Preconditioning    =    JACOBI
   Convergence cutoff =     1E-06
   Maximum iterations =       100

  ==> CPHFRHamiltonian (by Rob Parrish) <== 

  ==> DFJK: Density-Fitted J/K Matrices <==

    J tasked:                  Yes
    K tasked:                  Yes
    wK tasked:                  No
    OpenMP threads:              8
    Integrals threads:           8
    Memory (MB):              3576
    Algorithm:                Disk
    Integral Cache:           NONE
    Schwarz Cutoff:          1E-12
    Fitting Condition:       1E-12

   => Auxiliary Basis Set <=

  Basis Set: (AUG-CC-PVTZ AUX)
    Blend: AUG-CC-PVTZ-JKFIT
    Number of shells: 532
    Number of basis function: 1824
    Number of Cartesian functions: 2274
    Spherical Harmonics?: true
    Max angular momentum: 4

  ==> CPHF Iterations <==

  => Iterations <=

             Iter  Converged  Remaining    Residual
  CGR           1          0          1   1.016E-01
  CGR           2          0          1   3.304E-02
  CGR           3          0          1   2.180E-02
  CGR           4          0          1   9.191E-03
  CGR           5          0          1   3.862E-03
  CGR           6          0          1   1.473E-03
  CGR           7          0          1   4.332E-04
  CGR           8          0          1   1.450E-04
  CGR           9          0          1   4.787E-05
  CGR          10          0          1   1.671E-05
  CGR          11          0          1   8.558E-06
  CGR          12          0          1   3.598E-06
  CGR          13          0          1   1.562E-06
  CGR          14          1          0   5.093E-07

    CGRSolver converged.

  ==> DFCorrGrad: Density-Fitted Correlated Gradients <==

    OpenMP threads:              8
    Integrals threads:           8
    Memory (MB):              3576
    Schwarz Cutoff:          0E+00
    Fitting Condition:       1E-12

   => Auxiliary Basis Set <=

  Basis Set: (AUG-CC-PVTZ AUX)
    Blend: AUG-CC-PVTZ-JKFIT
    Number of shells: 532
    Number of basis function: 1824
    Number of Cartesian functions: 2274
    Spherical Harmonics?: true
    Max angular momentum: 4

	-----------------------------------------------------------
	 ==================> DF-MP2 Energies <==================== 
	-----------------------------------------------------------
	 Reference Energy          =    -650.1814820172098734 [Eh]
	 Singles Energy            =      -0.0000000000000007 [Eh]
	 Same-Spin Energy          =      -0.6764973892675501 [Eh]
	 Opposite-Spin Energy      =      -2.0166434059880975 [Eh]
	 Correlation Energy        =      -2.6931407952556485 [Eh]
	 Total Energy              =    -652.8746228124655318 [Eh]
	-----------------------------------------------------------
	 ================> DF-SCS-MP2 Energies <================== 
	-----------------------------------------------------------
	 SCS Same-Spin Scale       =       0.3333333333333333 [-]
	 SCS Opposite-Spin Scale   =       1.2000000000000000 [-]
	 SCS Same-Spin Energy      =      -0.2254991297558500 [Eh]
	 SCS Opposite-Spin Energy  =      -2.4199720871857169 [Eh]
	 SCS Correlation Energy    =      -2.6454712169415679 [Eh]
	 SCS Total Energy          =    -652.8269532341514605 [Eh]
	-----------------------------------------------------------


  -Total Gradient:
     Atom            X                  Y                   Z
    ------   -----------------  -----------------  -----------------
       1        0.001179793847     0.000888668493     0.000095354629
       2       -0.001109781253    -0.000809236553     0.000345755970
       3        0.000148800813    -0.000904980836     0.001166662710
       4       -0.000015253098     0.000817371229    -0.001145558267
       5        0.000788041281    -0.000361386123    -0.000055723736
       6        0.000257936921    -0.000115605626    -0.000094035794
       7        0.000284805310     0.000054512209     0.000085423180
       8       -0.001381592607     0.000553675707    -0.000385171266
       9        0.000677125353    -0.000349888618    -0.000625204292
      10        0.000745027882     0.001343451728    -0.000407411152
      11       -0.000083010599    -0.001315858172     0.001245232627
      12       -0.000339492912    -0.000051426820     0.000032089977
      13        0.000740014650     0.001367251777     0.000458744937
      14       -0.000563511601     0.000202345773    -0.000039809271
      15       -0.000146537522    -0.000103791157    -0.000045634926
      16        0.000061022521    -0.000024732347    -0.000156368597
      17       -0.000074405681     0.000160824861    -0.000210115956
      18        0.000001207092     0.000198064519     0.000087681714
      19       -0.000218451955     0.000097300355     0.000073062346
      20       -0.000014916296    -0.000143680492    -0.000109443670
      21        0.000050478659     0.000024024416     0.000009825715
      22       -0.000987300812    -0.001526904323    -0.000325356882


*** tstop() called on gpu-1-8.local at Sun Nov 12 02:55:49 2017
Module time:
	user time   =    7266.85 seconds =     121.11 minutes
	system time =     111.69 seconds =       1.86 minutes
	total time  =       3957 seconds =      65.95 minutes
Total time:
	user time   =   25623.46 seconds =     427.06 minutes
	system time =     433.66 seconds =       7.23 minutes
	total time  =      12555 seconds =     209.25 minutes

			-----------------------------------------
			 OPTKING 2.0: for geometry optimizations 
			  - R.A. King,  Bethel University        
			-----------------------------------------

	Previous internal coordinate definitions found.
	---Fragment 1 Geometry and Gradient---
	 C          -2.5676550728        1.3350459009       -1.4292143824
	 C          -4.6080312205        2.4010337253       -0.1897760693
	 C           1.2307769656       -2.7385025932       -3.2450711930
	 C           4.0801381734       -0.0649378083       -1.0376262738
	 C          -2.6510878281        1.4237345820        3.7901853097
	 C           3.2957633382       -3.7429904369       -4.5069198183
	 C           6.0249872512       -1.1841936690       -2.3877482640
	 C          -0.5322124314        0.2905045780       -0.1245257110
	 C           1.6078140847       -0.8472771568       -1.4612511409
	 C          -4.6448502906        2.4517899360        2.4311512093
	 C          -0.6502378113        0.3715569936        2.4931766101
	 N           5.6715385485       -2.9995504309       -4.1051101188
	 O          -6.6809479121        3.5353482458        3.5718873834
	 F           1.2451353417       -0.6358060699        3.8545545412
	 H          -2.5312919422        1.3063710244       -3.4694554242
	 H          -6.1685819714        3.2037993284       -1.2241825900
	 H          -0.6510789504       -3.4232129873       -3.6374065573
	 H           4.4794344763        1.4010324844        0.3230025081
	 H          -2.6291825735        1.4289854131        5.8297055528
	 H           3.0321128857       -5.2182364322       -5.8959253758
	 H           7.9565377720       -0.5932266354       -2.0838642386
	 H          -6.7010349746        3.0707483224        5.3290957649
	             0.0011797938        0.0008886685        0.0000953546
	            -0.0011097813       -0.0008092366        0.0003457560
	             0.0001488008       -0.0009049808        0.0011666627
	            -0.0000152531        0.0008173712       -0.0011455583
	             0.0007880413       -0.0003613861       -0.0000557237
	             0.0002579369       -0.0001156056       -0.0000940358
	             0.0002848053        0.0000545122        0.0000854232
	            -0.0013815926        0.0005536757       -0.0003851713
	             0.0006771254       -0.0003498886       -0.0006252043
	             0.0007450279        0.0013434517       -0.0004074112
	            -0.0000830106       -0.0013158582        0.0012452326
	            -0.0003394929       -0.0000514268        0.0000320900
	             0.0007400147        0.0013672518        0.0004587449
	            -0.0005635116        0.0002023458       -0.0000398093
	            -0.0001465375       -0.0001037912       -0.0000456349
	             0.0000610225       -0.0000247323       -0.0001563686
	            -0.0000744057        0.0001608249       -0.0002101160
	             0.0000012071        0.0001980645        0.0000876817
	            -0.0002184520        0.0000973004        0.0000730623
	            -0.0000149163       -0.0001436805       -0.0001094437
	             0.0000504787        0.0000240244        0.0000098257
	            -0.0009873008       -0.0015269043       -0.0003253569

	---Fragment 1 Intrafragment Coordinates---
	 - Coordinate -           - BOHR/RAD -       - ANG/DEG -
	 R(1,2)           =         2.614512	       1.383540
	 R(1,8)           =         2.633687	       1.393687
	 R(1,15)          =         2.040767	       1.079927
	 R(2,10)          =         2.621677	       1.387332
	 R(2,16)          =         2.037093	       1.077983
	 R(3,6)           =         2.620196	       1.386548
	 R(3,9)           =         2.626957	       1.390126
	 R(3,17)          =         2.040622	       1.079851
	 R(4,7)           =         2.618779	       1.385798
	 R(4,9)           =         2.627527	       1.390428
	 R(4,18)          =         2.039563	       1.079290
	 R(5,10)          =         2.622777	       1.387914
	 R(5,11)          =         2.606283	       1.379185
	 R(5,19)          =         2.039645	       1.079333
	 R(6,12)          =         2.521599	       1.334373
	 R(6,20)          =         2.043330	       1.081284
	 R(7,12)          =         2.523842	       1.335560
	 R(7,21)          =         2.042664	       1.080931
	 R(8,9)           =         2.767868	       1.464693
	 R(8,11)          =         2.621615	       1.387299
	 R(10,13)         =         2.573144	       1.361649
	 R(11,14)         =         2.541765	       1.345044
	 R(13,22)         =         1.817701	       0.961886
	 B(1,2,10)        =         2.086077	     119.523406
	 B(1,2,16)        =         2.115065	     121.184305
	 B(1,8,9)         =         2.119207	     121.421621
	 B(1,8,11)        =         2.034865	     116.589159
	 B(2,1,8)         =         2.129393	     122.005249
	 B(2,1,15)        =         2.086990	     119.575724
	 B(2,10,5)        =         2.094110	     119.983675
	 B(2,10,13)       =         2.051567	     117.546127
	 B(3,6,12)        =         2.156471	     123.556697
	 B(3,6,20)        =         2.097241	     120.163051
	 B(3,9,4)         =         2.047536	     117.315181
	 B(3,9,8)         =         2.109368	     120.857898
	 B(4,7,12)        =         2.158229	     123.657425
	 B(4,7,21)        =         2.096600	     120.126339
	 B(4,9,8)         =         2.126146	     121.819215
	 B(5,10,13)       =         2.137507	     122.470154
	 B(5,11,8)        =         2.145931	     122.952784
	 B(5,11,14)       =         2.055479	     117.770257
	 B(6,3,9)         =         2.082771	     119.333968
	 B(6,3,17)        =         2.100830	     120.368695
	 B(6,12,7)        =         2.040295	     116.900288
	 B(7,4,9)         =         2.081064	     119.236204
	 B(7,4,18)        =         2.101036	     120.380481
	 B(8,1,15)        =         2.066799	     118.418857
	 B(8,11,14)       =         2.081716	     119.273545
	 B(9,3,17)        =         2.099576	     120.296818
	 B(9,4,18)        =         2.101081	     120.383065
	 B(9,8,11)        =         2.129091	     121.987909
	 B(10,2,16)       =         2.082029	     119.291447
	 B(10,5,11)       =         2.075976	     118.944668
	 B(10,5,19)       =         2.123852	     121.687728
	 B(10,13,22)      =         1.906763	     109.249451
	 B(11,5,19)       =         2.083358	     119.367598
	 B(12,6,20)       =         2.029459	     116.279417
	 B(12,7,21)       =         2.028349	     116.215821
	 D(1,2,10,5)      =        -0.006886	      -0.394514
	 D(1,2,10,13)     =         3.133421	     179.531809
	 D(1,8,9,3)       =        -0.944849	     -54.135833
	 D(1,8,9,4)       =         2.178644	     124.827097
	 D(1,8,11,5)      =        -0.002342	      -0.134211
	 D(1,8,11,14)     =         3.127249	     179.178168
	 D(2,1,8,9)       =         3.134277	     179.580860
	 D(2,1,8,11)      =        -0.000184	      -0.010530
	 D(2,10,5,11)     =         0.004459	       0.255493
	 D(2,10,5,19)     =        -3.137630	    -179.772985
	 D(2,10,13,22)    =         2.882757	     165.169830
	 D(3,6,12,7)      =        -0.001992	      -0.114125
	 D(3,9,4,7)       =         0.000087	       0.004960
	 D(3,9,4,18)      =         3.138522	     179.824052
	 D(3,9,8,11)      =         2.189225	     125.433358
	 D(4,7,12,6)      =        -0.000324	      -0.018555
	 D(4,9,3,6)       =        -0.002207	      -0.126459
	 D(4,9,3,17)      =         3.134830	     179.612556
	 D(4,9,8,11)      =        -0.970468	     -55.603712
	 D(5,10,2,16)     =         3.140465	     179.935371
	 D(5,10,13,22)    =        -0.260155	     -14.905812
	 D(5,11,8,9)      =        -3.136760	    -179.723099
	 D(6,3,9,8)       =         3.122075	     178.881740
	 D(6,12,7,21)     =        -3.137814	    -179.783497
	 D(7,4,9,8)       =        -3.124018	    -178.993053
	 D(7,12,6,20)     =        -3.137779	    -179.781487
	 D(8,1,2,10)      =         0.004758	       0.272631
	 D(8,1,2,16)      =         3.140481	     179.936332
	 D(8,9,3,17)      =        -0.024072	      -1.379245
	 D(8,9,4,18)      =         0.014417	       0.826039
	 D(8,11,5,10)     =         0.000226	       0.012938
	 D(8,11,5,19)     =        -3.140882	    -179.959256
	 D(9,3,6,12)      =         0.003319	       0.190148
	 D(9,3,6,20)      =         3.138891	     179.845181
	 D(9,4,7,12)      =         0.001252	       0.071719
	 D(9,4,7,21)      =         3.138589	     179.827905
	 D(9,8,1,15)      =        -0.009942	      -0.569614
	 D(9,8,11,14)     =        -0.007168	      -0.410720
	 D(10,2,1,15)     =        -3.134179	    -179.575201
	 D(10,5,11,14)    =        -3.129536	    -179.309178
	 D(11,5,10,13)    =        -3.135782	    -179.667077
	 D(11,8,1,15)     =         3.138783	     179.838995
	 D(12,6,3,17)     =        -3.133716	    -179.548675
	 D(12,7,4,18)     =        -3.137184	    -179.747378
	 D(13,10,2,16)    =        -0.002414	      -0.138307
	 D(13,10,5,19)    =         0.005314	       0.304445
	 D(14,11,5,19)    =         0.012542	       0.718628
	 D(15,1,2,16)     =         0.001545	       0.088500
	 D(17,3,6,20)     =         0.001856	       0.106357
	 D(18,4,7,21)     =         0.000154	       0.008809
	 R(4,14)          =         5.683007	       3.007318

	Current energy   :      -652.8746228125

	Energy change for the previous step:
		Projected    :        -0.0002116286
		Actual       :        -0.0003259012

	Performing BFGS update.
	Previous computed or guess Hessian on step 1.
	Steps to be used in Hessian update: 3 2
	Adding user-defined constraint: Fragment 1; Coordinate 69:
		Value =     2.882757; Fixed value    =     2.879790
		Force =    -0.001706; Force constant =     0.575000
	Removing off-diagonal coupling between coordinate 69 and others.
	Taking RFO optimization step.
	Going to follow RFO solution 1.
	Using RFO vector 1.

	Determining step-restricting scale parameter for RS-RFO.
	Maximum step size allowed    0.10000

	 Iter      |step|        alpha        rfo_root  
	------------------------------------------------
	    0     0.39555       1.00000           1
	    1     0.26040       6.43879           1
	    2     0.17740      19.22549           1
	    3     0.13054      40.91374           1
	    4     0.10796      63.52399           1
	    5     0.10081      74.17303           1
	    6     0.10001      75.50712           1
	------------------------------------------------
	Norm of target step-size    0.10001
	Projected energy change by RFO approximation:        -0.0002551841

	Back-transformation to cartesian coordinates...
	The INTCO_EXCEPTion handler:
	TORS::compute_val: unable to compute torsion value
	Dynamic level is 0.
	exc.g_really_quit() is 0.

  **** Optimization has failed! (in 4 steps) ****
			--------------------------
			 OPTKING Finished Execution 
			--------------------------
	Cleaning optimization helper files.

*** Psi4 exiting successfully. Buy a developer a beer!
