
    -----------------------------------------------------------------------
          Psi4: An Open-Source Ab Initio Electronic Structure Package
                               Psi4 1.1 release

                         Git: Rev {HEAD} add49b9 


    R. M. Parrish, L. A. Burns, D. G. A. Smith, A. C. Simmonett,
    A. E. DePrince III, E. G. Hohenstein, U. Bozkaya, A. Yu. Sokolov,
    R. Di Remigio, R. M. Richard, J. F. Gonthier, A. M. James,
    H. R. McAlexander, A. Kumar, M. Saitow, X. Wang, B. P. Pritchard,
    P. Verma, H. F. Schaefer III, K. Patkowski, R. A. King, E. F. Valeev,
    F. A. Evangelista, J. M. Turney, T. D. Crawford, and C. D. Sherrill,
    J. Chem. Theory Comput. in press (2017).
    (doi: 10.1021/acs.jctc.7b00174)

    -----------------------------------------------------------------------


    Psi4 started on: Sunday, 12 November 2017 12:48AM

    Process ID:  22502
    PSIDATADIR: /cbio/jclab/home/chayas/anaconda/envs/py35/share/psi4
    Memory:     500.0 MiB
    Threads:    8
    
  ==> Input File <==

--------------------------------------------------------------------------

memory 5 Gb

molecule phepyrFOH_zwitterion {
  symmetry C1
  0 1 
  C      1.885   -1.036   -0.112
  C      0.807   -0.463   0.561
  C      4.245   -1.938   -1.441
  C      4.907   -3.081   0.574
  C      1.800   -1.079   2.676
  C      5.324   -2.522   -2.090
  C      5.969   -3.636   -0.126
  C      2.921   -1.631   0.608
  C      4.038   -2.224   -0.095
  C      0.764   -0.484   1.955
  C      2.878   -1.652   2.002
  N      6.145   -3.344   -1.422
  O      -0.227   0.043   2.574
  F      3.866   -2.220   2.709
  H      1.904   -1.013   -1.200
  H      0.011   -0.007   -0.025
  H      3.583   -1.273   -1.988
  H      4.769   -3.322   1.624
  H      1.791   -1.109   3.764
  H      5.561   -2.357   -3.132
  H      6.692   -4.311   0.311
  H      6.931   -3.763   -1.918
  units Angstrom
}

dih_string = "1 8 9 3 15"
set optking fixed_dihedral = $dih_string

optimize('MP2/aug-cc-PVTZ')
--------------------------------------------------------------------------

  Memory set to   4.657 GiB by Python driver.
gradient() will perform analytic gradient computation.

*** tstart() called on gpu-1-11.local
*** at Sun Nov 12 00:48:22 2017

    SCF Algorithm Type (re)set to DF.

*** tstart() called on gpu-1-11.local
*** at Sun Nov 12 00:48:22 2017

   => Loading Basis Set <=

    Name: AUG-CC-PVTZ
    Role: ORBITAL
    Keyword: BASIS
    atoms 1-11  entry C          line   221 file /cbio/jclab/home/chayas/anaconda/envs/py35/share/psi4/basis/aug-cc-pvtz.gbs 
    atoms 12    entry N          line   267 file /cbio/jclab/home/chayas/anaconda/envs/py35/share/psi4/basis/aug-cc-pvtz.gbs 
    atoms 13    entry O          line   313 file /cbio/jclab/home/chayas/anaconda/envs/py35/share/psi4/basis/aug-cc-pvtz.gbs 
    atoms 14    entry F          line   359 file /cbio/jclab/home/chayas/anaconda/envs/py35/share/psi4/basis/aug-cc-pvtz.gbs 
    atoms 15-22 entry H          line    34 file /cbio/jclab/home/chayas/anaconda/envs/py35/share/psi4/basis/aug-cc-pvtz.gbs 


         ---------------------------------------------------------
                                   SCF
            by Justin Turney, Rob Parrish, and Andy Simmonett
                              RHF Reference
                        8 Threads,   4768 MiB Core
         ---------------------------------------------------------

  ==> Geometry <==

    Molecular point group: c1
    Full point group: C1

    Geometry (in Angstrom), charge = 0, multiplicity = 1:

       Center              X                  Y                   Z               Mass       
    ------------   -----------------  -----------------  -----------------  -----------------
           C         -1.361649809262     0.775901078663    -0.769388197006    12.000000000000
           C         -2.439649809262     1.348901078663    -0.096388197006    12.000000000000
           C          0.998350190738    -0.126098921337    -2.098388197006    12.000000000000
           C          1.660350190738    -1.269098921337    -0.083388197006    12.000000000000
           C         -1.446649809262     0.732901078663     2.018611802994    12.000000000000
           C          2.077350190738    -0.710098921337    -2.747388197006    12.000000000000
           C          2.722350190738    -1.824098921337    -0.783388197006    12.000000000000
           C         -0.325649809262     0.180901078663    -0.049388197006    12.000000000000
           C          0.791350190738    -0.412098921337    -0.752388197006    12.000000000000
           C         -2.482649809262     1.327901078663     1.297611802994    12.000000000000
           C         -0.368649809262     0.159901078663     1.344611802994    12.000000000000
           N          2.898350190738    -1.532098921337    -2.079388197006    14.003074004780
           O         -3.473649809262     1.854901078663     1.916611802994    15.994914619560
           F          0.619350190738    -0.408098921337     2.051611802994    18.998403224000
           H         -1.342649809262     0.798901078663    -1.857388197006     1.007825032070
           H         -3.235649809262     1.804901078663    -0.682388197006     1.007825032070
           H          0.336350190738     0.538901078663    -2.645388197006     1.007825032070
           H          1.522350190738    -1.510098921337     0.966611802994     1.007825032070
           H         -1.455649809262     0.702901078663     3.106611802994     1.007825032070
           H          2.314350190738    -0.545098921337    -3.789388197006     1.007825032070
           H          3.445350190738    -2.499098921337    -0.346388197006     1.007825032070
           H          3.684350190738    -1.951098921337    -2.575388197006     1.007825032070

  Running in c1 symmetry.

  Rotational constants: A =      0.06297  B =      0.01379  C =      0.01137 [cm^-1]
  Rotational constants: A =   1887.72041  B =    413.42588  C =    340.96656 [MHz]
  Nuclear repulsion =  820.652103650053391

  Charge       = 0
  Multiplicity = 1
  Electrons    = 98
  Nalpha       = 49
  Nbeta        = 49

  ==> Algorithm <==

  SCF Algorithm Type is DF.
  DIIS enabled.
  MOM disabled.
  Fractional occupation disabled.
  Guess Type is SAD.
  Energy threshold   = 1.00e-10
  Density threshold  = 1.00e-10
  Integral threshold = 0.00e+00

  ==> Primary Basis <==

  Basis Set: AUG-CC-PVTZ
    Blend: AUG-CC-PVTZ
    Number of shells: 268
    Number of basis function: 828
    Number of Cartesian functions: 970
    Spherical Harmonics?: true
    Max angular momentum: 3

   => Loading Basis Set <=

    Name: (AUG-CC-PVTZ AUX)
    Role: JKFIT
    Keyword: DF_BASIS_SCF
    atoms 1-11  entry C          line   161 file /cbio/jclab/home/chayas/anaconda/envs/py35/share/psi4/basis/aug-cc-pvtz-jkfit.gbs 
    atoms 12    entry N          line   223 file /cbio/jclab/home/chayas/anaconda/envs/py35/share/psi4/basis/aug-cc-pvtz-jkfit.gbs 
    atoms 13    entry O          line   285 file /cbio/jclab/home/chayas/anaconda/envs/py35/share/psi4/basis/aug-cc-pvtz-jkfit.gbs 
    atoms 14    entry F          line   347 file /cbio/jclab/home/chayas/anaconda/envs/py35/share/psi4/basis/aug-cc-pvtz-jkfit.gbs 
    atoms 15-22 entry H          line    69 file /cbio/jclab/home/chayas/anaconda/envs/py35/share/psi4/basis/aug-cc-pvtz-jkfit.gbs 

  ==> Pre-Iterations <==

   -------------------------------------------------------
    Irrep   Nso     Nmo     Nalpha   Nbeta   Ndocc  Nsocc
   -------------------------------------------------------
     A        828     828       0       0       0       0
   -------------------------------------------------------
    Total     828     828      49      49      49       0
   -------------------------------------------------------

  ==> Integral Setup <==

  ==> DFJK: Density-Fitted J/K Matrices <==

    J tasked:                  Yes
    K tasked:                  Yes
    wK tasked:                  No
    OpenMP threads:              8
    Integrals threads:           8
    Memory (MB):              3576
    Algorithm:                Disk
    Integral Cache:           NONE
    Schwarz Cutoff:          1E-12
    Fitting Condition:       1E-12

   => Auxiliary Basis Set <=

  Basis Set: (AUG-CC-PVTZ AUX)
    Blend: AUG-CC-PVTZ-JKFIT
    Number of shells: 532
    Number of basis function: 1824
    Number of Cartesian functions: 2274
    Spherical Harmonics?: true
    Max angular momentum: 4

  Minimum eigenvalue in the overlap matrix is 6.2598479142E-07.
  Using Symmetric Orthogonalization.

  SCF Guess: Superposition of Atomic Densities via on-the-fly atomic UHF.

  ==> Iterations <==

                           Total Energy        Delta E     RMS |[F,P]|

   @DF-RHF iter   0:  -659.64445326773512   -6.59644e+02   2.18638e-02 
   @DF-RHF iter   1:  -649.70604770153807    9.93841e+00   2.26554e-03 
   @DF-RHF iter   2:  -649.92774030151168   -2.21693e-01   1.63989e-03 DIIS
   @DF-RHF iter   3:  -650.07846077795512   -1.50720e-01   5.19357e-04 DIIS
   @DF-RHF iter   4:  -650.09934182652307   -2.08810e-02   1.53513e-04 DIIS
   @DF-RHF iter   5:  -650.10193582871580   -2.59400e-03   6.25225e-05 DIIS
   @DF-RHF iter   6:  -650.10251275848634   -5.76930e-04   2.85030e-05 DIIS
   @DF-RHF iter   7:  -650.10262773665295   -1.14978e-04   9.58984e-06 DIIS
   @DF-RHF iter   8:  -650.10264152731816   -1.37907e-05   3.64850e-06 DIIS
   @DF-RHF iter   9:  -650.10264546473127   -3.93741e-06   2.13331e-06 DIIS
   @DF-RHF iter  10:  -650.10264647207612   -1.00734e-06   9.41621e-07 DIIS
   @DF-RHF iter  11:  -650.10264673320376   -2.61128e-07   3.45670e-07 DIIS
   @DF-RHF iter  12:  -650.10264676719021   -3.39865e-08   1.72273e-07 DIIS
   @DF-RHF iter  13:  -650.10264677169198   -4.50177e-09   7.15746e-08 DIIS
   @DF-RHF iter  14:  -650.10264677279770   -1.10572e-09   2.77276e-08 DIIS
   @DF-RHF iter  15:  -650.10264677292867   -1.30967e-10   1.02750e-08 DIIS
   @DF-RHF iter  16:  -650.10264677294344   -1.47793e-11   3.51902e-09 DIIS
   @DF-RHF iter  17:  -650.10264677296868   -2.52385e-11   1.45762e-09 DIIS
   @DF-RHF iter  18:  -650.10264677296857    1.13687e-13   6.83132e-10 DIIS
   @DF-RHF iter  19:  -650.10264677296288    5.68434e-12   3.04614e-10 DIIS
   @DF-RHF iter  20:  -650.10264677298176   -1.88720e-11   1.07038e-10 DIIS
   @DF-RHF iter  21:  -650.10264677297585    5.91172e-12   5.55931e-11 DIIS

  ==> Post-Iterations <==

    Orbital Energies (a.u.)
    -----------------------

    Doubly Occupied:                                                      

       1A    -26.319835     2A    -20.440937     3A    -15.696126  
       4A    -11.356253     5A    -11.351216     6A    -11.326515  
       7A    -11.309441     8A    -11.285181     9A    -11.274606  
      10A    -11.257428    11A    -11.240295    12A    -11.227147  
      13A    -11.197275    14A    -11.196022    15A     -1.644313  
      16A     -1.380972    17A     -1.265335    18A     -1.183137  
      19A     -1.118298    20A     -1.107390    21A     -1.006930  
      22A     -1.000270    23A     -0.940314    24A     -0.908797  
      25A     -0.841070    26A     -0.834892    27A     -0.813851  
      28A     -0.751381    29A     -0.729705    30A     -0.725110  
      31A     -0.708173    32A     -0.688192    33A     -0.682041  
      34A     -0.652932    35A     -0.649789    36A     -0.617606  
      37A     -0.611258    38A     -0.592939    39A     -0.563674  
      40A     -0.540629    41A     -0.524909    42A     -0.506024  
      43A     -0.485737    44A     -0.474291    45A     -0.415727  
      46A     -0.395691    47A     -0.353619    48A     -0.330222  
      49A     -0.244555  

    Virtual:                                                              

      50A     -0.007225    51A      0.012092    52A      0.021323  
      53A      0.024997    54A      0.039061    55A      0.042536  
      56A      0.044680    57A      0.057567    58A      0.058444  
      59A      0.061212    60A      0.064736    61A      0.069407  
      62A      0.071468    63A      0.081858    64A      0.084232  
      65A      0.094322    66A      0.098234    67A      0.105143  
      68A      0.107730    69A      0.109770    70A      0.118609  
      71A      0.120468    72A      0.122051    73A      0.130083  
      74A      0.131410    75A      0.136191    76A      0.138727  
      77A      0.145190    78A      0.148177    79A      0.150299  
      80A      0.154451    81A      0.158927    82A      0.163687  
      83A      0.165790    84A      0.169388    85A      0.175253  
      86A      0.178395    87A      0.179518    88A      0.186362  
      89A      0.188157    90A      0.194749    91A      0.199043  
      92A      0.202685    93A      0.204282    94A      0.211272  
      95A      0.215735    96A      0.220694    97A      0.228717  
      98A      0.229723    99A      0.233637   100A      0.236576  
     101A      0.243186   102A      0.248144   103A      0.249037  
     104A      0.252321   105A      0.257158   106A      0.260132  
     107A      0.265358   108A      0.272791   109A      0.274255  
     110A      0.278891   111A      0.288277   112A      0.288979  
     113A      0.292983   114A      0.298667   115A      0.300734  
     116A      0.301493   117A      0.310571   118A      0.312007  
     119A      0.319419   120A      0.320243   121A      0.330869  
     122A      0.334281   123A      0.337760   124A      0.338767  
     125A      0.345292   126A      0.347704   127A      0.351520  
     128A      0.355138   129A      0.357960   130A      0.365771  
     131A      0.366471   132A      0.370312   133A      0.378909  
     134A      0.379644   135A      0.382636   136A      0.391583  
     137A      0.396491   138A      0.400479   139A      0.402589  
     140A      0.406957   141A      0.414574   142A      0.416709  
     143A      0.421982   144A      0.428219   145A      0.434929  
     146A      0.436213   147A      0.442560   148A      0.446237  
     149A      0.448332   150A      0.454457   151A      0.455769  
     152A      0.458990   153A      0.461887   154A      0.464792  
     155A      0.469391   156A      0.470717   157A      0.474474  
     158A      0.478624   159A      0.479711   160A      0.486629  
     161A      0.488982   162A      0.493304   163A      0.495270  
     164A      0.496939   165A      0.501764   166A      0.509892  
     167A      0.512381   168A      0.515204   169A      0.517112  
     170A      0.525828   171A      0.532288   172A      0.535538  
     173A      0.540856   174A      0.542465   175A      0.550756  
     176A      0.552058   177A      0.555691   178A      0.561555  
     179A      0.565332   180A      0.570428   181A      0.574415  
     182A      0.587094   183A      0.591021   184A      0.600663  
     185A      0.604273   186A      0.606741   187A      0.613159  
     188A      0.619719   189A      0.623260   190A      0.628601  
     191A      0.635957   192A      0.636668   193A      0.645965  
     194A      0.652540   195A      0.658948   196A      0.666680  
     197A      0.676279   198A      0.679258   199A      0.679968  
     200A      0.685495   201A      0.692109   202A      0.695222  
     203A      0.700513   204A      0.707414   205A      0.709897  
     206A      0.717471   207A      0.722018   208A      0.726573  
     209A      0.730813   210A      0.741840   211A      0.742745  
     212A      0.749426   213A      0.751276   214A      0.760253  
     215A      0.764997   216A      0.770458   217A      0.776054  
     218A      0.780537   219A      0.790438   220A      0.797479  
     221A      0.804289   222A      0.810131   223A      0.814437  
     224A      0.822212   225A      0.825430   226A      0.832507  
     227A      0.836150   228A      0.850217   229A      0.855535  
     230A      0.862398   231A      0.866669   232A      0.868747  
     233A      0.875572   234A      0.878239   235A      0.884058  
     236A      0.886796   237A      0.897463   238A      0.899833  
     239A      0.903105   240A      0.907629   241A      0.908563  
     242A      0.916744   243A      0.919418   244A      0.922262  
     245A      0.926776   246A      0.928456   247A      0.938655  
     248A      0.941603   249A      0.950978   250A      0.953173  
     251A      0.959452   252A      0.963540   253A      0.967077  
     254A      0.968291   255A      0.977294   256A      0.979958  
     257A      0.982466   258A      0.983021   259A      0.988018  
     260A      0.990091   261A      0.996807   262A      1.006872  
     263A      1.008932   264A      1.011283   265A      1.018819  
     266A      1.020497   267A      1.027778   268A      1.029044  
     269A      1.032259   270A      1.040535   271A      1.044808  
     272A      1.048189   273A      1.052495   274A      1.060237  
     275A      1.061699   276A      1.070997   277A      1.071861  
     278A      1.083167   279A      1.088650   280A      1.093610  
     281A      1.099141   282A      1.105332   283A      1.109331  
     284A      1.113066   285A      1.116999   286A      1.121998  
     287A      1.128101   288A      1.133117   289A      1.140530  
     290A      1.143506   291A      1.147212   292A      1.149732  
     293A      1.158042   294A      1.165814   295A      1.169868  
     296A      1.172535   297A      1.179703   298A      1.183757  
     299A      1.185344   300A      1.194440   301A      1.198915  
     302A      1.204212   303A      1.208667   304A      1.212000  
     305A      1.214393   306A      1.220051   307A      1.223913  
     308A      1.226948   309A      1.233493   310A      1.236589  
     311A      1.240958   312A      1.246161   313A      1.254984  
     314A      1.266064   315A      1.268903   316A      1.275115  
     317A      1.278871   318A      1.282022   319A      1.289427  
     320A      1.294955   321A      1.298947   322A      1.308071  
     323A      1.317086   324A      1.325985   325A      1.332537  
     326A      1.336817   327A      1.338626   328A      1.353654  
     329A      1.357872   330A      1.360118   331A      1.366416  
     332A      1.375800   333A      1.382150   334A      1.385578  
     335A      1.388971   336A      1.399911   337A      1.406341  
     338A      1.415913   339A      1.429017   340A      1.431030  
     341A      1.437163   342A      1.443372   343A      1.452175  
     344A      1.452849   345A      1.468482   346A      1.479580  
     347A      1.487675   348A      1.491293   349A      1.492040  
     350A      1.498137   351A      1.507198   352A      1.512454  
     353A      1.519002   354A      1.524029   355A      1.528696  
     356A      1.545886   357A      1.552696   358A      1.571765  
     359A      1.577747   360A      1.587083   361A      1.594288  
     362A      1.603370   363A      1.614785   364A      1.618293  
     365A      1.627518   366A      1.630307   367A      1.646423  
     368A      1.651048   369A      1.658147   370A      1.665110  
     371A      1.669269   372A      1.670649   373A      1.684436  
     374A      1.685701   375A      1.692933   376A      1.700806  
     377A      1.707269   378A      1.716011   379A      1.732454  
     380A      1.746670   381A      1.757849   382A      1.771199  
     383A      1.774226   384A      1.781626   385A      1.789943  
     386A      1.792069   387A      1.804620   388A      1.810065  
     389A      1.812968   390A      1.816087   391A      1.829980  
     392A      1.840009   393A      1.846583   394A      1.855739  
     395A      1.862016   396A      1.872577   397A      1.881212  
     398A      1.886320   399A      1.898478   400A      1.900489  
     401A      1.908484   402A      1.916845   403A      1.927563  
     404A      1.937130   405A      1.947299   406A      1.960224  
     407A      1.964262   408A      1.975428   409A      1.978208  
     410A      1.983696   411A      1.990847   412A      1.993539  
     413A      2.002146   414A      2.009988   415A      2.015908  
     416A      2.027243   417A      2.028601   418A      2.038235  
     419A      2.041017   420A      2.053069   421A      2.059012  
     422A      2.065350   423A      2.069497   424A      2.070622  
     425A      2.077473   426A      2.079452   427A      2.096607  
     428A      2.103374   429A      2.111660   430A      2.120246  
     431A      2.128817   432A      2.137343   433A      2.149446  
     434A      2.159137   435A      2.164531   436A      2.170600  
     437A      2.177625   438A      2.179792   439A      2.197311  
     440A      2.206238   441A      2.210995   442A      2.221747  
     443A      2.224933   444A      2.234723   445A      2.246415  
     446A      2.270787   447A      2.283184   448A      2.292242  
     449A      2.295370   450A      2.308130   451A      2.312590  
     452A      2.318519   453A      2.333118   454A      2.348445  
     455A      2.358834   456A      2.362128   457A      2.374034  
     458A      2.379192   459A      2.388700   460A      2.394334  
     461A      2.402982   462A      2.423915   463A      2.434233  
     464A      2.442809   465A      2.454915   466A      2.459282  
     467A      2.467890   468A      2.484780   469A      2.495714  
     470A      2.498906   471A      2.507922   472A      2.519056  
     473A      2.526621   474A      2.533584   475A      2.551823  
     476A      2.557126   477A      2.563122   478A      2.579674  
     479A      2.593239   480A      2.610035   481A      2.623685  
     482A      2.642171   483A      2.653676   484A      2.660432  
     485A      2.670137   486A      2.678738   487A      2.692606  
     488A      2.717365   489A      2.732080   490A      2.735400  
     491A      2.749229   492A      2.758609   493A      2.782518  
     494A      2.795348   495A      2.807341   496A      2.823143  
     497A      2.859300   498A      2.863552   499A      2.881434  
     500A      2.903037   501A      2.913652   502A      2.921184  
     503A      2.959207   504A      2.971605   505A      3.000914  
     506A      3.027402   507A      3.041849   508A      3.056286  
     509A      3.067177   510A      3.076629   511A      3.084818  
     512A      3.098670   513A      3.116455   514A      3.121056  
     515A      3.151646   516A      3.172799   517A      3.177267  
     518A      3.199969   519A      3.210589   520A      3.219443  
     521A      3.224080   522A      3.232634   523A      3.250276  
     524A      3.257186   525A      3.273000   526A      3.296074  
     527A      3.318415   528A      3.320206   529A      3.323313  
     530A      3.333695   531A      3.343874   532A      3.360954  
     533A      3.368578   534A      3.372807   535A      3.383127  
     536A      3.387169   537A      3.396349   538A      3.411058  
     539A      3.426553   540A      3.430643   541A      3.449842  
     542A      3.454610   543A      3.462035   544A      3.479215  
     545A      3.485867   546A      3.491829   547A      3.499075  
     548A      3.507965   549A      3.517898   550A      3.528880  
     551A      3.534425   552A      3.541171   553A      3.553355  
     554A      3.558067   555A      3.561058   556A      3.578905  
     557A      3.581446   558A      3.597245   559A      3.608943  
     560A      3.624996   561A      3.625876   562A      3.639119  
     563A      3.645401   564A      3.655044   565A      3.661246  
     566A      3.668037   567A      3.671131   568A      3.684550  
     569A      3.696231   570A      3.710666   571A      3.714861  
     572A      3.717422   573A      3.727975   574A      3.737334  
     575A      3.746082   576A      3.756105   577A      3.761771  
     578A      3.772860   579A      3.780992   580A      3.794379  
     581A      3.805407   582A      3.810010   583A      3.816722  
     584A      3.825364   585A      3.832121   586A      3.837939  
     587A      3.849130   588A      3.856732   589A      3.864742  
     590A      3.876763   591A      3.879591   592A      3.898002  
     593A      3.908136   594A      3.915284   595A      3.923077  
     596A      3.933455   597A      3.941973   598A      3.950061  
     599A      3.959728   600A      3.962875   601A      3.964985  
     602A      3.975017   603A      3.989659   604A      3.991778  
     605A      3.998355   606A      4.005156   607A      4.010531  
     608A      4.025708   609A      4.036122   610A      4.042314  
     611A      4.050808   612A      4.060919   613A      4.072069  
     614A      4.078341   615A      4.089528   616A      4.109909  
     617A      4.118470   618A      4.128922   619A      4.134469  
     620A      4.153810   621A      4.159340   622A      4.173301  
     623A      4.181437   624A      4.195276   625A      4.197696  
     626A      4.203831   627A      4.218835   628A      4.220342  
     629A      4.227489   630A      4.236428   631A      4.244264  
     632A      4.254060   633A      4.258289   634A      4.273316  
     635A      4.275731   636A      4.296133   637A      4.300695  
     638A      4.312553   639A      4.317854   640A      4.323467  
     641A      4.331828   642A      4.335221   643A      4.340527  
     644A      4.353492   645A      4.357881   646A      4.368816  
     647A      4.380169   648A      4.385488   649A      4.393511  
     650A      4.397334   651A      4.408192   652A      4.424056  
     653A      4.436534   654A      4.441421   655A      4.450540  
     656A      4.466418   657A      4.481518   658A      4.488531  
     659A      4.494662   660A      4.505372   661A      4.509463  
     662A      4.527106   663A      4.538008   664A      4.546907  
     665A      4.555263   666A      4.563171   667A      4.588839  
     668A      4.593201   669A      4.611664   670A      4.625077  
     671A      4.630750   672A      4.641213   673A      4.661047  
     674A      4.665424   675A      4.679186   676A      4.709333  
     677A      4.715266   678A      4.726944   679A      4.730924  
     680A      4.746945   681A      4.770623   682A      4.775906  
     683A      4.791299   684A      4.792621   685A      4.804194  
     686A      4.820736   687A      4.840388   688A      4.851718  
     689A      4.857844   690A      4.874274   691A      4.889532  
     692A      4.899862   693A      4.906004   694A      4.929564  
     695A      4.934371   696A      4.946316   697A      4.958184  
     698A      4.971835   699A      4.990004   700A      5.012212  
     701A      5.033146   702A      5.035096   703A      5.047404  
     704A      5.064623   705A      5.075305   706A      5.081503  
     707A      5.090876   708A      5.099188   709A      5.121873  
     710A      5.132964   711A      5.143213   712A      5.149666  
     713A      5.155563   714A      5.171517   715A      5.181946  
     716A      5.189127   717A      5.198126   718A      5.228200  
     719A      5.231949   720A      5.242233   721A      5.273563  
     722A      5.275861   723A      5.309223   724A      5.319262  
     725A      5.335542   726A      5.347429   727A      5.383634  
     728A      5.390562   729A      5.403370   730A      5.412390  
     731A      5.436173   732A      5.446649   733A      5.500011  
     734A      5.520129   735A      5.524858   736A      5.549627  
     737A      5.554606   738A      5.572564   739A      5.579895  
     740A      5.626135   741A      5.648334   742A      5.662426  
     743A      5.696337   744A      5.716030   745A      5.722173  
     746A      5.744686   747A      5.754414   748A      5.792382  
     749A      5.820744   750A      5.825994   751A      5.834004  
     752A      5.857121   753A      5.896908   754A      5.915817  
     755A      5.947234   756A      5.972823   757A      5.985016  
     758A      6.012675   759A      6.075370   760A      6.117413  
     761A      6.139575   762A      6.160818   763A      6.221167  
     764A      6.225347   765A      6.265728   766A      6.292340  
     767A      6.311908   768A      6.385732   769A      6.432684  
     770A      6.452449   771A      6.462454   772A      6.529598  
     773A      6.579413   774A      6.598124   775A      6.624267  
     776A      6.671603   777A      6.682434   778A      6.736956  
     779A      6.763721   780A      6.775048   781A      6.828947  
     782A      6.860660   783A      6.888241   784A      6.932083  
     785A      6.957574   786A      6.973004   787A      7.052670  
     788A      7.060976   789A      7.114803   790A      7.174106  
     791A      7.218613   792A      7.222651   793A      7.474886  
     794A      7.495167   795A      7.509161   796A      7.602153  
     797A      7.676762   798A      7.793985   799A      7.804052  
     800A      7.891886   801A      8.014949   802A      8.086466  
     803A      9.155948   804A      9.218463   805A      9.311294  
     806A      9.363356   807A      9.445866   808A      9.558522  
     809A      9.571902   810A      9.629910   811A      9.720464  
     812A      9.751704   813A     10.101371   814A     10.117909  
     815A     15.858598   816A     16.124676   817A     16.341997  
     818A     16.928215   819A     17.273712   820A     17.338641  
     821A     18.966099   822A     19.718173   823A     19.791935  
     824A     20.081150   825A     20.477292   826A     20.571991  
     827A     21.005756   828A     21.479798  

    Final Occupation by Irrep:
              A 
    DOCC [    49 ]

  Energy converged.

  @DF-RHF Final Energy:  -650.10264677297585

   => Energetics <=

    Nuclear Repulsion Energy =            820.6521036500533910
    One-Electron Energy =               -2515.9734044932356483
    Two-Electron Energy =                1045.2186540702061848
    DFT Exchange-Correlation Energy =       0.0000000000000000
    Empirical Dispersion Energy =           0.0000000000000000
    PCM Polarization Energy =               0.0000000000000000
    EFP Energy =                            0.0000000000000000
    Total Energy =                       -650.1026467729759588



Properties will be evaluated at   0.000000,   0.000000,   0.000000 Bohr

Properties computed using the SCF density matrix

  Nuclear Dipole Moment: (a.u.)
     X:     4.3300      Y:    -2.0951      Z:    -9.2541

  Electronic Dipole Moment: (a.u.)
     X:     0.9521      Y:    -0.6976      Z:     5.3983

  Dipole Moment: (a.u.)
     X:     5.2820      Y:    -2.7927      Z:    -3.8558     Total:     7.1110

  Dipole Moment: (Debye)
     X:    13.4256      Y:    -7.0984      Z:    -9.8005     Total:    18.0744


*** tstop() called on gpu-1-11.local at Sun Nov 12 00:56:16 2017
Module time:
	user time   =    1162.54 seconds =      19.38 minutes
	system time =      50.70 seconds =       0.84 minutes
	total time  =        474 seconds =       7.90 minutes
Total time:
	user time   =    1162.55 seconds =      19.38 minutes
	system time =      50.70 seconds =       0.84 minutes
	total time  =        474 seconds =       7.90 minutes

  //>>>>>>>>>>>>>>>>>>>>>>>>>>>>>>>>>>>//
  //               DFMP2               //
  //<<<<<<<<<<<<<<<<<<<<<<<<<<<<<<<<<<<//

   => Loading Basis Set <=

    Name: (AUG-CC-PVTZ AUX)
    Role: RIFIT
    Keyword: DF_BASIS_MP2
    atoms 1-11  entry C          line   147 file /cbio/jclab/home/chayas/anaconda/envs/py35/share/psi4/basis/aug-cc-pvtz-ri.gbs 
    atoms 12    entry N          line   205 file /cbio/jclab/home/chayas/anaconda/envs/py35/share/psi4/basis/aug-cc-pvtz-ri.gbs 
    atoms 13    entry O          line   263 file /cbio/jclab/home/chayas/anaconda/envs/py35/share/psi4/basis/aug-cc-pvtz-ri.gbs 
    atoms 14    entry F          line   321 file /cbio/jclab/home/chayas/anaconda/envs/py35/share/psi4/basis/aug-cc-pvtz-ri.gbs 
    atoms 15-22 entry H          line    29 file /cbio/jclab/home/chayas/anaconda/envs/py35/share/psi4/basis/aug-cc-pvtz-ri.gbs 

	 --------------------------------------------------------
	                          DF-MP2                         
	      2nd-Order Density-Fitted Moller-Plesset Theory     
	              RMP2 Wavefunction,   8 Threads             
	                                                         
	        Rob Parrish, Justin Turney, Andy Simmonett,      
	           Ed Hohenstein, and C. David Sherrill          
	 --------------------------------------------------------

   => Auxiliary Basis Set <=

  Basis Set: (AUG-CC-PVTZ AUX)
    Blend: AUG-CC-PVTZ-RI
    Number of shells: 504
    Number of basis function: 1852
    Number of Cartesian functions: 2344
    Spherical Harmonics?: true
    Max angular momentum: 4

	 --------------------------------------------------------
	                 NBF =   828, NAUX =  1852
	 --------------------------------------------------------
	   CLASS    FOCC     OCC    AOCC    AVIR     VIR    FVIR
	   PAIRS       0      49      49     779     779       0
	 --------------------------------------------------------


         ------------------------------------------------------------
                                     CPHF                           
                                  Rob Parrish                       
         ------------------------------------------------------------

  ==> Geometry <==

    Molecular point group: c1
    Full point group: C1

    Geometry (in Angstrom), charge = 0, multiplicity = 1:

       Center              X                  Y                   Z               Mass       
    ------------   -----------------  -----------------  -----------------  -----------------
           C         -1.361649809262     0.775901078663    -0.769388197006    12.000000000000
           C         -2.439649809262     1.348901078663    -0.096388197006    12.000000000000
           C          0.998350190738    -0.126098921337    -2.098388197006    12.000000000000
           C          1.660350190738    -1.269098921337    -0.083388197006    12.000000000000
           C         -1.446649809262     0.732901078663     2.018611802994    12.000000000000
           C          2.077350190738    -0.710098921337    -2.747388197006    12.000000000000
           C          2.722350190738    -1.824098921337    -0.783388197006    12.000000000000
           C         -0.325649809262     0.180901078663    -0.049388197006    12.000000000000
           C          0.791350190738    -0.412098921337    -0.752388197006    12.000000000000
           C         -2.482649809262     1.327901078663     1.297611802994    12.000000000000
           C         -0.368649809262     0.159901078663     1.344611802994    12.000000000000
           N          2.898350190738    -1.532098921337    -2.079388197006    14.003074004780
           O         -3.473649809262     1.854901078663     1.916611802994    15.994914619560
           F          0.619350190738    -0.408098921337     2.051611802994    18.998403224000
           H         -1.342649809262     0.798901078663    -1.857388197006     1.007825032070
           H         -3.235649809262     1.804901078663    -0.682388197006     1.007825032070
           H          0.336350190738     0.538901078663    -2.645388197006     1.007825032070
           H          1.522350190738    -1.510098921337     0.966611802994     1.007825032070
           H         -1.455649809262     0.702901078663     3.106611802994     1.007825032070
           H          2.314350190738    -0.545098921337    -3.789388197006     1.007825032070
           H          3.445350190738    -2.499098921337    -0.346388197006     1.007825032070
           H          3.684350190738    -1.951098921337    -2.575388197006     1.007825032070

  Nuclear repulsion =  820.652103650053391
  Reference energy  = -650.102646772975845

  ==> Basis Set <==

  Basis Set: AUG-CC-PVTZ
    Blend: AUG-CC-PVTZ
    Number of shells: 268
    Number of basis function: 828
    Number of Cartesian functions: 970
    Spherical Harmonics?: true
    Max angular momentum: 3

  ==> CGRSolver (by Rob Parrish) <==

   Number of roots    =         1
   Preconditioning    =    JACOBI
   Convergence cutoff =     1E-06
   Maximum iterations =       100

  ==> CPHFRHamiltonian (by Rob Parrish) <== 

  ==> DFJK: Density-Fitted J/K Matrices <==

    J tasked:                  Yes
    K tasked:                  Yes
    wK tasked:                  No
    OpenMP threads:              8
    Integrals threads:           8
    Memory (MB):              3576
    Algorithm:                Disk
    Integral Cache:           NONE
    Schwarz Cutoff:          1E-12
    Fitting Condition:       1E-12

   => Auxiliary Basis Set <=

  Basis Set: (AUG-CC-PVTZ AUX)
    Blend: AUG-CC-PVTZ-JKFIT
    Number of shells: 532
    Number of basis function: 1824
    Number of Cartesian functions: 2274
    Spherical Harmonics?: true
    Max angular momentum: 4

  ==> CPHF Iterations <==

  => Iterations <=

             Iter  Converged  Remaining    Residual
  CGR           1          0          1   1.530E-01
  CGR           2          0          1   5.957E-02
  CGR           3          0          1   2.985E-02
  CGR           4          0          1   9.182E-03
  CGR           5          0          1   3.092E-03
  CGR           6          0          1   1.236E-03
  CGR           7          0          1   5.337E-04
  CGR           8          0          1   1.854E-04
  CGR           9          0          1   8.785E-05
  CGR          10          0          1   4.122E-05
  CGR          11          0          1   1.783E-05
  CGR          12          0          1   5.069E-06
  CGR          13          0          1   2.291E-06
  CGR          14          1          0   8.524E-07

    CGRSolver converged.

  ==> DFCorrGrad: Density-Fitted Correlated Gradients <==

    OpenMP threads:              8
    Integrals threads:           8
    Memory (MB):              3576
    Schwarz Cutoff:          0E+00
    Fitting Condition:       1E-12

   => Auxiliary Basis Set <=

  Basis Set: (AUG-CC-PVTZ AUX)
    Blend: AUG-CC-PVTZ-JKFIT
    Number of shells: 532
    Number of basis function: 1824
    Number of Cartesian functions: 2274
    Spherical Harmonics?: true
    Max angular momentum: 4

	-----------------------------------------------------------
	 ==================> DF-MP2 Energies <==================== 
	-----------------------------------------------------------
	 Reference Energy          =    -650.1026467729758451 [Eh]
	 Singles Energy            =      -0.0000000000000001 [Eh]
	 Same-Spin Energy          =      -0.6799431467531425 [Eh]
	 Opposite-Spin Energy      =      -2.0291298109224232 [Eh]
	 Correlation Energy        =      -2.7090729576755654 [Eh]
	 Total Energy              =    -652.8117197306513617 [Eh]
	-----------------------------------------------------------
	 ================> DF-SCS-MP2 Energies <================== 
	-----------------------------------------------------------
	 SCS Same-Spin Scale       =       0.3333333333333333 [-]
	 SCS Opposite-Spin Scale   =       1.2000000000000000 [-]
	 SCS Same-Spin Energy      =      -0.2266477155843808 [Eh]
	 SCS Opposite-Spin Energy  =      -2.4349557731069078 [Eh]
	 SCS Correlation Energy    =      -2.6616034886912887 [Eh]
	 SCS Total Energy          =    -652.7642502616671436 [Eh]
	-----------------------------------------------------------


  -Total Gradient:
     Atom            X                  Y                   Z
    ------   -----------------  -----------------  -----------------
       1        0.036268220736    -0.024828394253    -0.009606840250
       2       -0.028167391839     0.013897834769     0.057202831999
       3       -0.026576198984     0.013194291535     0.032793032815
       4       -0.042597449360     0.028468984833     0.009280026899
       5       -0.058427790059     0.032126158773    -0.004348271380
       6        0.027165880150    -0.019889817445     0.003198963438
       7        0.016151969985    -0.003056627446    -0.028127316972
       8       -0.053265223485     0.028392419537     0.029494736071
       9        0.052630714596    -0.028705466061    -0.034968872632
      10        0.064297406865    -0.034575623502    -0.041242473368
      11        0.053903380531    -0.023000031208    -0.022537525744
      12       -0.020872655606     0.010385521567     0.013870750046
      13       -0.022873241234     0.012290373887     0.013584896700
      14       -0.000000091899    -0.005488556207    -0.015014063811
      15        0.001423986874     0.001191262503    -0.008146564001
      16       -0.002354656426     0.002270087772    -0.008964748288
      17       -0.007831207324     0.004500084698    -0.002330480235
      18       -0.005282530311     0.002505080928     0.016447906839
      19        0.003184041517    -0.002557748767     0.007443773488
      20        0.001729570241    -0.000894953719    -0.002565984775
      21        0.003075480123    -0.001421519898    -0.000301702136
      22        0.008417784908    -0.004803362290    -0.005162074688


*** tstop() called on gpu-1-11.local at Sun Nov 12 01:34:34 2017
Module time:
	user time   =    5902.74 seconds =      98.38 minutes
	system time =     110.11 seconds =       1.84 minutes
	total time  =       2772 seconds =      46.20 minutes
Total time:
	user time   =    5902.75 seconds =      98.38 minutes
	system time =     110.11 seconds =       1.84 minutes
	total time  =       2772 seconds =      46.20 minutes

			-----------------------------------------
			 OPTKING 2.0: for geometry optimizations 
			  - R.A. King,  Bethel University        
			-----------------------------------------

	Internal coordinates to be generated automatically.
	Detected frag 1 with atoms:  1 2 3 4 5 6 7 8 9 10 11 12 13 14 15 16 17 18 19 20
	 21 22
	---Fragment 1 Bond Connectivity---
	 1 : 2 8 15
	 2 : 1 10 16
	 3 : 6 9 17
	 4 : 7 9 18
	 5 : 10 11 19
	 6 : 3 12 20
	 7 : 4 12 21
	 8 : 1 9 11
	 9 : 3 4 8
	 10 : 2 5 13
	 11 : 5 8 14
	 12 : 6 7 22
	 13 : 10
	 14 : 11
	 15 : 1
	 16 : 2
	 17 : 3
	 18 : 4
	 19 : 5
	 20 : 6
	 21 : 7
	 22 : 12

	Assuming in current code that numbering for constraints corresponds to unified fragment.
	Fixed dihedral atom list: 
	     1     8     9     3
	---Fragment 1 Geometry and Gradient---
	 C          -2.5731452284        1.4662405449       -1.4539329822
	 C          -4.6102699997        2.5490536190       -0.1821472948
	 C           1.8866084452       -0.2382924270       -3.9653790128
	 C           3.1376071452       -2.3982493969       -0.1575808551
	 C          -2.7337719497        1.3849823212        3.8146234763
	 C           3.9256229426       -1.3418924886       -5.1918112731
	 C           5.1444962983       -3.4470474006       -1.4803891481
	 C          -0.6153889547        0.3418534958       -0.0933301665
	 C           1.4954351357       -0.7787541010       -1.4218076380
	 C          -4.6915282234        2.5093693702        2.4521309345
	 C          -0.6966471784        0.3021692470        2.5409480627
	 N           5.4770880977       -2.8952473698       -3.9294742163
	 O          -6.5642468211        3.5052550423        3.6218714107
	 F           1.1704022408       -0.7711951965        3.8769844387
	 H          -2.5372404319        1.5097042459       -3.5099550148
	 H          -6.1144920014        3.4107687356       -1.2895268087
	 H           0.6356097452        1.0183754514       -4.9990592075
	 H           2.8768249388       -2.8536733949        1.8266315845
	 H          -2.7507794849        1.3282905372        5.8706455088
	 H           4.3734880361       -1.0300876767       -7.1609059035
	 H           6.5107682924       -4.7226125403       -0.6545788280
	 H           6.9624128381       -3.6870426195       -4.8667783782
	             0.0362682207       -0.0248283943       -0.0096068403
	            -0.0281673918        0.0138978348        0.0572028320
	            -0.0265761990        0.0131942915        0.0327930328
	            -0.0425974494        0.0284689848        0.0092800269
	            -0.0584277901        0.0321261588       -0.0043482714
	             0.0271658801       -0.0198898174        0.0031989634
	             0.0161519700       -0.0030566274       -0.0281273170
	            -0.0532652235        0.0283924195        0.0294947361
	             0.0526307146       -0.0287054661       -0.0349688726
	             0.0642974069       -0.0345756235       -0.0412424734
	             0.0539033805       -0.0230000312       -0.0225375257
	            -0.0208726556        0.0103855216        0.0138707500
	            -0.0228732412        0.0122903739        0.0135848967
	            -0.0000000919       -0.0054885562       -0.0150140638
	             0.0014239869        0.0011912625       -0.0081465640
	            -0.0023546564        0.0022700878       -0.0089647483
	            -0.0078312073        0.0045000847       -0.0023304802
	            -0.0052825303        0.0025050809        0.0164479068
	             0.0031840415       -0.0025577488        0.0074437735
	             0.0017295702       -0.0008949537       -0.0025659848
	             0.0030754801       -0.0014215199       -0.0003017021
	             0.0084177849       -0.0048033623       -0.0051620747

	Previous optimization step data not found.  Starting new optimization.

	---Fragment 1 Intrafragment Coordinates---
	 - Coordinate -           - BOHR/RAD -       - ANG/DEG -
	 R(1,2)           =         2.634350	       1.394038
	 R(1,8)           =         2.635962	       1.394891
	 R(1,15)          =         2.056795	       1.088409
	 R(2,10)          =         2.635830	       1.394821
	 R(2,16)          =         2.057067	       1.088553
	 R(3,6)           =         2.622909	       1.387983
	 R(3,9)           =         2.629614	       1.391532
	 R(3,17)          =         2.052488	       1.086130
	 R(4,7)           =         2.622480	       1.387757
	 R(4,9)           =         2.630164	       1.391823
	 R(4,18)          =         2.052442	       1.086105
	 R(5,10)          =         2.636938	       1.395407
	 R(5,11)          =         2.635263	       1.394521
	 R(5,19)          =         2.056874	       1.088451
	 R(6,12)          =         2.532479	       1.340130
	 R(6,20)          =         2.043316	       1.081276
	 R(7,12)          =         2.532414	       1.340096
	 R(7,21)          =         2.043460	       1.081352
	 R(8,9)           =         2.734263	       1.446909
	 R(8,11)          =         2.635830	       1.394821
	 R(10,13)         =         2.422221	       1.281784
	 R(11,14)         =         2.534359	       1.341125
	 R(12,22)         =         1.926569	       1.019496
	 B(1,2,10)        =         2.094553	     120.009056
	 B(1,2,16)        =         2.068903	     118.539404
	 B(1,8,9)         =         2.091392	     119.827938
	 B(1,8,11)        =         2.093692	     119.959722
	 B(2,1,8)         =         2.094940	     120.031219
	 B(2,1,15)        =         2.079908	     119.169966
	 B(2,10,5)        =         2.094306	     119.994870
	 B(2,10,13)       =         2.094719	     120.018581
	 B(3,6,12)        =         2.095846	     120.083112
	 B(3,6,20)        =         2.161308	     123.833832
	 B(3,9,4)         =         2.092792	     119.908153
	 B(3,9,8)         =         2.095054	     120.037752
	 B(4,7,12)        =         2.095755	     120.077891
	 B(4,7,21)        =         2.162117	     123.880152
	 B(4,9,8)         =         2.095339	     120.054094
	 B(5,10,13)       =         2.094160	     119.986548
	 B(5,11,8)        =         2.095181	     120.045019
	 B(5,11,14)       =         2.081414	     119.256220
	 B(6,3,9)         =         2.073104	     118.780123
	 B(6,3,17)        =         2.089721	     119.732212
	 B(6,12,7)        =         2.135599	     122.360837
	 B(6,12,22)       =         2.073615	     118.809389
	 B(7,4,9)         =         2.073274	     118.789850
	 B(7,4,18)        =         2.089939	     119.744683
	 B(7,12,22)       =         2.073970	     118.829735
	 B(8,1,15)        =         2.108336	     120.798746
	 B(8,11,14)       =         2.106591	     120.698759
	 B(9,3,17)        =         2.120359	     121.487635
	 B(9,4,18)        =         2.119971	     121.465398
	 B(9,8,11)        =         2.098101	     120.212327
	 B(10,2,16)       =         2.119728	     121.451467
	 B(10,5,11)       =         2.093699	     119.960108
	 B(10,5,19)       =         2.120101	     121.472852
	 B(11,5,19)       =         2.069385	     118.567038
	 B(12,6,20)       =         2.026031	     116.083041
	 B(12,7,21)       =         2.025314	     116.041956
	 D(1,2,10,5)      =        -0.000325	      -0.018609
	 D(1,2,10,13)     =         3.141392	     179.988520
	 D(1,8,9,3)       =         0.261657	      14.991837
	 D(1,8,9,4)       =        -2.880128	    -165.019187
	 D(1,8,11,5)      =         0.000325	       0.018608
	 D(1,8,11,14)     =        -3.141528	    -179.996269
	 D(2,1,8,9)       =        -3.141211	    -179.978157
	 D(2,1,8,11)      =        -0.000348	      -0.019945
	 D(2,10,5,11)     =         0.000301	       0.017261
	 D(2,10,5,19)     =        -3.141543	    -179.997173
	 D(3,6,12,7)      =         0.000284	       0.016259
	 D(3,6,12,22)     =         3.140602	     179.943247
	 D(3,9,4,7)       =        -0.001144	      -0.065567
	 D(3,9,4,18)      =        -3.141067	    -179.969860
	 D(3,9,8,11)      =        -2.879205	    -164.966269
	 D(4,7,12,6)      =        -0.000357	      -0.020445
	 D(4,7,12,22)     =        -3.140675	    -179.947418
	 D(4,9,3,6)       =         0.001074	       0.061532
	 D(4,9,3,17)      =         3.141574	     179.998917
	 D(4,9,8,11)      =         0.262196	      15.022707
	 D(5,10,2,16)     =         3.139529	     179.881752
	 D(5,11,8,9)      =         3.141185	     179.976658
	 D(6,3,9,8)       =        -3.140711	    -179.949476
	 D(6,12,7,21)     =         3.141328	     179.984856
	 D(7,4,9,8)       =         3.140640	     179.945443
	 D(7,12,6,20)     =         3.141143	     179.974213
	 D(8,1,2,10)      =         0.000348	       0.019955
	 D(8,1,2,16)      =        -3.139556	    -179.883288
	 D(8,9,3,17)      =        -0.000211	      -0.012091
	 D(8,9,4,18)      =         0.000718	       0.041149
	 D(8,11,5,10)     =        -0.000301	      -0.017270
	 D(8,11,5,19)     =         3.141536	     179.996748
	 D(9,3,6,12)      =        -0.000638	      -0.036572
	 D(9,3,6,20)      =        -3.141437	    -179.991108
	 D(9,4,7,12)      =         0.000782	       0.044779
	 D(9,4,7,21)      =        -3.140911	    -179.960958
	 D(9,8,1,15)      =         0.002066	       0.118384
	 D(9,8,11,14)     =        -0.000667	      -0.038219
	 D(10,2,1,15)     =         3.140283	     179.924984
	 D(10,5,11,14)    =         3.141547	     179.997392
	 D(11,5,10,13)    =        -3.141416	    -179.989865
	 D(11,8,1,15)     =        -3.140256	    -179.923403
	 D(12,6,3,17)     =        -3.141158	    -179.975082
	 D(12,7,4,18)     =         3.140733	     179.950758
	 D(13,10,2,16)    =        -0.001939	      -0.111119
	 D(13,10,5,19)    =        -0.000075	      -0.004300
	 D(14,11,5,19)    =         0.000199	       0.011410
	 D(15,1,2,16)     =         0.000379	       0.021741
	 D(17,3,6,20)     =         0.001228	       0.070382
	 D(18,4,7,21)     =        -0.000960	      -0.054979
	 D(20,6,12,22)    =        -0.001724	      -0.098800
	 D(21,7,12,22)    =         0.001010	       0.057882
	 R(4,14)          =         4.774402	       2.526505

	Current energy   :      -652.8117197307

	Generating empirical Hessian (Schlegel '84) for each fragment.
	Adding user-defined constraint: Fragment 1; Coordinate 62:
		Value =     0.261657; Fixed value    =     0.261799
		Force =     0.000071; Force constant =     0.500000
	Removing off-diagonal coupling between coordinate 62 and others.
	Taking RFO optimization step.
	Going to follow RFO solution 1.
	Using RFO vector 1.

	Determining step-restricting scale parameter for RS-RFO.
	Maximum step size allowed    0.10000

	 Iter      |step|        alpha        rfo_root  
	------------------------------------------------
	    0     0.37915       1.00000           1
	    1     0.26071       3.95510           1
	    2     0.18355      12.35323           1
	    3     0.13560      29.41654           1
	    4     0.11051      50.35655           1
	    5     0.10139      62.56605           1
	    6     0.10003      64.70796           1
	    7     0.10000      64.75664           1
	------------------------------------------------
	Norm of target step-size    0.10000
	Projected energy change by RFO approximation:        -0.0108357286

	Back-transformation to cartesian coordinates...
	Could not converge backtransformation.
	Using first guess instead.

	--- Internal Coordinate Step in ANG or DEG, aJ/ANG or AJ/DEG ---
	 ---------------------------------------------------------------------------
	   Coordinate                Previous        Force       Change         New 
	   ----------                --------       ------       ------       ------
	    1 R(1,2)          =      1.394038    -0.198313    -0.010936     1.383102
	    2 R(1,8)          =      1.394891     0.170663     0.009416     1.404307
	    3 R(1,15)         =      1.088409    -0.067507    -0.004141     1.084268
	    4 R(2,10)         =      1.394821     0.272025     0.015205     1.410026
	    5 R(2,16)         =      1.088553    -0.061783    -0.003795     1.084758
	    6 R(3,6)          =      1.387983    -0.197092    -0.010834     1.377150
	    7 R(3,9)          =      1.391532     0.208916     0.011614     1.403146
	    8 R(3,17)         =      1.086130    -0.071692    -0.004367     1.081762
	    9 R(4,7)          =      1.387757    -0.174597    -0.009527     1.378230
	   10 R(4,9)          =      1.391823     0.234701     0.013084     1.404907
	   11 R(4,18)         =      1.086105    -0.131957    -0.007984     1.078122
	   12 R(5,10)         =      1.395407     0.243198     0.013604     1.409011
	   13 R(5,11)         =      1.394521    -0.257728    -0.014261     1.380260
	   14 R(5,19)         =      1.088451    -0.061663    -0.003783     1.084667
	   15 R(6,12)         =      1.340130     0.106477     0.005331     1.345461
	   16 R(6,20)         =      1.081276    -0.022369    -0.001351     1.079925
	   17 R(7,12)         =      1.340096     0.125724     0.006335     1.346430
	   18 R(7,21)         =      1.081352    -0.023249    -0.001416     1.079936
	   19 R(8,9)          =      1.446909    -0.158731    -0.009315     1.437594
	   20 R(8,11)         =      1.394821     0.119409     0.006684     1.401505
	   21 R(10,13)        =      1.281784    -0.241376    -0.010914     1.270870
	   22 R(11,14)        =      1.341125     0.046419     0.002366     1.343491
	   23 R(12,22)        =      1.019496    -0.090423    -0.005096     1.014400
	   24 B(1,2,10)       =    120.009056     0.000399     0.339510   120.348566
	   25 B(1,2,16)       =    118.539404     0.000260     0.233168   118.772572
	   26 B(1,8,9)        =    119.827938     0.000826     0.650554   120.478492
	   27 B(1,8,11)       =    119.959722    -0.001254    -1.034189   118.925533
	   28 B(2,1,8)        =    120.031219     0.000654     0.529599   120.560818
	   29 B(2,1,15)       =    119.169966    -0.000376    -0.310854   118.859112
	   30 B(2,10,5)       =    119.994870    -0.001255    -0.967231   119.027639
	   31 B(2,10,13)      =    120.018581     0.000687     0.531834   120.550415
	   32 B(3,6,12)       =    120.083112     0.000011    -0.012309   120.070803
	   33 B(3,6,20)       =    123.833832    -0.000137    -0.109981   123.723851
	   34 B(3,9,4)        =    119.908153    -0.001367    -1.079450   118.828703
	   35 B(3,9,8)        =    120.037752     0.000407     0.300214   120.337966
	   36 B(4,7,12)       =    120.077891     0.000211     0.169743   120.247635
	   37 B(4,7,21)       =    123.880152    -0.000246    -0.209318   123.670835
	   38 B(4,9,8)        =    120.054094     0.000961     0.779234   120.833329
	   39 B(5,10,13)      =    119.986548     0.000568     0.435398   120.421946
	   40 B(5,11,8)       =    120.045019     0.001284     0.994178   121.039197
	   41 B(5,11,14)      =    119.256220    -0.000256    -0.211350   119.044871
	   42 B(6,3,9)        =    118.780123     0.000844     0.688189   119.468312
	   43 B(6,3,17)       =    119.732212    -0.000654    -0.552579   119.179633
	   44 B(6,12,7)       =    122.360837    -0.000167    -0.156371   122.204466
	   45 B(6,12,22)      =    118.809389     0.000063     0.059681   118.869071
	   46 B(7,4,9)        =    118.789850     0.000468     0.390201   119.180050
	   47 B(7,4,18)       =    119.744683    -0.000719    -0.630021   119.114662
	   48 B(7,12,22)      =    118.829735     0.000104     0.096668   118.926402
	   49 B(8,1,15)       =    120.798746    -0.000278    -0.218976   120.579770
	   50 B(8,11,14)      =    120.698759    -0.001027    -0.783017   119.915742
	   51 B(9,3,17)       =    121.487635    -0.000190    -0.135584   121.352051
	   52 B(9,4,18)       =    121.465398     0.000251     0.239511   121.704910
	   53 B(9,8,11)       =    120.212327     0.000428     0.383610   120.595937
	   54 B(10,2,16)      =    121.451467    -0.000659    -0.572683   120.878784
	   55 B(10,5,11)      =    119.960108     0.000172     0.138087   120.098196
	   56 B(10,5,19)      =    121.472852    -0.000397    -0.341975   121.130877
	   57 B(11,5,19)      =    118.567038     0.000225     0.203882   118.770919
	   58 B(12,6,20)      =    116.083041     0.000126     0.122269   116.205310
	   59 B(12,7,21)      =    116.041956     0.000035     0.039570   116.081526
	   60 D(1,2,10,5)     =     -0.018609    -0.000005    -0.020019    -0.038628
	   61 D(1,2,10,13)    =    179.988520    -0.000006    -0.029249   179.959271
	   62 D(1,8,9,3)      =     14.991837     0.000005     0.017983    15.009820
	   63 D(1,8,9,4)      =   -165.019187     0.000010     0.047400  -164.971787
	   64 D(1,8,11,5)     =      0.018608    -0.000002    -0.009503     0.009105
	   65 D(1,8,11,14)    =   -179.996269     0.000036     0.165704  -179.830566
	   66 D(2,1,8,9)      =   -179.978157    -0.000005    -0.020171  -179.998329
	   67 D(2,1,8,11)     =     -0.019945    -0.000010    -0.048774    -0.068719
	   68 D(2,10,5,11)    =      0.017261    -0.000008    -0.037800    -0.020538
	   69 D(2,10,5,19)    =   -179.997173    -0.000012    -0.056328  -180.053502
	   70 D(3,6,12,7)     =      0.016259     0.000003     0.012918     0.029177
	   71 D(3,6,12,22)    =    179.943247    -0.000001    -0.004914   179.938333
	   72 D(3,9,4,7)      =     -0.065567     0.000003     0.015561    -0.050006
	   73 D(3,9,4,18)     =   -179.969860     0.000031     0.145609  -179.824251
	   74 D(3,9,8,11)     =   -164.966269     0.000011     0.047662  -164.918607
	   75 D(4,7,12,6)     =     -0.020445    -0.000008    -0.034425    -0.054870
	   76 D(4,7,12,22)    =   -179.947418    -0.000004    -0.016558  -179.963976
	   77 D(4,9,3,6)      =      0.061532    -0.000007    -0.036187     0.025345
	   78 D(4,9,3,17)     =    179.998917     0.000011     0.048740   180.047657
	   79 D(4,9,8,11)     =     15.022707     0.000016     0.077079    15.099786
	   80 D(5,10,2,16)    =    179.881752    -0.000005    -0.023288   179.858464
	   81 D(5,11,8,9)     =    179.976658    -0.000008    -0.038029   179.938629
	   82 D(6,3,9,8)      =   -179.949476    -0.000002    -0.007152  -179.956627
	   83 D(6,12,7,21)    =    179.984856    -0.000014    -0.063791   179.921065
	   84 D(7,4,9,8)      =    179.945443    -0.000002    -0.013569   179.931874
	   85 D(7,12,6,20)    =    179.974213    -0.000002    -0.011191   179.963022
	   86 D(8,1,2,10)     =      0.019955     0.000014     0.063704     0.083658
	   87 D(8,1,2,16)     =   -179.883288     0.000015     0.067708  -179.815580
	   88 D(8,9,3,17)     =     -0.012091     0.000016     0.077776     0.065685
	   89 D(8,9,4,18)     =      0.041149     0.000026     0.116480     0.157629
	   90 D(8,11,5,10)    =     -0.017270     0.000011     0.052312     0.035042
	   91 D(8,11,5,19)    =    179.996748     0.000015     0.070484   180.067232
	   92 D(9,3,6,12)     =     -0.036572     0.000004     0.022190    -0.014382
	   93 D(9,3,6,20)     =   -179.991108     0.000010     0.048091  -179.943017
	   94 D(9,4,7,12)     =      0.044779     0.000005     0.019796     0.064574
	   95 D(9,4,7,21)     =   -179.960958     0.000011     0.051503  -179.909454
	   96 D(9,8,1,15)     =      0.118384     0.000018     0.084882     0.203266
	   97 D(9,8,11,14)    =     -0.038219     0.000030     0.137178     0.098959
	   98 D(10,2,1,15)    =    179.924984    -0.000009    -0.039493   179.885491
	   99 D(10,5,11,14)   =    179.997392    -0.000026    -0.121309   179.876084
	  100 D(11,5,10,13)   =   -179.989865    -0.000006    -0.028574  -180.018440
	  101 D(11,8,1,15)    =   -179.923403     0.000012     0.056278  -179.867125
	  102 D(12,6,3,17)    =   -179.975082    -0.000014    -0.061124  -180.036206
	  103 D(12,7,4,18)    =    179.950758    -0.000023    -0.106026   179.844732
	  104 D(13,10,2,16)   =     -0.111119    -0.000007    -0.032519    -0.143637
	  105 D(13,10,5,19)   =     -0.004300    -0.000010    -0.047103    -0.051403
	  106 D(14,11,5,19)   =      0.011410    -0.000022    -0.103136    -0.091726
	  107 D(15,1,2,16)    =      0.021741    -0.000008    -0.035488    -0.013747
	  108 D(17,3,6,20)    =      0.070382    -0.000008    -0.035223     0.035159
	  109 D(18,4,7,21)    =     -0.054979    -0.000016    -0.074318    -0.129297
	  110 D(20,6,12,22)   =     -0.098800    -0.000006    -0.029023    -0.127823
	  111 D(21,7,12,22)   =      0.057882    -0.000010    -0.045923     0.011959
	  112 R(4,14)         =      2.526505     0.149706     0.013098     2.539603
	 ---------------------------------------------------------------------------
	Successfully symmetrized geometry.
	 Forces used to impose fixed constraints are not included.
	  Forces zeroed: 62 

  ==> Convergence Check <==

  Measures of convergence in internal coordinates in au.
  Criteria marked as inactive (o), active & met (*), and active & unmet ( ).
  --------------------------------------------------------------------------------------------- ~
   Step     Total Energy     Delta E     MAX Force     RMS Force      MAX Disp      RMS Disp    ~
  --------------------------------------------------------------------------------------------- ~
    Convergence Criteria    1.00e-06 *    3.00e-04 *             o    1.20e-03 *             o  ~
  --------------------------------------------------------------------------------------------- ~
      1    -652.81171973   -6.53e+02      3.30e-02      1.02e-02 o    2.87e-02      9.45e-03 o  ~
  ---------------------------------------------------------------------------------------------

	Writing optimization data to binary file.
	Structure for next step:
	Cartesian Geometry (in Angstrom)
	    C    -1.3724398237   0.7811248861  -0.7687935830
	    C    -2.4430493330   1.3505060924  -0.1035337148
	    C     1.0068170731  -0.1304554035  -2.1028886103
	    C     1.6709224722  -1.2787129233  -0.0819645188
	    C    -1.4435656112   0.7326539463   2.0226921709
	    C     2.0770506747  -0.7073794901  -2.7496496581
	    C     2.7249259838  -1.8276160946  -0.7800325130
	    C    -0.3249294010   0.1795413237  -0.0526255914
	    C     0.7870319672  -0.4117150940  -0.7459042175
	    C    -2.4957482054   1.3357784679   1.3054303162
	    C    -0.3809833019   0.1665979640   1.3476985313
	    N     2.9029485221  -1.5332786154  -2.0817804954
	    O    -3.4772665441   1.8585018424   1.9206486371
	    F     0.6120432332  -0.4005809133   2.0528052653
	    H    -1.3575077523   0.8044010755  -1.8527086686
	    H    -3.2377624178   1.8046734426  -0.6856538373
	    H     0.3523396841   0.5317942559  -2.6536105193
	    H     1.5441654648  -1.5288811832   0.9590422120
	    H    -1.4488356066   0.7028342588   3.1069367914
	    H     2.3106911515  -0.5384465135  -3.7903759324
	    H     3.4458191358  -2.5025589335  -0.3429659429
	    H     3.6850368306  -1.9489586605  -2.5763064557
			--------------------------
			 OPTKING Finished Execution 
			--------------------------

    Structure for next step:
    Molecular point group: c1
    Full point group: C1

    Geometry (in Angstrom), charge = 0, multiplicity = 1:

    C           -1.370679671301     0.779890480841    -0.769626622608
    C           -2.441289180644     1.349271687158    -0.104366754406
    C            1.008577225438    -0.131689808817    -2.103721649911
    C            1.672682624584    -1.279947328607    -0.082797558363
    C           -1.441805458890     0.731419540969     2.021859131329
    C            2.078810827073    -0.708613895412    -2.750482697714
    C            2.726686136154    -1.828850499842    -0.780865552578
    C           -0.323169248633     0.178306918435    -0.053458631028
    C            0.788792119537    -0.412949499283    -0.746737257153
    C           -2.493988053024     1.334544062565     1.304597276601
    C           -0.379223149493     0.165363558708     1.346865491710
    N            2.904708674481    -1.534513020666    -2.082613535033
    O           -3.475506391722     1.857267437103     1.919815597454
    F            0.613803385531    -0.401815318622     2.051972225680
    H           -1.355747599988     0.803166670211    -1.853541708162
    H           -3.236002265431     1.803439037283    -0.686486876909
    H            0.354099836498     0.530559850611    -2.654443558877
    H            1.545925617115    -1.530115588460     0.958209172403
    H           -1.447075454254     0.701599853490     3.106103751840
    H            2.312451303904    -0.539680918757    -3.791208971972
    H            3.447579288207    -2.503793338803    -0.343798982456
    H            3.686796982958    -1.950193065813    -2.577139495282

gradient() will perform analytic gradient computation.

*** tstart() called on gpu-1-11.local
*** at Sun Nov 12 01:34:36 2017

    SCF Algorithm Type (re)set to DF.

*** tstart() called on gpu-1-11.local
*** at Sun Nov 12 01:34:36 2017

   => Loading Basis Set <=

    Name: AUG-CC-PVTZ
    Role: ORBITAL
    Keyword: BASIS
    atoms 1-11  entry C          line   221 file /cbio/jclab/home/chayas/anaconda/envs/py35/share/psi4/basis/aug-cc-pvtz.gbs 
    atoms 12    entry N          line   267 file /cbio/jclab/home/chayas/anaconda/envs/py35/share/psi4/basis/aug-cc-pvtz.gbs 
    atoms 13    entry O          line   313 file /cbio/jclab/home/chayas/anaconda/envs/py35/share/psi4/basis/aug-cc-pvtz.gbs 
    atoms 14    entry F          line   359 file /cbio/jclab/home/chayas/anaconda/envs/py35/share/psi4/basis/aug-cc-pvtz.gbs 
    atoms 15-22 entry H          line    34 file /cbio/jclab/home/chayas/anaconda/envs/py35/share/psi4/basis/aug-cc-pvtz.gbs 


         ---------------------------------------------------------
                                   SCF
            by Justin Turney, Rob Parrish, and Andy Simmonett
                              RHF Reference
                        8 Threads,   4768 MiB Core
         ---------------------------------------------------------

  ==> Geometry <==

    Molecular point group: c1
    Full point group: C1

    Geometry (in Angstrom), charge = 0, multiplicity = 1:

       Center              X                  Y                   Z               Mass       
    ------------   -----------------  -----------------  -----------------  -----------------
           C         -1.370679671301     0.779890480841    -0.769626622608    12.000000000000
           C         -2.441289180644     1.349271687158    -0.104366754406    12.000000000000
           C          1.008577225438    -0.131689808817    -2.103721649911    12.000000000000
           C          1.672682624584    -1.279947328607    -0.082797558363    12.000000000000
           C         -1.441805458890     0.731419540969     2.021859131329    12.000000000000
           C          2.078810827073    -0.708613895412    -2.750482697714    12.000000000000
           C          2.726686136154    -1.828850499842    -0.780865552578    12.000000000000
           C         -0.323169248633     0.178306918435    -0.053458631028    12.000000000000
           C          0.788792119537    -0.412949499283    -0.746737257153    12.000000000000
           C         -2.493988053024     1.334544062565     1.304597276601    12.000000000000
           C         -0.379223149493     0.165363558708     1.346865491710    12.000000000000
           N          2.904708674481    -1.534513020666    -2.082613535033    14.003074004780
           O         -3.475506391722     1.857267437103     1.919815597454    15.994914619560
           F          0.613803385531    -0.401815318622     2.051972225680    18.998403224000
           H         -1.355747599988     0.803166670211    -1.853541708162     1.007825032070
           H         -3.236002265431     1.803439037283    -0.686486876909     1.007825032070
           H          0.354099836498     0.530559850611    -2.654443558877     1.007825032070
           H          1.545925617115    -1.530115588460     0.958209172403     1.007825032070
           H         -1.447075454254     0.701599853490     3.106103751840     1.007825032070
           H          2.312451303904    -0.539680918757    -3.791208971972     1.007825032070
           H          3.447579288207    -2.503793338803    -0.343798982456     1.007825032070
           H          3.686796982958    -1.950193065813    -2.577139495282     1.007825032070

  Running in c1 symmetry.

  Rotational constants: A =      0.06281  B =      0.01374  C =      0.01134 [cm^-1]
  Rotational constants: A =   1882.90370  B =    411.93724  C =    339.82928 [MHz]
  Nuclear repulsion =  819.567061342682109

  Charge       = 0
  Multiplicity = 1
  Electrons    = 98
  Nalpha       = 49
  Nbeta        = 49

  ==> Algorithm <==

  SCF Algorithm Type is DF.
  DIIS enabled.
  MOM disabled.
  Fractional occupation disabled.
  Guess Type is READ.
  Energy threshold   = 1.00e-10
  Density threshold  = 1.00e-10
  Integral threshold = 0.00e+00

  ==> Primary Basis <==

  Basis Set: AUG-CC-PVTZ
    Blend: AUG-CC-PVTZ
    Number of shells: 268
    Number of basis function: 828
    Number of Cartesian functions: 970
    Spherical Harmonics?: true
    Max angular momentum: 3

   => Loading Basis Set <=

    Name: (AUG-CC-PVTZ AUX)
    Role: JKFIT
    Keyword: DF_BASIS_SCF
    atoms 1-11  entry C          line   161 file /cbio/jclab/home/chayas/anaconda/envs/py35/share/psi4/basis/aug-cc-pvtz-jkfit.gbs 
    atoms 12    entry N          line   223 file /cbio/jclab/home/chayas/anaconda/envs/py35/share/psi4/basis/aug-cc-pvtz-jkfit.gbs 
    atoms 13    entry O          line   285 file /cbio/jclab/home/chayas/anaconda/envs/py35/share/psi4/basis/aug-cc-pvtz-jkfit.gbs 
    atoms 14    entry F          line   347 file /cbio/jclab/home/chayas/anaconda/envs/py35/share/psi4/basis/aug-cc-pvtz-jkfit.gbs 
    atoms 15-22 entry H          line    69 file /cbio/jclab/home/chayas/anaconda/envs/py35/share/psi4/basis/aug-cc-pvtz-jkfit.gbs 

  Reading orbitals from file 180, no projection.

  ==> Pre-Iterations <==

   -------------------------------------------------------
    Irrep   Nso     Nmo     Nalpha   Nbeta   Ndocc  Nsocc
   -------------------------------------------------------
     A        828     828       0       0       0       0
   -------------------------------------------------------
    Total     828     828      49      49      49       0
   -------------------------------------------------------

  ==> Integral Setup <==

  ==> DFJK: Density-Fitted J/K Matrices <==

    J tasked:                  Yes
    K tasked:                  Yes
    wK tasked:                  No
    OpenMP threads:              8
    Integrals threads:           8
    Memory (MB):              3576
    Algorithm:                Disk
    Integral Cache:           NONE
    Schwarz Cutoff:          1E-12
    Fitting Condition:       1E-12

   => Auxiliary Basis Set <=

  Basis Set: (AUG-CC-PVTZ AUX)
    Blend: AUG-CC-PVTZ-JKFIT
    Number of shells: 532
    Number of basis function: 1824
    Number of Cartesian functions: 2274
    Spherical Harmonics?: true
    Max angular momentum: 4

  Minimum eigenvalue in the overlap matrix is 6.3576706827E-07.
  Using Symmetric Orthogonalization.

  SCF Guess: Orbitals guess was supplied from a previous computation.

  ==> Iterations <==

                           Total Energy        Delta E     RMS |[F,P]|

   @DF-RHF iter   0:  -650.18990707696730   -6.50190e+02   5.42155e-04 
   @DF-RHF iter   1:  -650.11492875246313    7.49783e-02   1.05532e-04 
   @DF-RHF iter   2:  -650.11535055488616   -4.21802e-04   5.80123e-05 DIIS
   @DF-RHF iter   3:  -650.11553662250697   -1.86068e-04   1.37269e-05 DIIS
   @DF-RHF iter   4:  -650.11555974799558   -2.31255e-05   7.11548e-06 DIIS
   @DF-RHF iter   5:  -650.11557267814499   -1.29301e-05   4.29055e-06 DIIS
   @DF-RHF iter   6:  -650.11557741631032   -4.73817e-06   1.59918e-06 DIIS
   @DF-RHF iter   7:  -650.11557831712400   -9.00814e-07   4.84938e-07 DIIS
   @DF-RHF iter   8:  -650.11557836493705   -4.78130e-08   1.51767e-07 DIIS
   @DF-RHF iter   9:  -650.11557836775978   -2.82273e-09   6.29588e-08 DIIS
   @DF-RHF iter  10:  -650.11557836824170   -4.81919e-10   2.30351e-08 DIIS
   @DF-RHF iter  11:  -650.11557836830355   -6.18456e-11   1.06953e-08 DIIS
   @DF-RHF iter  12:  -650.11557836832026   -1.67120e-11   4.20921e-09 DIIS
   @DF-RHF iter  13:  -650.11557836831150    8.75389e-12   1.24728e-09 DIIS
   @DF-RHF iter  14:  -650.11557836830491    6.59384e-12   5.94768e-10 DIIS
   @DF-RHF iter  15:  -650.11557836832515   -2.02363e-11   2.91727e-10 DIIS
   @DF-RHF iter  16:  -650.11557836831560    9.54969e-12   1.26475e-10 DIIS
   @DF-RHF iter  17:  -650.11557836831878   -3.18323e-12   5.71473e-11 DIIS

  ==> Post-Iterations <==

    Orbital Energies (a.u.)
    -----------------------

    Doubly Occupied:                                                      

       1A    -26.317817     2A    -20.452214     3A    -15.687539  
       4A    -11.350439     5A    -11.345613     6A    -11.327284  
       7A    -11.309435     8A    -11.280011     9A    -11.270225  
      10A    -11.266358    11A    -11.241675    12A    -11.228719  
      13A    -11.200066    14A    -11.197914    15A     -1.641439  
      16A     -1.371848    17A     -1.278859    18A     -1.178715  
      19A     -1.118012    20A     -1.103969    21A     -1.010955  
      22A     -1.001414    23A     -0.932836    24A     -0.906665  
      25A     -0.838998    26A     -0.831129    27A     -0.813830  
      28A     -0.749248    29A     -0.725890    30A     -0.722553  
      31A     -0.706080    32A     -0.687010    33A     -0.680175  
      34A     -0.650785    35A     -0.644027    36A     -0.618303  
      37A     -0.609753    38A     -0.597449    39A     -0.561628  
      40A     -0.547190    41A     -0.524996    42A     -0.508988  
      43A     -0.494385    44A     -0.475297    45A     -0.414844  
      46A     -0.397408    47A     -0.361778    48A     -0.335815  
      49A     -0.247520  

    Virtual:                                                              

      50A     -0.004983    51A      0.013507    52A      0.023489  
      53A      0.026199    54A      0.039613    55A      0.043724  
      56A      0.045429    57A      0.058655    58A      0.061038  
      59A      0.062994    60A      0.064915    61A      0.070595  
      62A      0.073367    63A      0.083269    64A      0.085681  
      65A      0.094989    66A      0.098944    67A      0.105415  
      68A      0.108979    69A      0.110953    70A      0.118747  
      71A      0.120293    72A      0.122112    73A      0.130355  
      74A      0.132245    75A      0.136243    76A      0.139310  
      77A      0.145357    78A      0.148323    79A      0.150258  
      80A      0.154374    81A      0.158579    82A      0.163075  
      83A      0.165537    84A      0.169545    85A      0.175265  
      86A      0.178578    87A      0.180473    88A      0.184999  
      89A      0.189290    90A      0.195028    91A      0.198837  
      92A      0.202591    93A      0.204926    94A      0.211713  
      95A      0.217017    96A      0.221092    97A      0.228958  
      98A      0.229970    99A      0.234595   100A      0.236845  
     101A      0.242177   102A      0.246844   103A      0.249818  
     104A      0.252741   105A      0.257458   106A      0.260667  
     107A      0.266991   108A      0.273206   109A      0.274827  
     110A      0.278315   111A      0.288508   112A      0.289226  
     113A      0.292308   114A      0.299078   115A      0.301414  
     116A      0.301979   117A      0.310314   118A      0.313802  
     119A      0.318609   120A      0.320726   121A      0.332058  
     122A      0.334869   123A      0.337290   124A      0.339392  
     125A      0.346576   126A      0.348244   127A      0.352071  
     128A      0.355507   129A      0.358443   130A      0.365737  
     131A      0.366821   132A      0.369878   133A      0.378439  
     134A      0.381275   135A      0.383243   136A      0.391285  
     137A      0.398234   138A      0.401798   139A      0.403387  
     140A      0.408254   141A      0.416253   142A      0.418345  
     143A      0.423008   144A      0.429928   145A      0.434730  
     146A      0.436697   147A      0.442793   148A      0.445857  
     149A      0.448365   150A      0.454717   151A      0.455123  
     152A      0.458545   153A      0.462050   154A      0.465568  
     155A      0.469456   156A      0.471275   157A      0.475390  
     158A      0.478688   159A      0.479929   160A      0.488029  
     161A      0.490073   162A      0.493266   163A      0.495214  
     164A      0.497318   165A      0.501196   166A      0.508868  
     167A      0.512034   168A      0.515782   169A      0.518804  
     170A      0.527515   171A      0.533248   172A      0.535401  
     173A      0.539853   174A      0.541966   175A      0.549495  
     176A      0.551684   177A      0.555637   178A      0.561545  
     179A      0.566141   180A      0.569148   181A      0.572898  
     182A      0.585973   183A      0.589208   184A      0.600940  
     185A      0.603538   186A      0.607388   187A      0.612156  
     188A      0.618949   189A      0.622690   190A      0.629017  
     191A      0.636624   192A      0.637013   193A      0.645553  
     194A      0.652799   195A      0.659574   196A      0.666270  
     197A      0.676532   198A      0.679200   199A      0.680345  
     200A      0.685740   201A      0.693531   202A      0.695835  
     203A      0.702033   204A      0.706866   205A      0.710381  
     206A      0.715594   207A      0.720772   208A      0.726518  
     209A      0.729135   210A      0.741467   211A      0.743110  
     212A      0.749831   213A      0.752802   214A      0.759670  
     215A      0.765568   216A      0.770366   217A      0.778245  
     218A      0.780646   219A      0.789329   220A      0.797997  
     221A      0.802784   222A      0.810982   223A      0.815620  
     224A      0.821169   225A      0.826676   226A      0.833253  
     227A      0.837292   228A      0.849286   229A      0.855946  
     230A      0.862544   231A      0.865476   232A      0.870054  
     233A      0.876024   234A      0.878841   235A      0.883806  
     236A      0.887587   237A      0.896950   238A      0.900566  
     239A      0.901989   240A      0.905509   241A      0.907404  
     242A      0.916329   243A      0.920120   244A      0.921184  
     245A      0.926061   246A      0.927775   247A      0.939040  
     248A      0.941434   249A      0.951141   250A      0.951763  
     251A      0.959428   252A      0.962764   253A      0.967251  
     254A      0.968211   255A      0.976692   256A      0.980546  
     257A      0.982332   258A      0.983539   259A      0.989513  
     260A      0.990490   261A      0.997050   262A      1.005858  
[...]
	 B(6,3,9)         =         2.136899	     122.435320
	 B(6,3,17)        =         2.036389	     116.676511
	 B(6,12,7)        =         2.093182	     119.930467
	 B(6,12,22)       =         2.094989	     120.034018
	 B(7,4,9)         =         2.128725	     121.966963
	 B(7,4,18)        =         2.048011	     117.342388
	 B(7,12,22)       =         2.094932	     120.030759
	 B(8,1,15)        =         2.071933	     118.713018
	 B(8,11,14)       =         2.062790	     118.189179
	 B(9,3,17)        =         2.109497	     120.865252
	 B(9,4,18)        =         2.106140	     120.672955
	 B(9,8,11)        =         2.182950	     125.073813
	 B(10,2,16)       =         2.044615	     117.147827
	 B(10,5,11)       =         2.118202	     121.364048
	 B(10,5,19)       =         2.073539	     118.805011
	 B(11,5,19)       =         2.091389	     119.827746
	 B(12,6,20)       =         2.035205	     116.608664
	 B(12,7,21)       =         2.032751	     116.468057
	 D(1,2,10,5)      =        -0.010601	      -0.607409
	 D(1,2,10,13)     =         3.130682	     179.374841
	 D(1,8,9,3)       =         0.258394	      14.804885
	 D(1,8,9,4)       =        -2.904081	    -166.391577
	 D(1,8,11,5)      =        -0.018340	      -1.050789
	 D(1,8,11,14)     =        -3.111305	    -178.264643
	 D(2,1,8,9)       =         3.098562	     177.534517
	 D(2,1,8,11)      =        -0.000087	      -0.004996
	 D(2,10,5,11)     =        -0.006915	      -0.396222
	 D(2,10,5,19)     =         3.123306	     178.952232
	 D(3,6,12,7)      =        -0.012389	      -0.709862
	 D(3,6,12,22)     =        -3.140141	    -179.916838
	 D(3,9,4,7)       =        -0.027739	      -1.589323
	 D(3,9,4,18)      =         3.141274	     179.981726
	 D(3,9,8,11)      =        -2.931171	    -167.943727
	 D(4,7,12,6)      =         0.003432	       0.196644
	 D(4,7,12,22)     =         3.131184	     179.403646
	 D(4,9,3,6)       =         0.018919	       1.083951
	 D(4,9,3,17)      =        -3.091263	    -177.116331
	 D(4,9,8,11)      =         0.189539	      10.859810
	 D(5,10,2,16)     =         3.116187	     178.544357
	 D(5,11,8,9)      =        -3.114937	    -178.472765
	 D(6,3,9,8)       =        -3.141393	    -179.988555
	 D(6,12,7,21)     =         3.139308	     179.869115
	 D(7,4,9,8)       =         3.133314	     179.525645
	 D(7,12,6,20)     =         3.115186	     178.487035
	 D(8,1,2,10)      =         0.014153	       0.810931
	 D(8,1,2,16)      =        -3.112100	    -178.310176
	 D(8,9,3,17)      =         0.031611	       1.811163
	 D(8,9,4,18)      =         0.019141	       1.096694
	 D(8,11,5,10)     =         0.022194	       1.271638
	 D(8,11,5,19)     =        -3.107912	    -178.070251
	 D(9,3,6,12)      =         0.000230	       0.013153
	 D(9,3,6,20)      =        -3.126482	    -179.134220
	 D(9,4,7,12)      =         0.017819	       1.020982
	 D(9,4,7,21)      =        -3.117716	    -178.631954
	 D(9,8,1,15)      =         0.003695	       0.211687
	 D(9,8,11,14)     =         0.075283	       4.313380
	 D(10,2,1,15)     =         3.109403	     178.155652
	 D(10,5,11,14)    =         3.115615	     178.511570
	 D(11,5,10,13)    =         3.134986	     179.621494
	 D(11,8,1,15)     =        -3.094954	    -177.327825
	 D(12,6,3,17)     =         3.111648	     178.284312
	 D(12,7,4,18)     =         3.132862	     179.499792
	 D(13,10,2,16)    =        -0.025716	      -1.473394
	 D(13,10,5,19)    =        -0.017978	      -1.030053
	 D(14,11,5,19)    =        -0.014492	      -0.830320
	 D(15,1,2,16)     =        -0.016850	      -0.965455
	 D(17,3,6,20)     =        -0.015063	      -0.863061
	 D(18,4,7,21)     =        -0.002673	      -0.153143
	 D(20,6,12,22)    =        -0.012565	      -0.719942
	 D(21,7,12,22)    =        -0.016125	      -0.923883
	 R(4,14)          =         5.165962	       2.733710

	Current energy   :      -652.8352911722

	Energy change for the previous step:
		Projected    :        -0.0000083219
		Actual       :         0.0000001839

	Performing BFGS update.
	Previous computed or guess Hessian on step 1.
	Steps to be used in Hessian update: 11 10
	Adding user-defined constraint: Fragment 1; Coordinate 62:
		Value =     0.258394; Fixed value    =     0.261800
		Force =     0.002640; Force constant =     0.775000
	Removing off-diagonal coupling between coordinate 62 and others.
	Taking RFO optimization step.
	Going to follow RFO solution 1.
	Using RFO vector 1.
	Norm of target step-size    0.00853
	Projected energy change by RFO approximation:        -0.0000038060

	Back-transformation to cartesian coordinates...
	Could not converge backtransformation.
	Using first guess instead.

	--- Internal Coordinate Step in ANG or DEG, aJ/ANG or AJ/DEG ---
	 ---------------------------------------------------------------------------
	   Coordinate                Previous        Force       Change         New 
	   ----------                --------       ------       ------       ------
	    1 R(1,2)          =      1.354322    -0.000077    -0.000044     1.354278
	    2 R(1,8)          =      1.430997    -0.000009     0.000007     1.431005
	    3 R(1,15)         =      1.078370     0.000009    -0.000007     1.078363
	    4 R(2,10)         =      1.450562     0.000049     0.000068     1.450630
	    5 R(2,16)         =      1.079409    -0.000017    -0.000004     1.079405
	    6 R(3,6)          =      1.356907    -0.000040    -0.000031     1.356876
	    7 R(3,9)          =      1.430388     0.000015     0.000039     1.430427
	    8 R(3,17)         =      1.075697    -0.000005    -0.000010     1.075686
	    9 R(4,7)          =      1.357917    -0.000133    -0.000027     1.357890
	   10 R(4,9)          =      1.430219     0.000091     0.000016     1.430234
	   11 R(4,18)         =      1.072964     0.000169     0.000061     1.073025
	   12 R(5,10)         =      1.445738     0.000080     0.000050     1.445789
	   13 R(5,11)         =      1.349538    -0.000127    -0.000062     1.349476
	   14 R(5,19)         =      1.077945     0.000019    -0.000005     1.077940
	   15 R(6,12)         =      1.357714     0.000014     0.000029     1.357742
	   16 R(6,20)         =      1.077457     0.000011     0.000003     1.077460
	   17 R(7,12)         =      1.357821     0.000138     0.000018     1.357839
	   18 R(7,21)         =      1.077477     0.000002     0.000001     1.077478
	   19 R(8,9)          =      1.397094     0.000019    -0.000034     1.397060
	   20 R(8,11)         =      1.424481     0.000152     0.000052     1.424532
	   21 R(10,13)        =      1.238004    -0.000095    -0.000029     1.237975
	   22 R(11,14)        =      1.357701    -0.000084     0.000025     1.357726
	   23 R(12,22)        =      1.004787    -0.000020    -0.000012     1.004775
	   24 B(1,2,10)       =    122.028116     0.000000     0.004794   122.032910
	   25 B(1,2,16)       =    120.818541    -0.000001     0.002281   120.820823
	   26 B(1,8,9)        =    120.965033    -0.000000     0.010139   120.975172
	   27 B(1,8,11)       =    113.910543    -0.000000    -0.002909   113.907634
	   28 B(2,1,8)        =    123.396107     0.000000    -0.002529   123.393578
	   29 B(2,1,15)       =    117.839080    -0.000000    -0.003703   117.835377
	   30 B(2,10,5)       =    114.694628    -0.000001    -0.003939   114.690689
	   31 B(2,10,13)      =    122.740079     0.000001     0.000820   122.740900
	   32 B(3,6,12)       =    120.754998    -0.000000    -0.001491   120.753507
	   33 B(3,6,20)       =    122.631203     0.000000    -0.000104   122.631099
	   34 B(3,9,4)        =    113.712382     0.000000    -0.004620   113.707762
	   35 B(3,9,8)        =    121.436213     0.000002     0.010627   121.446840
	   36 B(4,7,12)       =    121.180964    -0.000000     0.001227   121.182191
	   37 B(4,7,21)       =    122.350131     0.000000    -0.002912   122.347219
	   38 B(4,9,8)        =    124.841850    -0.000002    -0.005260   124.836590
	   39 B(5,10,13)      =    122.565290    -0.000000     0.002509   122.567800
	   40 B(5,11,8)       =    124.592873    -0.000000     0.006557   124.599430
	   41 B(5,11,14)      =    117.162701    -0.000000    -0.000608   117.162093
	   42 B(6,3,9)        =    122.435320    -0.000000     0.004567   122.439886
	   43 B(6,3,17)       =    116.676511     0.000000    -0.003668   116.672843
	   44 B(6,12,7)       =    119.930467     0.000000    -0.001243   119.929224
	   45 B(6,12,22)      =    120.034018    -0.000000     0.001192   120.035211
	   46 B(7,4,9)        =    121.966963     0.000000     0.002617   121.969581
	   47 B(7,4,18)       =    117.342388     0.000000    -0.004825   117.337563
	   48 B(7,12,22)      =    120.030759    -0.000000     0.000311   120.031070
	   49 B(8,1,15)       =    118.713018    -0.000000     0.003781   118.716799
	   50 B(8,11,14)      =    118.189179     0.000001    -0.004618   118.184561
	   51 B(9,3,17)       =    120.865252    -0.000000    -0.001775   120.863477
	   52 B(9,4,18)       =    120.672955    -0.000000     0.002231   120.675186
	   53 B(9,8,11)       =    125.073813     0.000000    -0.010209   125.063603
	   54 B(10,2,16)      =    117.147827     0.000001    -0.006822   117.141005
	   55 B(10,5,11)      =    121.364048     0.000001    -0.003132   121.360916
	   56 B(10,5,19)      =    118.805011    -0.000000    -0.002599   118.802412
	   57 B(11,5,19)      =    119.827746    -0.000000     0.005608   119.833354
	   58 B(12,6,20)      =    116.608664     0.000000     0.001240   116.609904
	   59 B(12,7,21)      =    116.468057    -0.000000     0.001750   116.469807
	   60 D(1,2,10,5)     =     -0.607409    -0.000001    -0.151550    -0.758959
	   61 D(1,2,10,13)    =    179.374841     0.000001     0.144348   179.519188
	   62 D(1,8,9,3)      =     14.804885    -0.000000    -0.002354    14.802531
	   63 D(1,8,9,4)      =   -166.391577     0.000000     0.045277  -166.346300
	   64 D(1,8,11,5)     =     -1.050789    -0.000000    -0.041965    -1.092754
	   65 D(1,8,11,14)    =   -178.264643    -0.000000    -0.075661  -178.340304
	   66 D(2,1,8,9)      =    177.534517    -0.000000    -0.053281   177.481235
	   67 D(2,1,8,11)     =     -0.004996     0.000000     0.018357     0.013362
	   68 D(2,10,5,11)    =     -0.396222     0.000001     0.128399    -0.267823
	   69 D(2,10,5,19)    =    178.952232     0.000001     0.116057   179.068288
	   70 D(3,6,12,7)     =     -0.709862    -0.000000     0.036228    -0.673634
	   71 D(3,6,12,22)    =   -179.916838     0.000000     0.014206  -179.902632
	   72 D(3,9,4,7)      =     -1.589323    -0.000000     0.038399    -1.550924
	   73 D(3,9,4,18)     =    179.981726    -0.000000     0.037448   180.019174
	   74 D(3,9,8,11)     =   -167.943727    -0.000000    -0.082104  -168.025831
	   75 D(4,7,12,6)     =      0.196644     0.000000    -0.037104     0.159540
	   76 D(4,7,12,22)    =    179.403646    -0.000000    -0.015076   179.388570
	   77 D(4,9,3,6)      =      1.083951     0.000000    -0.039328     1.044623
	   78 D(4,9,3,17)     =   -177.116331     0.000000    -0.005196  -177.121526
	   79 D(4,9,8,11)     =     10.859810    -0.000000    -0.034473    10.825337
	   80 D(5,10,2,16)    =    178.544357    -0.000001    -0.131839   178.412518
	   81 D(5,11,8,9)     =   -178.472765    -0.000000     0.032486  -178.440279
	   82 D(6,3,9,8)      =   -179.988555     0.000000     0.003337  -179.985218
	   83 D(6,12,7,21)    =    179.869115     0.000000    -0.024171   179.844944
	   84 D(7,4,9,8)      =    179.525645    -0.000000    -0.006146   179.519499
	   85 D(7,12,6,20)    =    178.487035    -0.000000     0.008891   178.495926
	   86 D(8,1,2,10)     =      0.810931     0.000000     0.082229     0.893160
	   87 D(8,1,2,16)     =   -178.310176     0.000000     0.061878  -178.248298
	   88 D(8,9,3,17)     =      1.811163     0.000000     0.037470     1.848633
	   89 D(8,9,4,18)     =      1.096694    -0.000000    -0.007098     1.089596
	   90 D(8,11,5,10)    =      1.271638    -0.000000    -0.035827     1.235811
	   91 D(8,11,5,19)    =   -178.070251    -0.000000    -0.023305  -178.093557
	   92 D(9,3,6,12)     =      0.013153    -0.000000     0.003692     0.016846
	   93 D(9,3,6,20)     =   -179.134220     0.000000     0.032704  -179.101516
	   94 D(9,4,7,12)     =      1.020982    -0.000000    -0.002012     1.018970
	   95 D(9,4,7,21)     =   -178.631954    -0.000000    -0.015731  -178.647685
	   96 D(9,8,1,15)     =      0.211687     0.000000     0.009377     0.221063
	   97 D(9,8,11,14)    =      4.313380    -0.000000    -0.001210     4.312171
	   98 D(10,2,1,15)    =    178.155652     0.000000     0.020275   178.175928
	   99 D(10,5,11,14)   =    178.511570    -0.000000    -0.002550   178.509020
	  100 D(11,5,10,13)   =    179.621494    -0.000001    -0.166926   179.454568
	  101 D(11,8,1,15)    =   -177.327825     0.000000     0.081015  -177.246810
	  102 D(12,6,3,17)    =    178.284312    -0.000000    -0.029071   178.255241
	  103 D(12,7,4,18)    =    179.499792     0.000000    -0.000989   179.498804
	  104 D(13,10,2,16)   =     -1.473394     0.000001     0.164059    -1.309334
	  105 D(13,10,5,19)   =     -1.030053    -0.000001    -0.179269    -1.209321
	  106 D(14,11,5,19)   =     -0.830320    -0.000000     0.009972    -0.820348
	  107 D(15,1,2,16)    =     -0.965455     0.000000    -0.000076    -0.965530
	  108 D(17,3,6,20)    =     -0.863061    -0.000000    -0.000060    -0.863121
	  109 D(18,4,7,21)    =     -0.153143    -0.000000    -0.014708    -0.167851
	  110 D(20,6,12,22)   =     -0.719942    -0.000000    -0.013130    -0.733072
	  111 D(21,7,12,22)   =     -0.923883    -0.000000    -0.002144    -0.926026
	  112 R(4,14)         =      2.733710    -0.000181    -0.000718     2.732991
	 ---------------------------------------------------------------------------
	Successfully symmetrized geometry.
	 Forces used to impose fixed constraints are not included.
	  Forces zeroed: 62 

  ==> Convergence Check <==

  Measures of convergence in internal coordinates in au.
  Criteria marked as inactive (o), active & met (*), and active & unmet ( ).
  ---------------------------------------------------------------------------------------------
   Step     Total Energy     Delta E     MAX Force     RMS Force      MAX Disp      RMS Disp   
  ---------------------------------------------------------------------------------------------
    Convergence Criteria    1.00e-06 *    3.00e-04 *             o    1.20e-03 *             o
  ---------------------------------------------------------------------------------------------
     12    -652.83529117    1.84e-07 *    4.98e-05 *    1.40e-05 o    3.13e-03      8.06e-04 o  ~
  ---------------------------------------------------------------------------------------------


  **** Optimization is complete! (in 12 steps) ****

  ==> Optimization Summary <==

  Measures of convergence in internal coordinates in au.
  --------------------------------------------------------------------------------------------------------------- ~
   Step         Total Energy             Delta E       MAX Force       RMS Force        MAX Disp        RMS Disp  ~
  --------------------------------------------------------------------------------------------------------------- ~
      1    -652.811719730651   -652.811719730651      0.03301781      0.01024876      0.02873329      0.00944752  ~
      2    -652.820992248091     -0.009272517439      0.02270821      0.00744912      0.02695783      0.00944736  ~
      3    -652.827500028068     -0.006507779977      0.01437260      0.00492907      0.03918656      0.00944815  ~
      4    -652.831553491653     -0.004053463585      0.01176985      0.00284159      0.06037251      0.00945243  ~
      5    -652.833702701576     -0.002149209923      0.00871562      0.00137486      0.08004873      0.00945888  ~
      6    -652.834690226525     -0.000987524949      0.00525488      0.00064572      0.08013993      0.00946948  ~
      7    -652.835144645889     -0.000454419364      0.00234193      0.00029908      0.06296866      0.00876791  ~
      8    -652.835288864098     -0.000144218209      0.00046292      0.00012697      0.01479052      0.00248548  ~
      9    -652.835295460124     -0.000006596027      0.00027513      0.00005842      0.00397961      0.00127156  ~
     10    -652.835294341923      0.000001118201      0.00016384      0.00003432      0.00341129      0.00086292  ~
     11    -652.835291356033      0.000002985891      0.00007709      0.00002130      0.00279532      0.00069436  ~
     12    -652.835291172164      0.000000183869      0.00004984      0.00001399      0.00312883      0.00080580  ~
  --------------------------------------------------------------------------------------------------------------- ~

	Writing optimization data to binary file.
	Final energy is   -652.8352911721643
	Final (previous) structure:
	Cartesian Geometry (in Angstrom)
	    C    -1.3287378330   0.7991932948  -0.7543514766
	    C    -2.4130493583   1.3487107794  -0.1572867708
	    C     1.0520216842  -0.1708336638  -2.0890194173
	    C     1.7653656304  -1.2946022185  -0.0977354128
	    C    -1.4943290628   0.7392754151   2.0178266870
	    C     2.0854710395  -0.7391553182  -2.7599801524
	    C     2.7802548803  -1.8504794872  -0.8083262201
	    C    -0.2621483930   0.1768937624  -0.0312451281
	    C     0.8087674811  -0.4194876177  -0.7015728983
	    C    -2.5719768960   1.3645757526   1.2844552989
	    C    -0.4406580222   0.1854444919   1.3819802413
	    N     2.9437174515  -1.5810258370  -2.1290654854
	    O    -3.5519733629   1.8731401991   1.8444751431
	    F     0.5378663937  -0.3510548405   2.1552919110
	    H    -1.2941366510   0.7974148869  -1.8321648018
	    H    -3.2069151213   1.7838580609  -0.7451194242
	    H     0.4297016254   0.5075357523  -2.6454870519
	    H     1.6891087587  -1.5564858145   0.9399806065
	    H    -1.5364937075   0.7289718974   3.0948970877
	    H     2.2796555525  -0.5435035909  -3.8015780359
	    H     3.4915341780  -2.5273996027  -0.3646839334
	    H     3.7060904882  -1.9948829839  -2.6361229391
	Saving final (previous) structure.
			--------------------------
			 OPTKING Finished Execution 
			--------------------------

    Final optimized geometry and variables:
    Molecular point group: c1
    Full point group: C1

    Geometry (in Angstrom), charge = 0, multiplicity = 1:

    C           -1.328737832955     0.799193294806    -0.754351476569
    C           -2.413049358265     1.348710779390    -0.157286770827
    C            1.052021684170    -0.170833663821    -2.089019417264
    C            1.765365630353    -1.294602218503    -0.097735412807
    C           -1.494329062776     0.739275415090     2.017826686961
    C            2.085471039490    -0.739155318221    -2.759980152387
    C            2.780254880296    -1.850479487248    -0.808326220075
    C           -0.262148392958     0.176893762409    -0.031245128091
    C            0.808767481139    -0.419487617720    -0.701572898323
    C           -2.571976895998     1.364575752570     1.284455298909
    C           -0.440658022236     0.185444491868     1.381980241273
    N            2.943717451474    -1.581025836987    -2.129065485440
    O           -3.551973362891     1.873140199086     1.844475143099
    F            0.537866393710    -0.351054840527     2.155291910952
    H           -1.294136651038     0.797414886930    -1.832164801771
    H           -3.206915121344     1.783858060948    -0.745119424191
    H            0.429701625369     0.507535752310    -2.645487051897
    H            1.689108758711    -1.556485814468     0.939980606524
    H           -1.536493707454     0.728971897385     3.094897087736
    H            2.279655552453    -0.543503590862    -3.801578035880
    H            3.491534178031    -2.527399602685    -0.364683933414
    H            3.706090488208    -1.994882983881    -2.636122939081

	Cleaning optimization helper files.

*** Psi4 exiting successfully. Buy a developer a beer!
