
    -----------------------------------------------------------------------
          Psi4: An Open-Source Ab Initio Electronic Structure Package
                               Psi4 1.1 release

                         Git: Rev {HEAD} add49b9 


    R. M. Parrish, L. A. Burns, D. G. A. Smith, A. C. Simmonett,
    A. E. DePrince III, E. G. Hohenstein, U. Bozkaya, A. Yu. Sokolov,
    R. Di Remigio, R. M. Richard, J. F. Gonthier, A. M. James,
    H. R. McAlexander, A. Kumar, M. Saitow, X. Wang, B. P. Pritchard,
    P. Verma, H. F. Schaefer III, K. Patkowski, R. A. King, E. F. Valeev,
    F. A. Evangelista, J. M. Turney, T. D. Crawford, and C. D. Sherrill,
    J. Chem. Theory Comput. in press (2017).
    (doi: 10.1021/acs.jctc.7b00174)

    -----------------------------------------------------------------------


    Psi4 started on: Sunday, 12 November 2017 12:48AM

    Process ID:  30177
    PSIDATADIR: /cbio/jclab/home/chayas/anaconda/envs/py35/share/psi4
    Memory:     500.0 MiB
    Threads:    8
    
  ==> Input File <==

--------------------------------------------------------------------------

memory 5 Gb

molecule phepyrFOH_zwitterion {
  symmetry C1
  0 1 
  C      1.885   -1.036   -0.112
  C      0.807   -0.463   0.561
  C      5.298   -2.250   0.495
  C      3.854   -2.769   -1.362
  C      1.800   -1.079   2.676
  C      6.351   -2.825   -0.203
  C      4.943   -3.331   -2.013
  C      2.921   -1.631   0.608
  C      4.038   -2.224   -0.095
  C      0.764   -0.484   1.955
  C      2.878   -1.652   2.002
  N      6.146   -3.342   -1.422
  O      -0.227   0.043   2.574
  F      3.866   -2.220   2.709
  H      1.904   -1.013   -1.200
  H      0.011   -0.007   -0.025
  H      5.470   -1.832   1.483
  H      2.882   -2.762   -1.847
  H      1.791   -1.109   3.764
  H      7.361   -2.890   0.177
  H      4.894   -3.777   -2.997
  H      6.933   -3.759   -1.917
  units Angstrom
}

dih_string = "1 8 9 3 150"
set optking fixed_dihedral = $dih_string

optimize('MP2/aug-cc-PVTZ')
--------------------------------------------------------------------------

  Memory set to   4.657 GiB by Python driver.
gradient() will perform analytic gradient computation.

*** tstart() called on gpu-1-6.local
*** at Sun Nov 12 00:48:52 2017

    SCF Algorithm Type (re)set to DF.

*** tstart() called on gpu-1-6.local
*** at Sun Nov 12 00:48:52 2017

   => Loading Basis Set <=

    Name: AUG-CC-PVTZ
    Role: ORBITAL
    Keyword: BASIS
    atoms 1-11  entry C          line   221 file /cbio/jclab/home/chayas/anaconda/envs/py35/share/psi4/basis/aug-cc-pvtz.gbs 
    atoms 12    entry N          line   267 file /cbio/jclab/home/chayas/anaconda/envs/py35/share/psi4/basis/aug-cc-pvtz.gbs 
    atoms 13    entry O          line   313 file /cbio/jclab/home/chayas/anaconda/envs/py35/share/psi4/basis/aug-cc-pvtz.gbs 
    atoms 14    entry F          line   359 file /cbio/jclab/home/chayas/anaconda/envs/py35/share/psi4/basis/aug-cc-pvtz.gbs 
    atoms 15-22 entry H          line    34 file /cbio/jclab/home/chayas/anaconda/envs/py35/share/psi4/basis/aug-cc-pvtz.gbs 


         ---------------------------------------------------------
                                   SCF
            by Justin Turney, Rob Parrish, and Andy Simmonett
                              RHF Reference
                        8 Threads,   4768 MiB Core
         ---------------------------------------------------------

  ==> Geometry <==

    Molecular point group: c1
    Full point group: C1

    Geometry (in Angstrom), charge = 0, multiplicity = 1:

       Center              X                  Y                   Z               Mass       
    ------------   -----------------  -----------------  -----------------  -----------------
           C         -1.361808671709     0.775594015256    -0.769398858493    12.000000000000
           C         -2.439808671709     1.348594015256    -0.096398858493    12.000000000000
           C          2.051191328291    -0.438405984744    -0.162398858493    12.000000000000
           C          0.607191328291    -0.957405984744    -2.019398858493    12.000000000000
           C         -1.446808671709     0.732594015256     2.018601141507    12.000000000000
           C          3.104191328291    -1.013405984744    -0.860398858493    12.000000000000
           C          1.696191328291    -1.519405984744    -2.670398858493    12.000000000000
           C         -0.325808671709     0.180594015256    -0.049398858493    12.000000000000
           C          0.791191328291    -0.412405984744    -0.752398858493    12.000000000000
           C         -2.482808671709     1.327594015256     1.297601141507    12.000000000000
           C         -0.368808671709     0.159594015256     1.344601141507    12.000000000000
           N          2.899191328291    -1.530405984744    -2.079398858493    14.003074004780
           O         -3.473808671709     1.854594015256     1.916601141507    15.994914619560
           F          0.619191328291    -0.408405984744     2.051601141507    18.998403224000
           H         -1.342808671709     0.798594015256    -1.857398858493     1.007825032070
           H         -3.235808671709     1.804594015256    -0.682398858493     1.007825032070
           H          2.223191328291    -0.020405984744     0.825601141507     1.007825032070
           H         -0.364808671709    -0.950405984744    -2.504398858493     1.007825032070
           H         -1.455808671709     0.702594015256     3.106601141507     1.007825032070
           H          4.114191328291    -1.078405984744    -0.480398858493     1.007825032070
           H          1.647191328291    -1.965405984744    -3.654398858493     1.007825032070
           H          3.686191328291    -1.947405984744    -2.574398858493     1.007825032070

  Running in c1 symmetry.

  Rotational constants: A =      0.06297  B =      0.01366  C =      0.01146 [cm^-1]
  Rotational constants: A =   1887.79098  B =    409.57909  C =    343.63660 [MHz]
  Nuclear repulsion =  819.543233164013600

  Charge       = 0
  Multiplicity = 1
  Electrons    = 98
  Nalpha       = 49
  Nbeta        = 49

  ==> Algorithm <==

  SCF Algorithm Type is DF.
  DIIS enabled.
  MOM disabled.
  Fractional occupation disabled.
  Guess Type is SAD.
  Energy threshold   = 1.00e-10
  Density threshold  = 1.00e-10
  Integral threshold = 0.00e+00

  ==> Primary Basis <==

  Basis Set: AUG-CC-PVTZ
    Blend: AUG-CC-PVTZ
    Number of shells: 268
    Number of basis function: 828
    Number of Cartesian functions: 970
    Spherical Harmonics?: true
    Max angular momentum: 3

   => Loading Basis Set <=

    Name: (AUG-CC-PVTZ AUX)
    Role: JKFIT
    Keyword: DF_BASIS_SCF
    atoms 1-11  entry C          line   161 file /cbio/jclab/home/chayas/anaconda/envs/py35/share/psi4/basis/aug-cc-pvtz-jkfit.gbs 
    atoms 12    entry N          line   223 file /cbio/jclab/home/chayas/anaconda/envs/py35/share/psi4/basis/aug-cc-pvtz-jkfit.gbs 
    atoms 13    entry O          line   285 file /cbio/jclab/home/chayas/anaconda/envs/py35/share/psi4/basis/aug-cc-pvtz-jkfit.gbs 
    atoms 14    entry F          line   347 file /cbio/jclab/home/chayas/anaconda/envs/py35/share/psi4/basis/aug-cc-pvtz-jkfit.gbs 
    atoms 15-22 entry H          line    69 file /cbio/jclab/home/chayas/anaconda/envs/py35/share/psi4/basis/aug-cc-pvtz-jkfit.gbs 

  ==> Pre-Iterations <==

   -------------------------------------------------------
    Irrep   Nso     Nmo     Nalpha   Nbeta   Ndocc  Nsocc
   -------------------------------------------------------
     A        828     828       0       0       0       0
   -------------------------------------------------------
    Total     828     828      49      49      49       0
   -------------------------------------------------------

  ==> Integral Setup <==

  ==> DFJK: Density-Fitted J/K Matrices <==

    J tasked:                  Yes
    K tasked:                  Yes
    wK tasked:                  No
    OpenMP threads:              8
    Integrals threads:           8
    Memory (MB):              3576
    Algorithm:                Disk
    Integral Cache:           NONE
    Schwarz Cutoff:          1E-12
    Fitting Condition:       1E-12

   => Auxiliary Basis Set <=

  Basis Set: (AUG-CC-PVTZ AUX)
    Blend: AUG-CC-PVTZ-JKFIT
    Number of shells: 532
    Number of basis function: 1824
    Number of Cartesian functions: 2274
    Spherical Harmonics?: true
    Max angular momentum: 4

  Minimum eigenvalue in the overlap matrix is 6.9066685949E-07.
  Using Symmetric Orthogonalization.

  SCF Guess: Superposition of Atomic Densities via on-the-fly atomic UHF.

  ==> Iterations <==

                           Total Energy        Delta E     RMS |[F,P]|

   @DF-RHF iter   0:  -655.90529206468341   -6.55905e+02   2.31843e-02 
   @DF-RHF iter   1:  -649.62371077374826    6.28158e+00   2.32140e-03 
   @DF-RHF iter   2:  -649.93430233838217   -3.10592e-01   1.77950e-03 DIIS
   @DF-RHF iter   3:  -650.07724672021811   -1.42944e-01   6.61635e-04 DIIS
   @DF-RHF iter   4:  -650.10238238798343   -2.51357e-02   1.48358e-04 DIIS
   @DF-RHF iter   5:  -650.10491133204619   -2.52894e-03   7.11053e-05 DIIS
   @DF-RHF iter   6:  -650.10552244874009   -6.11117e-04   2.70063e-05 DIIS
   @DF-RHF iter   7:  -650.10568562667561   -1.63178e-04   1.45818e-05 DIIS
   @DF-RHF iter   8:  -650.10571614714502   -3.05205e-05   5.28109e-06 DIIS
   @DF-RHF iter   9:  -650.10572361143772   -7.46429e-06   2.74639e-06 DIIS
   @DF-RHF iter  10:  -650.10572533343850   -1.72200e-06   1.18403e-06 DIIS
   @DF-RHF iter  11:  -650.10572569778753   -3.64349e-07   5.53843e-07 DIIS
   @DF-RHF iter  12:  -650.10572574774835   -4.99608e-08   2.37898e-07 DIIS
   @DF-RHF iter  13:  -650.10572575792742   -1.01791e-08   8.36671e-08 DIIS
   @DF-RHF iter  14:  -650.10572575956189   -1.63448e-09   4.41083e-08 DIIS
   @DF-RHF iter  15:  -650.10572575985566   -2.93767e-10   1.05344e-08 DIIS
   @DF-RHF iter  16:  -650.10572575987476   -1.90994e-11   5.08799e-09 DIIS
   @DF-RHF iter  17:  -650.10572575987590   -1.13687e-12   1.47777e-09 DIIS
   @DF-RHF iter  18:  -650.10572575987453    1.36424e-12   6.88536e-10 DIIS
   @DF-RHF iter  19:  -650.10572575988169   -7.16227e-12   3.22072e-10 DIIS
   @DF-RHF iter  20:  -650.10572575987453    7.16227e-12   1.42369e-10 DIIS
   @DF-RHF iter  21:  -650.10572575990921   -3.46745e-11   5.84896e-11 DIIS

  ==> Post-Iterations <==

    Orbital Energies (a.u.)
    -----------------------

    Doubly Occupied:                                                      

       1A    -26.314391     2A    -20.435332     3A    -15.702423  
       4A    -11.360429     5A    -11.356573     6A    -11.322404  
       7A    -11.312498     8A    -11.289246     9A    -11.283721  
      10A    -11.252817    11A    -11.237806    12A    -11.224187  
      13A    -11.193137    14A    -11.192068    15A     -1.636040  
      16A     -1.386255    17A     -1.260534    18A     -1.184784  
      19A     -1.116822    20A     -1.112158    21A     -1.003779  
      22A     -0.998740    23A     -0.942715    24A     -0.910131  
      25A     -0.840283    26A     -0.834485    27A     -0.809994  
      28A     -0.748063    29A     -0.733166    30A     -0.718406  
      31A     -0.702830    32A     -0.688769    33A     -0.679999  
      34A     -0.661647    35A     -0.654296    36A     -0.614247  
      37A     -0.606625    38A     -0.593610    39A     -0.571646  
      40A     -0.540378    41A     -0.520440    42A     -0.503022  
      43A     -0.483040    44A     -0.470617    45A     -0.419422  
      46A     -0.396318    47A     -0.348671    48A     -0.326633  
      49A     -0.241482  

    Virtual:                                                              

      50A     -0.008855    51A      0.011043    52A      0.018088  
      53A      0.024098    54A      0.037792    55A      0.039828  
      56A      0.044544    57A      0.055208    58A      0.055709  
      59A      0.061556    60A      0.061894    61A      0.068771  
      62A      0.070059    63A      0.079321    64A      0.083470  
      65A      0.093927    66A      0.099170    67A      0.103304  
      68A      0.106740    69A      0.108013    70A      0.117502  
      71A      0.120132    72A      0.122304    73A      0.128072  
      74A      0.129699    75A      0.133858    76A      0.137218  
      77A      0.142178    78A      0.148495    79A      0.151062  
      80A      0.152281    81A      0.158712    82A      0.163592  
      83A      0.166528    84A      0.168087    85A      0.172276  
      86A      0.178658    87A      0.180135    88A      0.184269  
      89A      0.186151    90A      0.195379    91A      0.196372  
      92A      0.205224    93A      0.207401    94A      0.211672  
      95A      0.212337    96A      0.220156    97A      0.224658  
      98A      0.227514    99A      0.230358   100A      0.232767  
     101A      0.240323   102A      0.248236   103A      0.250483  
     104A      0.252756   105A      0.256236   106A      0.257723  
     107A      0.265100   108A      0.268187   109A      0.277200  
     110A      0.279637   111A      0.288420   112A      0.290097  
     113A      0.293176   114A      0.296766   115A      0.299283  
     116A      0.300495   117A      0.307923   118A      0.308359  
     119A      0.319298   120A      0.322281   121A      0.324686  
     122A      0.329844   123A      0.334470   124A      0.337130  
     125A      0.342178   126A      0.344815   127A      0.350428  
     128A      0.352741   129A      0.354380   130A      0.360534  
     131A      0.364037   132A      0.368538   133A      0.376282  
     134A      0.378758   135A      0.383311   136A      0.386261  
     137A      0.391538   138A      0.396497   139A      0.400647  
     140A      0.403138   141A      0.412960   142A      0.417273  
     143A      0.420199   144A      0.424345   145A      0.432073  
     146A      0.434155   147A      0.439573   148A      0.445061  
     149A      0.447981   150A      0.448953   151A      0.452102  
     152A      0.458783   153A      0.461647   154A      0.463654  
     155A      0.468475   156A      0.470117   157A      0.477110  
     158A      0.480957   159A      0.484334   160A      0.485331  
     161A      0.489021   162A      0.492075   163A      0.492646  
     164A      0.500236   165A      0.504517   166A      0.505289  
     167A      0.509501   168A      0.510504   169A      0.517837  
     170A      0.522148   171A      0.523926   172A      0.529826  
     173A      0.532650   174A      0.539652   175A      0.543942  
     176A      0.549935   177A      0.554698   178A      0.556857  
     179A      0.564440   180A      0.565897   181A      0.575597  
     182A      0.577971   183A      0.588590   184A      0.592983  
     185A      0.597832   186A      0.605067   187A      0.607194  
     188A      0.613550   189A      0.619148   190A      0.620911  
     191A      0.630832   192A      0.638085   193A      0.647336  
     194A      0.651097   195A      0.653233   196A      0.660902  
     197A      0.669289   198A      0.675400   199A      0.679952  
     200A      0.680863   201A      0.687640   202A      0.695362  
     203A      0.698982   204A      0.704747   205A      0.706042  
     206A      0.721078   207A      0.725372   208A      0.726278  
     209A      0.729819   210A      0.733842   211A      0.738410  
     212A      0.744508   213A      0.746864   214A      0.750581  
     215A      0.767593   216A      0.767732   217A      0.773637  
     218A      0.776675   219A      0.784702   220A      0.792640  
     221A      0.798360   222A      0.806789   223A      0.812452  
     224A      0.818096   225A      0.821992   226A      0.831560  
     227A      0.836180   228A      0.843612   229A      0.852249  
     230A      0.857697   231A      0.865188   232A      0.867859  
     233A      0.872299   234A      0.872707   235A      0.878148  
     236A      0.890675   237A      0.893356   238A      0.894143  
     239A      0.897670   240A      0.901896   241A      0.911615  
     242A      0.916015   243A      0.918937   244A      0.921731  
     245A      0.923724   246A      0.930756   247A      0.935393  
     248A      0.940005   249A      0.947508   250A      0.953435  
     251A      0.954983   252A      0.962297   253A      0.966710  
     254A      0.967601   255A      0.973624   256A      0.978301  
     257A      0.982447   258A      0.988705   259A      0.991657  
     260A      0.997416   261A      1.004460   262A      1.009871  
     263A      1.012463   264A      1.015993   265A      1.019721  
     266A      1.024055   267A      1.028150   268A      1.032879  
     269A      1.035628   270A      1.039792   271A      1.043503  
     272A      1.047810   273A      1.054329   274A      1.056884  
     275A      1.062246   276A      1.068256   277A      1.071072  
     278A      1.075166   279A      1.083466   280A      1.086385  
     281A      1.089224   282A      1.096523   283A      1.102290  
     284A      1.106912   285A      1.114166   286A      1.116525  
     287A      1.119044   288A      1.126210   289A      1.132960  
     290A      1.140912   291A      1.146839   292A      1.151950  
     293A      1.156765   294A      1.157215   295A      1.161492  
     296A      1.168142   297A      1.176225   298A      1.177175  
     299A      1.181771   300A      1.185668   301A      1.188225  
     302A      1.198371   303A      1.204879   304A      1.206288  
     305A      1.209164   306A      1.214215   307A      1.217863  
     308A      1.225874   309A      1.227367   310A      1.235378  
     311A      1.241236   312A      1.243483   313A      1.251992  
     314A      1.258951   315A      1.263344   316A      1.271889  
     317A      1.277089   318A      1.279558   319A      1.284702  
     320A      1.287062   321A      1.294455   322A      1.309243  
     323A      1.314586   324A      1.325122   325A      1.338312  
     326A      1.342427   327A      1.349249   328A      1.352023  
     329A      1.354629   330A      1.354787   331A      1.367720  
     332A      1.372159   333A      1.375433   334A      1.384771  
     335A      1.393607   336A      1.398464   337A      1.411750  
     338A      1.420837   339A      1.424876   340A      1.433982  
     341A      1.436115   342A      1.446023   343A      1.452370  
     344A      1.455368   345A      1.465382   346A      1.472940  
     347A      1.482771   348A      1.487757   349A      1.494361  
     350A      1.501539   351A      1.508923   352A      1.514959  
     353A      1.519630   354A      1.526216   355A      1.529318  
     356A      1.539598   357A      1.546641   358A      1.557718  
     359A      1.564159   360A      1.570692   361A      1.578611  
     362A      1.598541   363A      1.602188   364A      1.607502  
     365A      1.618440   366A      1.625945   367A      1.634963  
     368A      1.636880   369A      1.648165   370A      1.652329  
     371A      1.659056   372A      1.668311   373A      1.674713  
     374A      1.678020   375A      1.689905   376A      1.694676  
     377A      1.711711   378A      1.718323   379A      1.723285  
     380A      1.734644   381A      1.739095   382A      1.747099  
     383A      1.764887   384A      1.775788   385A      1.777837  
     386A      1.789617   387A      1.797442   388A      1.802592  
     389A      1.805213   390A      1.809914   391A      1.822577  
     392A      1.827982   393A      1.831593   394A      1.836484  
     395A      1.850468   396A      1.858668   397A      1.872006  
     398A      1.872789   399A      1.885121   400A      1.886193  
     401A      1.904381   402A      1.917009   403A      1.928960  
     404A      1.931741   405A      1.937409   406A      1.949370  
     407A      1.953896   408A      1.962853   409A      1.968191  
     410A      1.978428   411A      1.982280   412A      1.985292  
     413A      1.998853   414A      2.004901   415A      2.010531  
     416A      2.013414   417A      2.021876   418A      2.031455  
     419A      2.032233   420A      2.039245   421A      2.051476  
     422A      2.061245   423A      2.064266   424A      2.066280  
     425A      2.073985   426A      2.085844   427A      2.088553  
     428A      2.089880   429A      2.100463   430A      2.107522  
     431A      2.116961   432A      2.127253   433A      2.134158  
     434A      2.151903   435A      2.157618   436A      2.164168  
     437A      2.179465   438A      2.183466   439A      2.194978  
     440A      2.199020   441A      2.207535   442A      2.212182  
     443A      2.225661   444A      2.230373   445A      2.242247  
     446A      2.251617   447A      2.277012   448A      2.293594  
     449A      2.302461   450A      2.309520   451A      2.312391  
     452A      2.319470   453A      2.331325   454A      2.341805  
     455A      2.350014   456A      2.361778   457A      2.371610  
     458A      2.376160   459A      2.381837   460A      2.390892  
     461A      2.395211   462A      2.410061   463A      2.432574  
     464A      2.440523   465A      2.449116   466A      2.458418  
     467A      2.471033   468A      2.473874   469A      2.484443  
     470A      2.496733   471A      2.505100   472A      2.516704  
     473A      2.521106   474A      2.541973   475A      2.547216  
     476A      2.551939   477A      2.558843   478A      2.571151  
     479A      2.573278   480A      2.585443   481A      2.619563  
     482A      2.633642   483A      2.643338   484A      2.647967  
     485A      2.662638   486A      2.674180   487A      2.686212  
     488A      2.710523   489A      2.720860   490A      2.726330  
     491A      2.745572   492A      2.753701   493A      2.774959  
     494A      2.779682   495A      2.796687   496A      2.828653  
     497A      2.844098   498A      2.857159   499A      2.879749  
     500A      2.901264   501A      2.912245   502A      2.916954  
     503A      2.947895   504A      2.966827   505A      2.976985  
     506A      2.999714   507A      3.028580   508A      3.033229  
     509A      3.050497   510A      3.073457   511A      3.082217  
     512A      3.100784   513A      3.102026   514A      3.111299  
     515A      3.146856   516A      3.153482   517A      3.168613  
     518A      3.175955   519A      3.184392   520A      3.194962  
     521A      3.221246   522A      3.227222   523A      3.242018  
     524A      3.261742   525A      3.267083   526A      3.288347  
     527A      3.297565   528A      3.314439   529A      3.322694  
     530A      3.327301   531A      3.336018   532A      3.341058  
     533A      3.353539   534A      3.373059   535A      3.381829  
     536A      3.384069   537A      3.392512   538A      3.401457  
     539A      3.419213   540A      3.421475   541A      3.437855  
     542A      3.449431   543A      3.456953   544A      3.471575  
     545A      3.483662   546A      3.492065   547A      3.494956  
     548A      3.504727   549A      3.510300   550A      3.514306  
     551A      3.530331   552A      3.536097   553A      3.543116  
     554A      3.549836   555A      3.558053   556A      3.570208  
     557A      3.577880   558A      3.585331   559A      3.595901  
     560A      3.602206   561A      3.620114   562A      3.630079  
     563A      3.637536   564A      3.651883   565A      3.655411  
     566A      3.662987   567A      3.670933   568A      3.672878  
     569A      3.678351   570A      3.700876   571A      3.703827  
     572A      3.712016   573A      3.715361   574A      3.726411  
     575A      3.743929   576A      3.753693   577A      3.763339  
     578A      3.776693   579A      3.779710   580A      3.790919  
     581A      3.803363   582A      3.808493   583A      3.812153  
     584A      3.816059   585A      3.828992   586A      3.834063  
     587A      3.850004   588A      3.852389   589A      3.859901  
     590A      3.875877   591A      3.887652   592A      3.890902  
     593A      3.895319   594A      3.909690   595A      3.915472  
     596A      3.919437   597A      3.934137   598A      3.934422  
     599A      3.943173   600A      3.965417   601A      3.968229  
     602A      3.977905   603A      3.982650   604A      3.985308  
     605A      3.995582   606A      4.004832   607A      4.012413  
     608A      4.018427   609A      4.029743   610A      4.033114  
     611A      4.036559   612A      4.051681   613A      4.070885  
     614A      4.076289   615A      4.082885   616A      4.089541  
     617A      4.103251   618A      4.115970   619A      4.123603  
     620A      4.128807   621A      4.149153   622A      4.162426  
     623A      4.167017   624A      4.181129   625A      4.190446  
     626A      4.208855   627A      4.217616   628A      4.218539  
     629A      4.222738   630A      4.237090   631A      4.241126  
     632A      4.248248   633A      4.252638   634A      4.266464  
     635A      4.280672   636A      4.288659   637A      4.298720  
     638A      4.306363   639A      4.308529   640A      4.321684  
     641A      4.327966   642A      4.341405   643A      4.348513  
     644A      4.355017   645A      4.359479   646A      4.367584  
     647A      4.378926   648A      4.384750   649A      4.390580  
     650A      4.392319   651A      4.400782   652A      4.413903  
     653A      4.415681   654A      4.433209   655A      4.443930  
     656A      4.447325   657A      4.459642   658A      4.476213  
     659A      4.493095   660A      4.500165   661A      4.504352  
     662A      4.522319   663A      4.530589   664A      4.536411  
     665A      4.538565   666A      4.553861   667A      4.567823  
     668A      4.586456   669A      4.606819   670A      4.625773  
     671A      4.629535   672A      4.643190   673A      4.657828  
     674A      4.667138   675A      4.685940   676A      4.697868  
     677A      4.715215   678A      4.732648   679A      4.740209  
     680A      4.756831   681A      4.766975   682A      4.778304  
     683A      4.783708   684A      4.791466   685A      4.800530  
     686A      4.813057   687A      4.826939   688A      4.858721  
     689A      4.873726   690A      4.882953   691A      4.891129  
     692A      4.895040   693A      4.916596   694A      4.922887  
     695A      4.942060   696A      4.950967   697A      4.954825  
     698A      4.961874   699A      4.974093   700A      5.006170  
     701A      5.030566   702A      5.036257   703A      5.039935  
     704A      5.052383   705A      5.061338   706A      5.082414  
     707A      5.085294   708A      5.093690   709A      5.115198  
     710A      5.135263   711A      5.138906   712A      5.149616  
     713A      5.160316   714A      5.175860   715A      5.184346  
     716A      5.196333   717A      5.206864   718A      5.229590  
     719A      5.237135   720A      5.248101   721A      5.266921  
     722A      5.284023   723A      5.292984   724A      5.312955  
     725A      5.323379   726A      5.331817   727A      5.349360  
     728A      5.385940   729A      5.394101   730A      5.400146  
     731A      5.407008   732A      5.434368   733A      5.451263  
     734A      5.489202   735A      5.509186   736A      5.519927  
     737A      5.539237   738A      5.559633   739A      5.577156  
     740A      5.629423   741A      5.633260   742A      5.658459  
     743A      5.674179   744A      5.689976   745A      5.718566  
     746A      5.735381   747A      5.739307   748A      5.776400  
     749A      5.789487   750A      5.817441   751A      5.823606  
     752A      5.839226   753A      5.856434   754A      5.901066  
     755A      5.924394   756A      5.967137   757A      5.971971  
     758A      6.009735   759A      6.062862   760A      6.078211  
     761A      6.114804   762A      6.127253   763A      6.179037  
     764A      6.211337   765A      6.239639   766A      6.281989  
     767A      6.314711   768A      6.320994   769A      6.406492  
     770A      6.432587   771A      6.459563   772A      6.499343  
     773A      6.545895   774A      6.555687   775A      6.598745  
     776A      6.660859   777A      6.685452   778A      6.706725  
     779A      6.768655   780A      6.774495   781A      6.802003  
     782A      6.861438   783A      6.875131   784A      6.914812  
     785A      6.958565   786A      6.964623   787A      7.037435  
     788A      7.060952   789A      7.104839   790A      7.174670  
     791A      7.209192   792A      7.228660   793A      7.476269  
     794A      7.482538   795A      7.514035   796A      7.590242  
     797A      7.667333   798A      7.797735   799A      7.805855  
     800A      7.894292   801A      8.016293   802A      8.089989  
     803A      9.118559   804A      9.140349   805A      9.289028  
     806A      9.307245   807A      9.438635   808A      9.539931  
     809A      9.576645   810A      9.634172   811A      9.679555  
     812A      9.745550   813A     10.062226   814A     10.124661  
     815A     15.827226   816A     16.116227   817A     16.350131  
     818A     16.769624   819A     16.855310   820A     17.163366  
     821A     18.960290   822A     19.465266   823A     19.659679  
     824A     19.925728   825A     20.252640   826A     20.318672  
     827A     20.705374   828A     21.748332  

    Final Occupation by Irrep:
              A 
    DOCC [    49 ]

  Energy converged.

  @DF-RHF Final Energy:  -650.10572575990921

   => Energetics <=

    Nuclear Repulsion Energy =            819.5432331640135999
    One-Electron Energy =               -2513.8237650242053860
    Two-Electron Energy =                1044.1748061002826944
    DFT Exchange-Correlation Energy =       0.0000000000000000
    Empirical Dispersion Energy =           0.0000000000000000
    PCM Polarization Energy =               0.0000000000000000
    EFP Energy =                            0.0000000000000000
    Total Energy =                       -650.1057257599090917



Properties will be evaluated at   0.000000,   0.000000,   0.000000 Bohr

Properties computed using the SCF density matrix

  Nuclear Dipole Moment: (a.u.)
     X:     4.3327      Y:    -2.0915      Z:    -9.2523

  Electronic Dipole Moment: (a.u.)
     X:     1.1561      Y:    -0.8014      Z:     5.2418

  Dipole Moment: (a.u.)
     X:     5.4888      Y:    -2.8929      Z:    -4.0104     Total:     7.3878

  Dipole Moment: (Debye)
     X:    13.9510      Y:    -7.3531      Z:   -10.1935     Total:    18.7779


*** tstop() called on gpu-1-6.local at Sun Nov 12 00:56:47 2017
Module time:
	user time   =    1164.04 seconds =      19.40 minutes
	system time =      51.10 seconds =       0.85 minutes
	total time  =        475 seconds =       7.92 minutes
Total time:
	user time   =    1164.05 seconds =      19.40 minutes
	system time =      51.10 seconds =       0.85 minutes
	total time  =        475 seconds =       7.92 minutes

  //>>>>>>>>>>>>>>>>>>>>>>>>>>>>>>>>>>>//
  //               DFMP2               //
  //<<<<<<<<<<<<<<<<<<<<<<<<<<<<<<<<<<<//

   => Loading Basis Set <=

    Name: (AUG-CC-PVTZ AUX)
    Role: RIFIT
    Keyword: DF_BASIS_MP2
    atoms 1-11  entry C          line   147 file /cbio/jclab/home/chayas/anaconda/envs/py35/share/psi4/basis/aug-cc-pvtz-ri.gbs 
    atoms 12    entry N          line   205 file /cbio/jclab/home/chayas/anaconda/envs/py35/share/psi4/basis/aug-cc-pvtz-ri.gbs 
    atoms 13    entry O          line   263 file /cbio/jclab/home/chayas/anaconda/envs/py35/share/psi4/basis/aug-cc-pvtz-ri.gbs 
    atoms 14    entry F          line   321 file /cbio/jclab/home/chayas/anaconda/envs/py35/share/psi4/basis/aug-cc-pvtz-ri.gbs 
    atoms 15-22 entry H          line    29 file /cbio/jclab/home/chayas/anaconda/envs/py35/share/psi4/basis/aug-cc-pvtz-ri.gbs 

	 --------------------------------------------------------
	                          DF-MP2                         
	      2nd-Order Density-Fitted Moller-Plesset Theory     
	              RMP2 Wavefunction,   8 Threads             
	                                                         
	        Rob Parrish, Justin Turney, Andy Simmonett,      
	           Ed Hohenstein, and C. David Sherrill          
	 --------------------------------------------------------

   => Auxiliary Basis Set <=

  Basis Set: (AUG-CC-PVTZ AUX)
    Blend: AUG-CC-PVTZ-RI
    Number of shells: 504
    Number of basis function: 1852
    Number of Cartesian functions: 2344
    Spherical Harmonics?: true
    Max angular momentum: 4

	 --------------------------------------------------------
	                 NBF =   828, NAUX =  1852
	 --------------------------------------------------------
	   CLASS    FOCC     OCC    AOCC    AVIR     VIR    FVIR
	   PAIRS       0      49      49     779     779       0
	 --------------------------------------------------------


         ------------------------------------------------------------
                                     CPHF                           
                                  Rob Parrish                       
         ------------------------------------------------------------

  ==> Geometry <==

    Molecular point group: c1
    Full point group: C1

    Geometry (in Angstrom), charge = 0, multiplicity = 1:

       Center              X                  Y                   Z               Mass       
    ------------   -----------------  -----------------  -----------------  -----------------
           C         -1.361808671709     0.775594015256    -0.769398858493    12.000000000000
           C         -2.439808671709     1.348594015256    -0.096398858493    12.000000000000
           C          2.051191328291    -0.438405984744    -0.162398858493    12.000000000000
           C          0.607191328291    -0.957405984744    -2.019398858493    12.000000000000
           C         -1.446808671709     0.732594015256     2.018601141507    12.000000000000
           C          3.104191328291    -1.013405984744    -0.860398858493    12.000000000000
           C          1.696191328291    -1.519405984744    -2.670398858493    12.000000000000
           C         -0.325808671709     0.180594015256    -0.049398858493    12.000000000000
           C          0.791191328291    -0.412405984744    -0.752398858493    12.000000000000
           C         -2.482808671709     1.327594015256     1.297601141507    12.000000000000
           C         -0.368808671709     0.159594015256     1.344601141507    12.000000000000
           N          2.899191328291    -1.530405984744    -2.079398858493    14.003074004780
           O         -3.473808671709     1.854594015256     1.916601141507    15.994914619560
           F          0.619191328291    -0.408405984744     2.051601141507    18.998403224000
           H         -1.342808671709     0.798594015256    -1.857398858493     1.007825032070
           H         -3.235808671709     1.804594015256    -0.682398858493     1.007825032070
           H          2.223191328291    -0.020405984744     0.825601141507     1.007825032070
           H         -0.364808671709    -0.950405984744    -2.504398858493     1.007825032070
           H         -1.455808671709     0.702594015256     3.106601141507     1.007825032070
           H          4.114191328291    -1.078405984744    -0.480398858493     1.007825032070
           H          1.647191328291    -1.965405984744    -3.654398858493     1.007825032070
           H          3.686191328291    -1.947405984744    -2.574398858493     1.007825032070

  Nuclear repulsion =  819.543233164013714
  Reference energy  = -650.105725759909205

  ==> Basis Set <==

  Basis Set: AUG-CC-PVTZ
    Blend: AUG-CC-PVTZ
    Number of shells: 268
    Number of basis function: 828
    Number of Cartesian functions: 970
    Spherical Harmonics?: true
    Max angular momentum: 3

  ==> CGRSolver (by Rob Parrish) <==

   Number of roots    =         1
   Preconditioning    =    JACOBI
   Convergence cutoff =     1E-06
   Maximum iterations =       100

  ==> CPHFRHamiltonian (by Rob Parrish) <== 

  ==> DFJK: Density-Fitted J/K Matrices <==

    J tasked:                  Yes
    K tasked:                  Yes
    wK tasked:                  No
    OpenMP threads:              8
    Integrals threads:           8
    Memory (MB):              3576
    Algorithm:                Disk
    Integral Cache:           NONE
    Schwarz Cutoff:          1E-12
    Fitting Condition:       1E-12

   => Auxiliary Basis Set <=

  Basis Set: (AUG-CC-PVTZ AUX)
    Blend: AUG-CC-PVTZ-JKFIT
    Number of shells: 532
    Number of basis function: 1824
    Number of Cartesian functions: 2274
    Spherical Harmonics?: true
    Max angular momentum: 4

  ==> CPHF Iterations <==

  => Iterations <=

             Iter  Converged  Remaining    Residual
  CGR           1          0          1   1.541E-01
  CGR           2          0          1   6.045E-02
  CGR           3          0          1   3.023E-02
  CGR           4          0          1   9.132E-03
  CGR           5          0          1   3.102E-03
  CGR           6          0          1   1.194E-03
  CGR           7          0          1   4.874E-04
  CGR           8          0          1   1.535E-04
  CGR           9          0          1   5.632E-05
  CGR          10          0          1   2.392E-05
  CGR          11          0          1   1.107E-05
  CGR          12          0          1   3.158E-06
  CGR          13          0          1   1.381E-06
  CGR          14          1          0   5.421E-07

    CGRSolver converged.

  ==> DFCorrGrad: Density-Fitted Correlated Gradients <==

    OpenMP threads:              8
    Integrals threads:           8
    Memory (MB):              3576
    Schwarz Cutoff:          0E+00
    Fitting Condition:       1E-12

   => Auxiliary Basis Set <=

  Basis Set: (AUG-CC-PVTZ AUX)
    Blend: AUG-CC-PVTZ-JKFIT
    Number of shells: 532
    Number of basis function: 1824
    Number of Cartesian functions: 2274
    Spherical Harmonics?: true
    Max angular momentum: 4

	-----------------------------------------------------------
	 ==================> DF-MP2 Energies <==================== 
	-----------------------------------------------------------
	 Reference Energy          =    -650.1057257599092054 [Eh]
	 Singles Energy            =      -0.0000000000000001 [Eh]
	 Same-Spin Energy          =      -0.6794385688273326 [Eh]
	 Opposite-Spin Energy      =      -2.0278136691149129 [Eh]
	 Correlation Energy        =      -2.7072522379422455 [Eh]
	 Total Energy              =    -652.8129779978514762 [Eh]
	-----------------------------------------------------------
	 ================> DF-SCS-MP2 Energies <================== 
	-----------------------------------------------------------
	 SCS Same-Spin Scale       =       0.3333333333333333 [-]
	 SCS Opposite-Spin Scale   =       1.2000000000000000 [-]
	 SCS Same-Spin Energy      =      -0.2264795229424442 [Eh]
	 SCS Opposite-Spin Energy  =      -2.4333764029378955 [Eh]
	 SCS Correlation Energy    =      -2.6598559258803398 [Eh]
	 SCS Total Energy          =    -652.7655816857895843 [Eh]
	-----------------------------------------------------------


  -Total Gradient:
     Atom            X                  Y                   Z
    ------   -----------------  -----------------  -----------------
       1        0.041337252937    -0.012141856745    -0.008080498348
       2       -0.027740649157     0.013573622975     0.056036311589
       3       -0.041317432706     0.017522161483     0.006727083208
       4       -0.023686914064     0.013023843828     0.031917821268
       5       -0.057572869130     0.031971541034    -0.003822205556
       6        0.009108673988    -0.014229258793    -0.028369132297
       7        0.030706544613    -0.008066730496     0.003539944852
       8       -0.050252664754     0.026703771996     0.027164623638
       9        0.050368652712    -0.026077886152    -0.033417364004
      10        0.064476248024    -0.033891943895    -0.040659040961
      11        0.044212266423    -0.033988860848    -0.023207263701
      12       -0.018164800957     0.010765785797     0.012600569323
      13       -0.022424367512     0.011867608501     0.013192402953
      14       -0.002958422857     0.006178011664    -0.005207761478
      15       -0.002113878764    -0.000593519043    -0.006223807961
      16       -0.003346599684     0.000565850371    -0.008976414819
      17       -0.001019677939     0.002539724433     0.010503700373
      18       -0.006355235398     0.002147535205    -0.003282347436
      19        0.003920952169    -0.001154421310     0.007523139975
      20        0.002799206482    -0.001804367041    -0.000075474962
      21        0.001801911027    -0.000891112144    -0.002885938870
      22        0.008221804551    -0.004019500809    -0.004998346773


*** tstop() called on gpu-1-6.local at Sun Nov 12 01:34:39 2017
Module time:
	user time   =    5678.71 seconds =      94.65 minutes
	system time =     109.22 seconds =       1.82 minutes
	total time  =       2747 seconds =      45.78 minutes
Total time:
	user time   =    5678.72 seconds =      94.65 minutes
	system time =     109.22 seconds =       1.82 minutes
	total time  =       2747 seconds =      45.78 minutes

			-----------------------------------------
			 OPTKING 2.0: for geometry optimizations 
			  - R.A. King,  Bethel University        
			-----------------------------------------

	Internal coordinates to be generated automatically.
	Detected frag 1 with atoms:  1 2 3 4 5 6 7 8 9 10 11 12 13 14 15 16 17 18 19 20
	 21 22
	---Fragment 1 Bond Connectivity---
	 1 : 2 8 15
	 2 : 1 10 16
	 3 : 6 9 17
	 4 : 7 9 18
	 5 : 10 11 19
	 6 : 3 12 20
	 7 : 4 12 21
	 8 : 1 9 11
	 9 : 3 4 8
	 10 : 2 5 13
	 11 : 5 8 14
	 12 : 6 7 22
	 13 : 10
	 14 : 11
	 15 : 1
	 16 : 2
	 17 : 3
	 18 : 4
	 19 : 5
	 20 : 6
	 21 : 7
	 22 : 12

	Assuming in current code that numbering for constraints corresponds to unified fragment.
	Fixed dihedral atom list: 
	     1     8     9     3
	---Fragment 1 Geometry and Gradient---
	 C          -2.5734454349        1.4656602791       -1.4539531295
	 C          -4.6105702062        2.5484733533       -0.1821674421
	 C           3.8761898566       -0.8284672462       -0.3068893668
	 C           1.1474253207       -1.8092351092       -3.8161107956
	 C          -2.7340721562        1.3844020554        3.8146033290
	 C           5.8660714745       -1.9150597726       -1.6259182076
	 C           3.2053370794       -2.8712611958       -5.0463225081
	 C          -0.6156891612        0.3412732301       -0.0933503138
	 C           1.4951349292       -0.7793343667       -1.4218277852
	 C          -4.6918284299        2.5087891045        2.4521107872
	 C          -0.6969473850        0.3015889813        2.5409279154
	 N           5.4786776173       -2.8920481833       -3.9294943636
	 O          -6.5645470276        3.5046747765        3.6218512634
	 F           1.1701020343       -0.7717754622        3.8769642914
	 H          -2.5375406384        1.5091239802       -3.5099751621
	 H          -6.1147922079        3.4101884699       -1.2895469559
	 H           4.2012227515       -0.0385617226        1.5601600524
	 H          -0.6893884804       -1.7960070262       -4.7326279701
	 H          -2.7510796914        1.3277102714        5.8706253616
	 H           7.7746948688       -2.0378919712       -0.9078222771
	 H           3.1127404989       -3.7140790511       -6.9058130229
	 H           6.9658920839       -3.6800639807       -4.8649087994
	             0.0413372529       -0.0121418567       -0.0080804983
	            -0.0277406492        0.0135736230        0.0560363116
	            -0.0413174327        0.0175221615        0.0067270832
	            -0.0236869141        0.0130238438        0.0319178213
	            -0.0575728691        0.0319715410       -0.0038222056
	             0.0091086740       -0.0142292588       -0.0283691323
	             0.0307065446       -0.0080667305        0.0035399449
	            -0.0502526648        0.0267037720        0.0271646236
	             0.0503686527       -0.0260778862       -0.0334173640
	             0.0644762480       -0.0338919439       -0.0406590410
	             0.0442122664       -0.0339888608       -0.0232072637
	            -0.0181648010        0.0107657858        0.0126005693
	            -0.0224243675        0.0118676085        0.0131924030
	            -0.0029584229        0.0061780117       -0.0052077615
	            -0.0021138788       -0.0005935190       -0.0062238080
	            -0.0033465997        0.0005658504       -0.0089764148
	            -0.0010196779        0.0025397244        0.0105037004
	            -0.0063552354        0.0021475352       -0.0032823474
	             0.0039209522       -0.0011544213        0.0075231400
	             0.0027992065       -0.0018043670       -0.0000754750
	             0.0018019110       -0.0008911121       -0.0028859389
	             0.0082218046       -0.0040195008       -0.0049983468

	Previous optimization step data not found.  Starting new optimization.

	---Fragment 1 Intrafragment Coordinates---
	 - Coordinate -           - BOHR/RAD -       - ANG/DEG -
	 R(1,2)           =         2.634350	       1.394038
	 R(1,8)           =         2.635962	       1.394891
	 R(1,15)          =         2.056795	       1.088409
	 R(2,10)          =         2.635830	       1.394821
	 R(2,16)          =         2.057067	       1.088553
	 R(3,6)           =         2.623004	       1.388034
	 R(3,9)           =         2.629624	       1.391537
	 R(3,17)          =         2.053161	       1.086486
	 R(4,7)           =         2.622274	       1.387648
	 R(4,9)           =         2.629484	       1.391463
	 R(4,18)          =         2.052818	       1.086305
	 R(5,10)          =         2.636938	       1.395407
	 R(5,11)          =         2.635263	       1.394521
	 R(5,19)          =         2.056874	       1.088451
	 R(6,12)          =         2.532004	       1.339879
	 R(6,20)          =         2.042937	       1.081076
	 R(7,12)          =         2.532946	       1.340377
	 R(7,21)          =         2.043678	       1.081468
	 R(8,9)           =         2.734263	       1.446909
	 R(8,11)          =         2.635830	       1.394821
	 R(10,13)         =         2.422221	       1.281784
	 R(11,14)         =         2.534359	       1.341125
	 R(12,22)         =         1.925559	       1.018962
	 B(1,2,10)        =         2.094553	     120.009056
	 B(1,2,16)        =         2.068903	     118.539404
	 B(1,8,9)         =         2.091392	     119.827938
	 B(1,8,11)        =         2.093692	     119.959722
	 B(2,1,8)         =         2.094940	     120.031219
	 B(2,1,15)        =         2.079908	     119.169966
	 B(2,10,5)        =         2.094306	     119.994870
	 B(2,10,13)       =         2.094719	     120.018581
	 B(3,6,12)        =         2.095869	     120.084469
	 B(3,6,20)        =         2.161443	     123.841573
	 B(3,9,4)         =         2.092645	     119.899715
	 B(3,9,8)         =         2.095172	     120.044494
	 B(4,7,12)        =         2.095340	     120.054166
	 B(4,7,21)        =         2.163161	     123.939976
	 B(4,9,8)         =         2.095369	     120.055791
	 B(5,10,13)       =         2.094160	     119.986548
	 B(5,11,8)        =         2.095181	     120.045019
	 B(5,11,14)       =         2.081414	     119.256220
	 B(6,3,9)         =         2.073098	     118.779771
	 B(6,3,17)        =         2.090432	     119.772936
	 B(6,12,7)        =         2.135652	     122.363835
	 B(6,12,22)       =         2.073391	     118.796546
	 B(7,4,9)         =         2.073765	     118.818008
	 B(7,4,18)        =         2.089043	     119.693372
	 B(7,12,22)       =         2.074142	     118.839606
	 B(8,1,15)        =         2.108336	     120.798746
	 B(8,11,14)       =         2.106591	     120.698759
	 B(9,3,17)        =         2.119655	     121.447292
	 B(9,4,18)        =         2.120376	     121.488604
	 B(9,8,11)        =         2.098101	     120.212327
	 B(10,2,16)       =         2.119728	     121.451467
	 B(10,5,11)       =         2.093699	     119.960108
	 B(10,5,19)       =         2.120101	     121.472852
	 B(11,5,19)       =         2.069385	     118.567038
	 B(12,6,20)       =         2.025873	     116.073948
	 B(12,7,21)       =         2.024684	     116.005855
	 D(1,2,10,5)      =        -0.000325	      -0.018609
	 D(1,2,10,13)     =         3.141392	     179.988520
	 D(1,8,9,3)       =         2.617841	     149.991231
	 D(1,8,9,4)       =        -0.523647	     -30.002760
	 D(1,8,11,5)      =         0.000325	       0.018608
	 D(1,8,11,14)     =        -3.141528	    -179.996269
	 D(2,1,8,9)       =        -3.141211	    -179.978157
	 D(2,1,8,11)      =        -0.000348	      -0.019945
	 D(2,10,5,11)     =         0.000301	       0.017261
	 D(2,10,5,19)     =        -3.141543	    -179.997173
	 D(3,6,12,7)      =        -0.001093	      -0.062649
	 D(3,6,12,22)     =         3.141231	     179.979250
	 D(3,9,4,7)       =        -0.000000	      -0.000000
	 D(3,9,4,18)      =        -3.140809	    -179.955099
	 D(3,9,8,11)      =        -0.523021	     -29.966875
	 D(4,7,12,6)      =         0.001294	       0.074168
	 D(4,7,12,22)     =        -3.141030	    -179.967749
	 D(4,9,3,6)       =         0.000204	       0.011683
	 D(4,9,3,17)      =        -3.141407	    -179.989391
	 D(4,9,8,11)      =         2.618677	     150.039135
	 D(5,10,2,16)     =         3.139529	     179.881752
	 D(5,11,8,9)      =         3.141185	     179.976658
	 D(6,3,9,8)       =        -3.141284	    -179.982317
	 D(6,12,7,21)     =        -3.140633	    -179.945021
	 D(7,4,9,8)       =         3.141478	     179.993422
	 D(7,12,6,20)     =         3.139897	     179.902864
	 D(8,1,2,10)      =         0.000348	       0.019955
	 D(8,1,2,16)      =        -3.139556	    -179.883288
	 D(8,9,3,17)      =         0.000290	       0.016609
	 D(8,9,4,18)      =         0.000679	       0.038900
	 D(8,11,5,10)     =        -0.000301	      -0.017270
	 D(8,11,5,19)     =         3.141536	     179.996748
	 D(9,3,6,12)      =         0.000325	       0.018606
	 D(9,3,6,20)      =        -3.140617	    -179.944098
	 D(9,4,7,12)      =        -0.000719	      -0.041219
	 D(9,4,7,21)      =         3.141236	     179.979568
	 D(9,8,1,15)      =         0.002066	       0.118384
	 D(9,8,11,14)     =        -0.000667	      -0.038219
	 D(10,2,1,15)     =         3.140283	     179.924984
	 D(10,5,11,14)    =         3.141547	     179.997392
	 D(11,5,10,13)    =        -3.141416	    -179.989865
	 D(11,8,1,15)     =        -3.140256	    -179.923403
	 D(12,6,3,17)     =        -3.141249	    -179.980338
	 D(12,7,4,18)     =         3.140094	     179.914138
	 D(13,10,2,16)    =        -0.001939	      -0.111119
	 D(13,10,5,19)    =        -0.000075	      -0.004300
	 D(14,11,5,19)    =         0.000199	       0.011410
	 D(15,1,2,16)     =         0.000379	       0.021741
	 D(17,3,6,20)     =         0.000994	       0.056958
	 D(18,4,7,21)     =        -0.001136	      -0.065075
	 D(20,6,12,22)    =        -0.000964	      -0.055237
	 D(21,7,12,22)    =         0.000228	       0.013062
	 R(3,14)          =         4.983047	       2.636915

	Current energy   :      -652.8129779979

	Generating empirical Hessian (Schlegel '84) for each fragment.
	Adding user-defined constraint: Fragment 1; Coordinate 62:
		Value =     2.617841; Fixed value    =     2.617994
		Force =     0.000077; Force constant =     0.500000
	Removing off-diagonal coupling between coordinate 62 and others.
	Taking RFO optimization step.
	Going to follow RFO solution 1.
	Using RFO vector 1.

	Determining step-restricting scale parameter for RS-RFO.
	Maximum step size allowed    0.10000

	 Iter      |step|        alpha        rfo_root  
	------------------------------------------------
	    0     0.31220       1.00000           1
	    1     0.22732       3.95349           1
	    2     0.16556      13.35556           1
	    3     0.12598      31.39955           1
	    4     0.10651      50.13665           1
	    5     0.10059      58.38081           1
	    6     0.10001      59.28344           1
	------------------------------------------------
	Norm of target step-size    0.10001
	Projected energy change by RFO approximation:        -0.0097893261

	Back-transformation to cartesian coordinates...
	Could not converge backtransformation.
	Using first guess instead.

	--- Internal Coordinate Step in ANG or DEG, aJ/ANG or AJ/DEG ---
	 ---------------------------------------------------------------------------
	   Coordinate                Previous        Force       Change         New 
	   ----------                --------       ------       ------       ------
	    1 R(1,2)          =      1.394038    -0.191670    -0.011594     1.382444
	    2 R(1,8)          =      1.394891     0.148596     0.008934     1.403825
	    3 R(1,15)         =      1.088409    -0.050850    -0.003469     1.084940
	    4 R(2,10)         =      1.394821     0.277175     0.017076     1.411898
	    5 R(2,16)         =      1.088553    -0.061927    -0.004224     1.084330
	    6 R(3,6)          =      1.388034    -0.179390    -0.010768     1.377266
	    7 R(3,9)          =      1.391537     0.193538     0.011787     1.403324
	    8 R(3,17)         =      1.086486    -0.085413    -0.005779     1.080707
	    9 R(4,7)          =      1.387648    -0.183987    -0.011073     1.376575
	   10 R(4,9)          =      1.391463     0.179069     0.010875     1.402338
	   11 R(4,18)         =      1.086305    -0.059037    -0.004009     1.082295
	   12 R(5,10)         =      1.395407     0.253398     0.015609     1.411016
	   13 R(5,11)         =      1.394521    -0.250567    -0.015241     1.379280
	   14 R(5,19)         =      1.088451    -0.061950    -0.004224     1.084227
	   15 R(6,12)         =      1.339879     0.131351     0.007251     1.347130
	   16 R(6,20)         =      1.081076    -0.022221    -0.001500     1.079575
	   17 R(7,12)         =      1.340377     0.114950     0.006337     1.346714
	   18 R(7,21)         =      1.081468    -0.023988    -0.001610     1.079858
	   19 R(8,9)          =      1.446909    -0.184239    -0.012066     1.434843
	   20 R(8,11)         =      1.394821     0.113108     0.006807     1.401628
	   21 R(10,13)        =      1.281784    -0.235524    -0.011489     1.270295
	   22 R(11,14)        =      1.341125     0.060168     0.003346     1.344472
	   23 R(12,22)        =      1.018962    -0.085874    -0.005321     1.013641
	   24 B(1,2,10)       =    120.009056     0.000363     0.353661   120.362717
	   25 B(1,2,16)       =    118.539404     0.000273     0.276707   118.816111
	   26 B(1,8,9)        =    119.827938     0.000518     0.480324   120.308262
	   27 B(1,8,11)       =    119.959722    -0.000923    -0.870970   119.088752
	   28 B(2,1,8)        =    120.031219     0.000529     0.472826   120.504045
	   29 B(2,1,15)       =    119.169966    -0.000139    -0.112831   119.057135
	   30 B(2,10,5)       =    119.994870    -0.001218    -1.042437   118.952434
	   31 B(2,10,13)      =    120.018581     0.000673     0.579189   120.597770
	   32 B(3,6,12)       =    120.084469     0.000028     0.023437   120.107906
	   33 B(3,6,20)       =    123.841573    -0.000145    -0.143935   123.697638
	   34 B(3,9,4)        =    119.899715    -0.001088    -0.971765   118.927950
	   35 B(3,9,8)        =    120.044494     0.000756     0.681315   120.725809
	   36 B(4,7,12)       =    120.054166    -0.000050    -0.059353   119.994813
	   37 B(4,7,21)       =    123.939976    -0.000116    -0.111543   123.828433
	   38 B(4,9,8)        =    120.055791     0.000332     0.290372   120.346163
	   39 B(5,10,13)      =    119.986548     0.000545     0.463248   120.449796
	   40 B(5,11,8)       =    120.045019     0.001064     0.916306   120.961325
	   41 B(5,11,14)      =    119.256220    -0.000091    -0.073292   119.182928
	   42 B(6,3,9)        =    118.779771     0.000518     0.476473   119.256245
	   43 B(6,3,17)       =    119.772936    -0.000436    -0.419447   119.353490
	   44 B(6,12,7)       =    122.363835    -0.000082    -0.083464   122.280371
	   45 B(6,12,22)      =    118.796546     0.000056     0.057502   118.854048
	   46 B(7,4,9)        =    118.818008     0.000674     0.614683   119.432691
	   47 B(7,4,18)       =    119.693372    -0.000406    -0.379805   119.313567
	   48 B(7,12,22)      =    118.839606     0.000026     0.025972   118.865578
	   49 B(8,1,15)       =    120.798746    -0.000389    -0.359954   120.438792
	   50 B(8,11,14)      =    120.698759    -0.000972    -0.843381   119.855378
	   51 B(9,3,17)       =    121.447292    -0.000083    -0.057129   121.390163
	   52 B(9,4,18)       =    121.488604    -0.000268    -0.234886   121.253718
	   53 B(9,8,11)       =    120.212327     0.000405     0.390605   120.602932
	   54 B(10,2,16)      =    121.451467    -0.000636    -0.630343   120.821124
	   55 B(10,5,11)      =    119.960108     0.000186     0.170478   120.130587
	   56 B(10,5,19)      =    121.472852    -0.000402    -0.393069   121.079783
	   57 B(11,5,19)      =    118.567038     0.000216     0.222592   118.789630
	   58 B(12,6,20)      =    116.073948     0.000118     0.120504   116.194453
	   59 B(12,7,21)      =    116.005855     0.000166     0.170888   116.176743
	   60 D(1,2,10,5)     =     -0.018609     0.000010     0.056334     0.037725
	   61 D(1,2,10,13)    =    179.988520     0.000009     0.048831   180.037351
	   62 D(1,8,9,3)      =    149.991231     0.000036     0.144322   150.135553
	   63 D(1,8,9,4)      =    -30.002760     0.000050     0.240731   -29.762029
	   64 D(1,8,11,5)     =      0.018608     0.000011     0.069330     0.087937
	   65 D(1,8,11,14)    =   -179.996269    -0.000027    -0.138246  -180.134515
	   66 D(2,1,8,9)      =   -179.978157     0.000013     0.082727  -179.895431
	   67 D(2,1,8,11)     =     -0.019945     0.000009     0.040190     0.020245
	   68 D(2,10,5,11)    =      0.017261     0.000010     0.051870     0.069131
	   69 D(2,10,5,19)    =   -179.997173     0.000012     0.063475  -179.933698
	   70 D(3,6,12,7)     =     -0.062649     0.000007     0.037078    -0.025572
	   71 D(3,6,12,22)    =    179.979250     0.000003     0.014154   179.993404
	   72 D(3,9,4,7)      =      0.000000     0.000007     0.046525     0.046525
	   73 D(3,9,4,18)     =   -179.955099    -0.000012    -0.055124  -180.010223
	   74 D(3,9,8,11)     =    -29.966875     0.000040     0.188040   -29.778835
	   75 D(4,7,12,6)     =      0.074168    -0.000005    -0.028083     0.046085
	   76 D(4,7,12,22)    =   -179.967749    -0.000001    -0.005144  -179.972893
	   77 D(4,9,3,6)      =      0.011683    -0.000006    -0.038219    -0.026535
	   78 D(4,9,3,17)     =   -179.989391    -0.000027    -0.154435  -180.143825
	   79 D(4,9,8,11)     =    150.039135     0.000055     0.284449   150.323583
	   80 D(5,10,2,16)    =    179.881752     0.000014     0.074761   179.956514
	   81 D(5,11,8,9)     =    179.976658     0.000006     0.026700   180.003358
	   82 D(6,3,9,8)      =   -179.982317     0.000009     0.056767  -179.925549
	   83 D(6,12,7,21)    =   -179.945021     0.000006     0.028037  -179.916984
	   84 D(7,4,9,8)      =    179.993422    -0.000007    -0.047489   179.945933
	   85 D(7,12,6,20)    =    179.902864     0.000016     0.090758   179.993621
	   86 D(8,1,2,10)     =      0.019955    -0.000019    -0.102028    -0.082073
	   87 D(8,1,2,16)     =   -179.883288    -0.000023    -0.119187  -180.002475
	   88 D(8,9,3,17)     =      0.016609    -0.000013    -0.059449    -0.042840
	   89 D(8,9,4,18)     =      0.038900    -0.000026    -0.149715    -0.110814
	   90 D(8,11,5,10)    =     -0.017270    -0.000020    -0.115251    -0.132522
	   91 D(8,11,5,19)    =    179.996748    -0.000023    -0.126505   179.870243
	   92 D(9,3,6,12)     =      0.018606    -0.000001    -0.002919     0.015688
	   93 D(9,3,6,20)     =   -179.944098    -0.000012    -0.060914  -180.005012
	   94 D(9,4,7,12)     =     -0.041219    -0.000002    -0.014824    -0.056043
	   95 D(9,4,7,21)     =    179.979568    -0.000014    -0.075510   179.904059
	   96 D(9,8,1,15)     =      0.118384    -0.000016    -0.075338     0.043046
	   97 D(9,8,11,14)    =     -0.038219    -0.000032    -0.180876    -0.219095
	   98 D(10,2,1,15)    =    179.924984     0.000010     0.053623   179.978607
	   99 D(10,5,11,14)   =    179.997392     0.000017     0.091065   180.088458
	  100 D(11,5,10,13)   =   -179.989865     0.000011     0.059370  -179.930495
	  101 D(11,8,1,15)    =   -179.923403    -0.000021    -0.117874  -180.041278
	  102 D(12,6,3,17)    =   -179.980338     0.000020     0.110898  -179.869440
	  103 D(12,7,4,18)    =    179.914138     0.000017     0.085862   180.000000
	  104 D(13,10,2,16)   =     -0.111119     0.000013     0.067258    -0.043861
	  105 D(13,10,5,19)   =     -0.004300     0.000013     0.070976     0.066676
	  106 D(14,11,5,19)   =      0.011410     0.000015     0.079812     0.091222
	  107 D(15,1,2,16)    =      0.021741     0.000006     0.036465     0.058206
	  108 D(17,3,6,20)    =      0.056958     0.000010     0.052902     0.109860
	  109 D(18,4,7,21)    =     -0.065075     0.000005     0.024770    -0.040305
	  110 D(20,6,12,22)   =     -0.055237     0.000013     0.067833     0.012597
	  111 D(21,7,12,22)   =      0.013062     0.000010     0.050977     0.064039
	  112 R(3,14)         =      2.636915     0.052055     0.005376     2.642291
	 ---------------------------------------------------------------------------
	Successfully symmetrized geometry.
	 Forces used to impose fixed constraints are not included.
	  Forces zeroed: 62 

  ==> Convergence Check <==

  Measures of convergence in internal coordinates in au.
  Criteria marked as inactive (o), active & met (*), and active & unmet ( ).
  --------------------------------------------------------------------------------------------- ~
   Step     Total Energy     Delta E     MAX Force     RMS Force      MAX Disp      RMS Disp    ~
  --------------------------------------------------------------------------------------------- ~
    Convergence Criteria    1.00e-06 *    3.00e-04 *             o    1.20e-03 *             o  ~
  --------------------------------------------------------------------------------------------- ~
      1    -652.81297800   -6.53e+02      3.36e-02      9.51e-03 o    3.23e-02      9.45e-03 o  ~
  ---------------------------------------------------------------------------------------------

	Writing optimization data to binary file.
	Structure for next step:
	Cartesian Geometry (in Angstrom)
	    C    -1.3704481623   0.7773551586  -0.7706191715
	    C    -2.4407212230   1.3471945086  -0.1065781423
	    C     2.0618325045  -0.4425929456  -0.1605225420
	    C     0.6127830014  -0.9590019925  -2.0241918901
	    C    -1.4403678129   0.7299270731   2.0221509730
	    C     3.1060976212  -1.0132663762  -0.8538510768
	    C     1.6908246334  -1.5175557837  -2.6728849736
	    C    -0.3230199486   0.1790756964  -0.0525093275
	    C     0.7868932446  -0.4091443435  -0.7459534626
	    C    -2.4947531920   1.3330903864   1.3042146713
	    C    -0.3769839570   0.1667373394   1.3480250194
	    N     2.8999482285  -1.5316414847  -2.0800437502
	    O    -3.4764051360   1.8547551587   1.9189302701
	    F     0.6164868944  -0.4045074007   2.0510893161
	    H    -1.3507362833   0.7998343116  -1.8551470561
	    H    -3.2347351260   1.8018862741  -0.6884440000
	    H     2.2413850959  -0.0285106728   0.8214269333
	    H    -0.3538999291  -0.9536278700  -2.5108731604
	    H    -1.4471270240   0.6987234430   3.1059076600
	    H     4.1140872613  -1.0774403720  -0.4726403209
	    H     1.6370483068  -1.9613039653  -3.6558845349
	    H     3.6820202245  -1.9469178072  -2.5733763210
			--------------------------
			 OPTKING Finished Execution 
			--------------------------

    Structure for next step:
    Molecular point group: c1
    Full point group: C1

    Geometry (in Angstrom), charge = 0, multiplicity = 1:

    C           -1.369341180151     0.776574648375    -0.771098433781
    C           -2.439614240864     1.346413998386    -0.107057404575
    C            2.062939486663    -0.443373455833    -0.161001804263
    C            0.613889983600    -0.959782502769    -2.024671152388
    C           -1.439260830672     0.729146562830     2.021671710697
    C            3.107204603416    -1.014046886470    -0.854330339133
    C            1.691931615624    -1.518336293926    -2.673364235912
    C           -0.321912966415     0.178295186159    -0.052988589780
    C            0.788000226779    -0.409924853792    -0.746432724892
    C           -2.493646209809     1.332309876138     1.303735408955
    C           -0.375876974803     0.165956829189     1.347545757057
    N            2.901055210731    -1.532421994928    -2.080523012554
    O           -3.475298153775     1.853974648451     1.918451007773
    F            0.617593876564    -0.405287910974     2.050610053741
    H           -1.349629301134     0.799053801369    -1.855626318368
    H           -3.233628143863     1.801105763824    -0.688923262354
    H            2.242492078109    -0.029291183091     0.820947670956
    H           -0.352792946890    -0.954408380234    -2.511352422741
    H           -1.446020041806     0.697942932700     3.105428397649
    H            4.115194243458    -1.078220882281    -0.473119583238
    H            1.638155288938    -1.962084475574    -3.656363797206
    H            3.683127206733    -1.947698317422    -2.573855583341

gradient() will perform analytic gradient computation.

*** tstart() called on gpu-1-6.local
*** at Sun Nov 12 01:34:41 2017

    SCF Algorithm Type (re)set to DF.

*** tstart() called on gpu-1-6.local
*** at Sun Nov 12 01:34:41 2017

   => Loading Basis Set <=

    Name: AUG-CC-PVTZ
    Role: ORBITAL
    Keyword: BASIS
    atoms 1-11  entry C          line   221 file /cbio/jclab/home/chayas/anaconda/envs/py35/share/psi4/basis/aug-cc-pvtz.gbs 
    atoms 12    entry N          line   267 file /cbio/jclab/home/chayas/anaconda/envs/py35/share/psi4/basis/aug-cc-pvtz.gbs 
    atoms 13    entry O          line   313 file /cbio/jclab/home/chayas/anaconda/envs/py35/share/psi4/basis/aug-cc-pvtz.gbs 
    atoms 14    entry F          line   359 file /cbio/jclab/home/chayas/anaconda/envs/py35/share/psi4/basis/aug-cc-pvtz.gbs 
    atoms 15-22 entry H          line    34 file /cbio/jclab/home/chayas/anaconda/envs/py35/share/psi4/basis/aug-cc-pvtz.gbs 


         ---------------------------------------------------------
                                   SCF
            by Justin Turney, Rob Parrish, and Andy Simmonett
                              RHF Reference
                        8 Threads,   4768 MiB Core
         ---------------------------------------------------------

  ==> Geometry <==

    Molecular point group: c1
    Full point group: C1

    Geometry (in Angstrom), charge = 0, multiplicity = 1:

       Center              X                  Y                   Z               Mass       
    ------------   -----------------  -----------------  -----------------  -----------------
           C         -1.369341180151     0.776574648375    -0.771098433781    12.000000000000
           C         -2.439614240864     1.346413998386    -0.107057404575    12.000000000000
           C          2.062939486663    -0.443373455833    -0.161001804263    12.000000000000
           C          0.613889983600    -0.959782502769    -2.024671152388    12.000000000000
           C         -1.439260830672     0.729146562830     2.021671710697    12.000000000000
           C          3.107204603416    -1.014046886470    -0.854330339133    12.000000000000
           C          1.691931615624    -1.518336293926    -2.673364235912    12.000000000000
           C         -0.321912966415     0.178295186159    -0.052988589780    12.000000000000
           C          0.788000226779    -0.409924853792    -0.746432724892    12.000000000000
           C         -2.493646209809     1.332309876138     1.303735408955    12.000000000000
           C         -0.375876974803     0.165956829189     1.347545757057    12.000000000000
           N          2.901055210731    -1.532421994928    -2.080523012554    14.003074004780
           O         -3.475298153775     1.853974648451     1.918451007773    15.994914619560
           F          0.617593876564    -0.405287910974     2.050610053741    18.998403224000
           H         -1.349629301134     0.799053801369    -1.855626318368     1.007825032070
           H         -3.233628143863     1.801105763824    -0.688923262354     1.007825032070
           H          2.242492078109    -0.029291183091     0.820947670956     1.007825032070
           H         -0.352792946890    -0.954408380234    -2.511352422741     1.007825032070
           H         -1.446020041806     0.697942932700     3.105428397649     1.007825032070
           H          4.115194243458    -1.078220882281    -0.473119583238     1.007825032070
           H          1.638155288938    -1.962084475574    -3.656363797206     1.007825032070
           H          3.683127206733    -1.947698317422    -2.573855583341     1.007825032070

  Running in c1 symmetry.

  Rotational constants: A =      0.06274  B =      0.01365  C =      0.01144 [cm^-1]
  Rotational constants: A =   1880.93876  B =    409.08332  C =    343.02909 [MHz]
  Nuclear repulsion =  818.846520260420561

  Charge       = 0
  Multiplicity = 1
  Electrons    = 98
  Nalpha       = 49
  Nbeta        = 49

  ==> Algorithm <==

  SCF Algorithm Type is DF.
  DIIS enabled.
  MOM disabled.
  Fractional occupation disabled.
  Guess Type is READ.
  Energy threshold   = 1.00e-10
  Density threshold  = 1.00e-10
  Integral threshold = 0.00e+00

  ==> Primary Basis <==

  Basis Set: AUG-CC-PVTZ
    Blend: AUG-CC-PVTZ
    Number of shells: 268
    Number of basis function: 828
    Number of Cartesian functions: 970
    Spherical Harmonics?: true
    Max angular momentum: 3

   => Loading Basis Set <=

    Name: (AUG-CC-PVTZ AUX)
    Role: JKFIT
    Keyword: DF_BASIS_SCF
    atoms 1-11  entry C          line   161 file /cbio/jclab/home/chayas/anaconda/envs/py35/share/psi4/basis/aug-cc-pvtz-jkfit.gbs 
    atoms 12    entry N          line   223 file /cbio/jclab/home/chayas/anaconda/envs/py35/share/psi4/basis/aug-cc-pvtz-jkfit.gbs 
    atoms 13    entry O          line   285 file /cbio/jclab/home/chayas/anaconda/envs/py35/share/psi4/basis/aug-cc-pvtz-jkfit.gbs 
    atoms 14    entry F          line   347 file /cbio/jclab/home/chayas/anaconda/envs/py35/share/psi4/basis/aug-cc-pvtz-jkfit.gbs 
    atoms 15-22 entry H          line    69 file /cbio/jclab/home/chayas/anaconda/envs/py35/share/psi4/basis/aug-cc-pvtz-jkfit.gbs 

  Reading orbitals from file 180, no projection.

  ==> Pre-Iterations <==

   -------------------------------------------------------
    Irrep   Nso     Nmo     Nalpha   Nbeta   Ndocc  Nsocc
   -------------------------------------------------------
     A        828     828       0       0       0       0
   -------------------------------------------------------
    Total     828     828      49      49      49       0
   -------------------------------------------------------

  ==> Integral Setup <==

  ==> DFJK: Density-Fitted J/K Matrices <==

    J tasked:                  Yes
    K tasked:                  Yes
    wK tasked:                  No
    OpenMP threads:              8
    Integrals threads:           8
    Memory (MB):              3576
    Algorithm:                Disk
    Integral Cache:           NONE
    Schwarz Cutoff:          1E-12
    Fitting Condition:       1E-12

   => Auxiliary Basis Set <=

  Basis Set: (AUG-CC-PVTZ AUX)
    Blend: AUG-CC-PVTZ-JKFIT
    Number of shells: 532
    Number of basis function: 1824
    Number of Cartesian functions: 2274
    Spherical Harmonics?: true
    Max angular momentum: 4

  Minimum eigenvalue in the overlap matrix is 6.9990452608E-07.
  Using Symmetric Orthogonalization.

  SCF Guess: Orbitals guess was supplied from a previous computation.

  ==> Iterations <==

                           Total Energy        Delta E     RMS |[F,P]|

   @DF-RHF iter   0:  -650.17164382140697   -6.50172e+02   6.28388e-04 
   @DF-RHF iter   1:  -650.11661660958168    5.50272e-02   1.08964e-04 
   @DF-RHF iter   2:  -650.11701059127347   -3.93982e-04   6.08400e-05 DIIS
   @DF-RHF iter   3:  -650.11721729969963   -2.06708e-04   1.34336e-05 DIIS
   @DF-RHF iter   4:  -650.11724236070188   -2.50610e-05   7.33882e-06 DIIS
   @DF-RHF iter   5:  -650.11725605277366   -1.36921e-05   4.62287e-06 DIIS
   @DF-RHF iter   6:  -650.11726078765741   -4.73488e-06   1.70704e-06 DIIS
   @DF-RHF iter   7:  -650.11726177349237   -9.85835e-07   5.34356e-07 DIIS
   @DF-RHF iter   8:  -650.11726182675841   -5.32660e-08   1.75229e-07 DIIS
   @DF-RHF iter   9:  -650.11726182956431   -2.80590e-09   7.12567e-08 DIIS
   @DF-RHF iter  10:  -650.11726183003975   -4.75438e-10   2.67427e-08 DIIS
   @DF-RHF iter  11:  -650.11726183012206   -8.23093e-11   9.76439e-09 DIIS
   @DF-RHF iter  12:  -650.11726183013923   -1.71667e-11   3.46781e-09 DIIS
   @DF-RHF iter  13:  -650.11726183014480   -5.57066e-12   1.52625e-09 DIIS
   @DF-RHF iter  14:  -650.11726183013957    5.22959e-12   4.45695e-10 DIIS
   @DF-RHF iter  15:  -650.11726183014048   -9.09495e-13   2.56287e-10 DIIS
   @DF-RHF iter  16:  -650.11726183015674   -1.62572e-11   1.00220e-10 DIIS
   @DF-RHF iter  17:  -650.11726183013616    2.05773e-11   4.18932e-11 DIIS

  ==> Post-Iterations <==

    Orbital Energies (a.u.)
    -----------------------

    Doubly Occupied:                                                      

       1A    -26.313095     2A    -20.447639     3A    -15.693011  
       4A    -11.354214     5A    -11.350268     6A    -11.323582  
       7A    -11.311424     8A    -11.283362     9A    -11.277975  
      10A    -11.262884    11A    -11.239393    12A    -11.225266  
      13A    -11.196278    14A    -11.194534    15A     -1.633878  
      16A     -1.375954    17A     -1.275034    18A     -1.180446  
      19A     -1.116812    20A     -1.108256    21A     -1.008067  
      22A     -1.000513    23A     -0.934695    24A     -0.907475  
      25A     -0.835734    26A     -0.832390    27A     -0.810870  
      28A     -0.745691    29A     -0.729329    30A     -0.716502  
      31A     -0.701453    32A     -0.686361    33A     -0.679245  
      34A     -0.659408    35A     -0.647173    36A     -0.615713  
      37A     -0.605476    38A     -0.597602    39A     -0.568331  
      40A     -0.547053    41A     -0.521188    42A     -0.506252  
      43A     -0.493019    44A     -0.471095    45A     -0.418229  
      46A     -0.398432    47A     -0.357584    48A     -0.332954  
      49A     -0.244470  

    Virtual:                                                              

      50A     -0.006321    51A      0.012638    52A      0.020453  
      53A      0.025475    54A      0.038711    55A      0.040837  
      56A      0.045331    57A      0.056341    58A      0.060622  
      59A      0.061471    60A      0.062368    61A      0.069931  
      62A      0.072315    63A      0.080724    64A      0.085106  
      65A      0.094885    66A      0.100093    67A      0.103914  
      68A      0.108140    69A      0.109421    70A      0.117541  
      71A      0.120271    72A      0.122338    73A      0.128255  
      74A      0.130460    75A      0.133967    76A      0.137662  
      77A      0.142613    78A      0.148515    79A      0.151058  
      80A      0.152719    81A      0.158818    82A      0.163078  
      83A      0.166531    84A      0.167268    85A      0.172196  
      86A      0.179072    87A      0.180251    88A      0.183410  
      89A      0.187131    90A      0.194980    91A      0.196259  
      92A      0.205379    93A      0.208397    94A      0.212059  
      95A      0.214020    96A      0.220460    97A      0.224818  
      98A      0.227606    99A      0.232149   100A      0.233201  
     101A      0.239596   102A      0.249281   103A      0.250374  
     104A      0.253922   105A      0.254298   106A      0.257875  
     107A      0.266128   108A      0.269189   109A      0.276802  
     110A      0.280731   111A      0.288192   112A      0.289652  
     113A      0.294273   114A      0.297909   115A      0.299571  
     116A      0.301009   117A      0.308198   118A      0.309217  
     119A      0.319413   120A      0.321805   121A      0.327466  
     122A      0.330159   123A      0.334660   124A      0.338066  
     125A      0.343637   126A      0.344719   127A      0.350779  
     128A      0.353415   129A      0.354804   130A      0.361615  
     131A      0.362933   132A      0.368122   133A      0.376992  
     134A      0.379352   135A      0.384133   136A      0.386604  
     137A      0.392489   138A      0.397770   139A      0.402498  
     140A      0.403923   141A      0.414724   142A      0.418483  
     143A      0.421602   144A      0.426067   145A      0.433633  
     146A      0.435224   147A      0.439590   148A      0.444668  
     149A      0.448136   150A      0.450873   151A      0.452422  
     152A      0.457668   153A      0.460763   154A      0.465174  
     155A      0.469492   156A      0.471390   157A      0.478662  
     158A      0.480943   159A      0.485147   160A      0.485759  
     161A      0.488772   162A      0.491507   163A      0.492542  
     164A      0.500588   165A      0.504716   166A      0.507054  
     167A      0.511318   168A      0.511908   169A      0.517603  
     170A      0.523268   171A      0.524397   172A      0.529677  
     173A      0.532632   174A      0.539043   175A      0.543064  
     176A      0.549182   177A      0.554706   178A      0.555415  
     179A      0.564019   180A      0.565681   181A      0.574712  
     182A      0.578406   183A      0.589022   184A      0.594606  
     185A      0.595875   186A      0.604994   187A      0.606628  
     188A      0.613004   189A      0.620323   190A      0.620726  
     191A      0.630656   192A      0.638542   193A      0.647368  
     194A      0.649840   195A      0.653291   196A      0.661248  
     197A      0.669257   198A      0.677308   199A      0.681718  
     200A      0.682987   201A      0.688739   202A      0.695088  
     203A      0.699688   204A      0.704859   205A      0.706137  
     206A      0.720851   207A      0.721971   208A      0.726333  
     209A      0.729216   210A      0.731709   211A      0.740666  
     212A      0.745457   213A      0.746743   214A      0.751115  
     215A      0.767474   216A      0.769314   217A      0.773819  
     218A      0.777978   219A      0.786049   220A      0.793820  
     221A      0.796635   222A      0.808291   223A      0.812630  
     224A      0.816795   225A      0.823656   226A      0.831178  
     227A      0.837714   228A      0.845346   229A      0.852828  
     230A      0.856994   231A      0.866278   232A      0.868741  
     233A      0.872071   234A      0.873639   235A      0.878473  
     236A      0.890799   237A      0.891656   238A      0.894492  
     239A      0.898267   240A      0.902127   241A      0.910969  
     242A      0.916276   243A      0.917193   244A      0.920093  
     245A      0.924921   246A      0.930847   247A      0.936620  
     248A      0.941889   249A      0.947605   250A      0.952600  
     251A      0.955271   252A      0.961401   253A      0.965501  
     254A      0.967269   255A      0.974380   256A      0.977989  
     257A      0.983487   258A      0.990188   259A      0.992541  
     260A      0.998365   261A      1.003573   262A      1.008143  
[...]
	 B(9,3,17)        =         2.102376	     120.457298
	 B(9,4,18)        =         2.100648	     120.358268
	 B(9,8,11)        =         2.163779	     123.975376
	 B(10,2,16)       =         2.043125	     117.062437
	 B(10,5,11)       =         2.113014	     121.066763
	 B(10,5,19)       =         2.073020	     118.775290
	 B(11,5,19)       =         2.097034	     120.151226
	 B(12,6,20)       =         2.032560	     116.457104
	 B(12,7,21)       =         2.034898	     116.591065
	 D(1,2,10,5)      =         0.020277	       1.161795
	 D(1,2,10,13)     =        -3.123992	    -178.991538
	 D(1,8,9,3)       =         2.626287	     150.475149
	 D(1,8,9,4)       =        -0.414843	     -23.768726
	 D(1,8,11,5)      =         0.030621	       1.754429
	 D(1,8,11,14)     =         3.107306	     178.035515
	 D(2,1,8,9)       =        -3.032281	    -173.736918
	 D(2,1,8,11)      =         0.000128	       0.007345
	 D(2,10,5,11)     =         0.009004	       0.515888
	 D(2,10,5,19)     =        -3.116150	    -178.542240
	 D(3,6,12,7)      =         0.012121	       0.694481
	 D(3,6,12,22)     =        -3.133158	    -179.516742
	 D(3,9,4,7)       =         0.028023	       1.605585
	 D(3,9,4,18)      =         3.117949	     178.645298
	 D(3,9,8,11)      =        -0.395540	     -22.662789
	 D(4,7,12,6)      =        -0.001166	      -0.066809
	 D(4,7,12,22)     =        -3.139071	    -179.855527
	 D(4,9,3,6)       =        -0.017049	      -0.976811
	 D(4,9,3,17)      =         3.097752	     177.488115
	 D(4,9,8,11)      =         2.846516	     163.093336
	 D(5,10,2,16)     =        -3.096407	    -177.411063
	 D(5,11,8,9)      =         3.059474	     175.294970
	 D(6,3,9,8)       =        -3.064314	    -175.572282
	 D(6,12,7,21)     =        -3.130030	    -179.337505
	 D(7,4,9,8)       =         3.078569	     176.389025
	 D(7,12,6,20)     =        -3.106493	    -177.988949
	 D(8,1,2,10)      =        -0.024968	      -1.430540
	 D(8,1,2,16)      =         3.090789	     177.089142
	 D(8,9,3,17)      =         0.050486	       2.892645
	 D(8,9,4,18)      =        -0.114690	      -6.571262
	 D(8,11,5,10)     =        -0.035518	      -2.035020
	 D(8,11,5,19)     =         3.089412	     177.010242
	 D(9,3,6,12)      =        -0.002102	      -0.120453
	 D(9,3,6,20)      =         3.115081	     178.480983
	 D(9,4,7,12)      =        -0.019931	      -1.141964
	 D(9,4,7,21)      =         3.108115	     178.081882
	 D(9,8,1,15)      =         0.040702	       2.332065
	 D(9,8,11,14)     =        -0.147026	      -8.423943
	 D(10,2,1,15)     =        -3.097780	    -177.489747
	 D(10,5,11,14)    =        -3.111903	    -178.298897
	 D(11,5,10,13)    =        -3.129919	    -179.331140
	 D(11,8,1,15)     =         3.073112	     176.076328
	 D(12,6,3,17)     =        -3.117583	    -178.624365
	 D(12,7,4,18)     =        -3.111292	    -178.263874
	 D(13,10,2,16)    =         0.042509	       2.435604
	 D(13,10,5,19)    =         0.028113	       1.610732
	 D(14,11,5,19)    =         0.013027	       0.746364
	 D(15,1,2,16)     =         0.017976	       1.029935
	 D(17,3,6,20)     =        -0.000400	      -0.022928
	 D(18,4,7,21)     =         0.016755	       0.959973
	 D(20,6,12,22)    =         0.031413	       1.799829
	 D(21,7,12,22)    =         0.015250	       0.873777
	 R(3,14)          =         5.203532	       2.753590

	Current energy   :      -652.8333149310

	Energy change for the previous step:
		Projected    :        -0.0000023407
		Actual       :        -0.0000037173

	Performing BFGS update.
	Previous computed or guess Hessian on step 1.
	Steps to be used in Hessian update: 15 14
	Adding user-defined constraint: Fragment 1; Coordinate 62:
		Value =     2.626287; Fixed value    =     2.617990
		Force =    -0.007260; Force constant =     0.875000
	Removing off-diagonal coupling between coordinate 62 and others.
	Taking RFO optimization step.
	Going to follow RFO solution 1.
	Rejecting RFO root 1 because normalization gives large value.
	Using RFO vector 2.
	Norm of target step-size    0.00251
	Projected energy change by RFO approximation:        -0.0000000968

	Back-transformation to cartesian coordinates...
	Successfully converged to displaced geometry.

	--- Internal Coordinate Step in ANG or DEG, aJ/ANG or AJ/DEG ---
	 ---------------------------------------------------------------------------
	   Coordinate                Previous        Force       Change         New 
	   ----------                --------       ------       ------       ------
	    1 R(1,2)          =      1.355252     0.000109     0.000018     1.355270
	    2 R(1,8)          =      1.428262     0.000105     0.000018     1.428281
	    3 R(1,15)         =      1.079830    -0.000117    -0.000020     1.079809
	    4 R(2,10)         =      1.451078    -0.000032    -0.000020     1.451058
	    5 R(2,16)         =      1.079336    -0.000008    -0.000002     1.079333
	    6 R(3,6)          =      1.358141     0.000141     0.000016     1.358157
	    7 R(3,9)          =      1.427484     0.000037     0.000004     1.427488
	    8 R(3,17)         =      1.074650    -0.000129    -0.000019     1.074631
	    9 R(4,7)          =      1.357544     0.000102     0.000014     1.357558
	   10 R(4,9)          =      1.427641     0.000076     0.000004     1.427645
	   11 R(4,18)         =      1.076987    -0.000129    -0.000021     1.076966
	   12 R(5,10)         =      1.447092     0.000028    -0.000004     1.447088
	   13 R(5,11)         =      1.349525     0.000076     0.000017     1.349542
	   14 R(5,19)         =      1.077921    -0.000010    -0.000002     1.077919
	   15 R(6,12)         =      1.358756    -0.000029    -0.000005     1.358751
	   16 R(6,20)         =      1.077366    -0.000002    -0.000001     1.077365
	   17 R(7,12)         =      1.357823    -0.000028    -0.000004     1.357818
	   18 R(7,21)         =      1.077355    -0.000001    -0.000000     1.077354
	   19 R(8,9)          =      1.396563     0.000575     0.000087     1.396650
	   20 R(8,11)         =      1.421279     0.000046     0.000009     1.421288
	   21 R(10,13)        =      1.238416     0.000060     0.000010     1.238427
	   22 R(11,14)        =      1.357936    -0.000076    -0.000010     1.357926
	   23 R(12,22)        =      1.004945    -0.000018    -0.000004     1.004942
	   24 B(1,2,10)       =    122.073788     0.000000    -0.000378   122.073411
	   25 B(1,2,16)       =    120.848152    -0.000000    -0.003345   120.844807
	   26 B(1,8,9)        =    121.110655     0.000001    -0.000819   121.109836
	   27 B(1,8,11)       =    114.593079    -0.000001    -0.002482   114.590597
	   28 B(2,1,8)        =    122.867156     0.000000     0.001907   122.869064
	   29 B(2,1,15)       =    118.640434    -0.000000    -0.001587   118.638847
	   30 B(2,10,5)       =    114.918556    -0.000000    -0.000877   114.917679
	   31 B(2,10,13)      =    122.646436     0.000000     0.001048   122.647484
	   32 B(3,6,12)       =    120.965163     0.000000    -0.000276   120.964887
	   33 B(3,6,20)       =    122.563954     0.000000     0.000554   122.564508
	   34 B(3,9,4)        =    114.319785    -0.000001    -0.001721   114.318064
	   35 B(3,9,8)        =    124.300818    -0.000001    -0.002373   124.298445
	   36 B(4,7,12)       =    120.571260     0.000000     0.000348   120.571608
	   37 B(4,7,21)       =    122.833422     0.000000     0.000364   122.833786
	   38 B(4,9,8)        =    121.155076     0.000002     0.005320   121.160396
	   39 B(5,10,13)      =    122.434823    -0.000000    -0.000252   122.434571
	   40 B(5,11,8)       =    124.442005     0.000000    -0.000549   124.441456
	   41 B(5,11,14)      =    117.980242    -0.000000    -0.003249   117.976993
	   42 B(6,3,9)        =    121.711233     0.000000     0.001450   121.712683
	   43 B(6,3,17)       =    117.814419     0.000000     0.002154   117.816573
	   44 B(6,12,7)       =    120.273730    -0.000000    -0.000318   120.273412
	   45 B(6,12,22)      =    119.848924     0.000000     0.000270   119.849194
	   46 B(7,4,9)        =    122.140009     0.000000     0.000810   122.140819
	   47 B(7,4,18)       =    117.438761    -0.000000    -0.001349   117.437412
	   48 B(7,12,22)      =    119.877009     0.000000     0.000085   119.877094
	   49 B(8,1,15)       =    118.378845     0.000000     0.000298   118.379144
	   50 B(8,11,14)      =    117.477747    -0.000000     0.001260   117.479007
	   51 B(9,3,17)       =    120.457298    -0.000001    -0.003685   120.453613
	   52 B(9,4,18)       =    120.358268    -0.000000     0.000520   120.358788
	   53 B(9,8,11)       =    123.975376    -0.000001     0.001102   123.976478
	   54 B(10,2,16)      =    117.062437     0.000000     0.003939   117.066375
	   55 B(10,5,11)      =    121.066763     0.000000     0.002039   121.068802
	   56 B(10,5,19)      =    118.775290    -0.000000     0.000200   118.775490
	   57 B(11,5,19)      =    120.151226     0.000000    -0.002399   120.148827
	   58 B(12,6,20)      =    116.457104    -0.000000    -0.000079   116.457026
	   59 B(12,7,21)      =    116.591065    -0.000000    -0.000553   116.590512
	   60 D(1,2,10,5)     =      1.161795     0.000001     0.017759     1.179554
	   61 D(1,2,10,13)    =   -178.991538    -0.000000    -0.012600  -179.004139
	   62 D(1,8,9,3)      =    150.475149    -0.000000    -0.004266   150.470883
	   63 D(1,8,9,4)      =    -23.768726    -0.000000    -0.019897   -23.788623
	   64 D(1,8,11,5)     =      1.754429     0.000000     0.006653     1.761082
	   65 D(1,8,11,14)    =    178.035515    -0.000000    -0.040295   177.995220
	   66 D(2,1,8,9)      =   -173.736918    -0.000000     0.020280  -173.716638
	   67 D(2,1,8,11)     =      0.007345    -0.000000    -0.000961     0.006384
	   68 D(2,10,5,11)    =      0.515888    -0.000000    -0.012169     0.503719
	   69 D(2,10,5,19)    =   -178.542240    -0.000000    -0.001037  -178.543276
	   70 D(3,6,12,7)     =      0.694481     0.000000    -0.004699     0.689782
	   71 D(3,6,12,22)    =   -179.516742     0.000000     0.006901  -179.509841
	   72 D(3,9,4,7)      =      1.605585    -0.000000    -0.013756     1.591830
	   73 D(3,9,4,18)     =    178.645298    -0.000000    -0.014244   178.631054
	   74 D(3,9,8,11)     =    -22.662789     0.000000     0.019279   -22.643509
	   75 D(4,7,12,6)     =     -0.066809     0.000000     0.020658    -0.046151
	   76 D(4,7,12,22)    =   -179.855527     0.000000     0.009054  -179.846473
	   77 D(4,9,3,6)      =     -0.976811     0.000000     0.029571    -0.947241
	   78 D(4,9,3,17)     =    177.488115     0.000000     0.025954   177.514069
	   79 D(4,9,8,11)     =    163.093336    -0.000000     0.003649   163.096984
	   80 D(5,10,2,16)    =   -177.411063     0.000000     0.007919  -177.403143
	   81 D(5,11,8,9)     =    175.294970     0.000000    -0.015426   175.279544
	   82 D(6,3,9,8)      =   -175.572282    -0.000000     0.014524  -175.557758
	   83 D(6,12,7,21)    =   -179.337505     0.000000     0.006908  -179.330598
	   84 D(7,4,9,8)      =    176.389025     0.000000     0.000325   176.389350
	   85 D(7,12,6,20)    =   -177.988949    -0.000000    -0.014266  -178.003215
	   86 D(8,1,2,10)     =     -1.430540    -0.000000    -0.011642    -1.442182
	   87 D(8,1,2,16)     =    177.089142    -0.000000    -0.001332   177.087809
	   88 D(8,9,3,17)     =      2.892645    -0.000000     0.010907     2.903552
	   89 D(8,9,4,18)     =     -6.571262     0.000000    -0.000164    -6.571426
	   90 D(8,11,5,10)    =     -2.035020     0.000000     0.000295    -2.034724
	   91 D(8,11,5,19)    =    177.010242    -0.000000    -0.010964   176.999277
	   92 D(9,3,6,12)     =     -0.120453    -0.000000    -0.021481    -0.141935
	   93 D(9,3,6,20)     =    178.480983    -0.000000    -0.011328   178.469655
	   94 D(9,4,7,12)     =     -1.141964    -0.000000    -0.010647    -1.152612
	   95 D(9,4,7,21)     =    178.081882     0.000000     0.003979   178.085861
	   96 D(9,8,1,15)     =      2.332065     0.000000     0.030928     2.362992
	   97 D(9,8,11,14)    =     -8.423943    -0.000000    -0.062374    -8.486318
	   98 D(10,2,1,15)    =   -177.489747    -0.000000    -0.022387  -177.512134
	   99 D(10,5,11,14)   =   -178.298897     0.000001     0.047304  -178.251593
	  100 D(11,5,10,13)   =   -179.331140     0.000001     0.018116  -179.313024
	  101 D(11,8,1,15)    =    176.076328     0.000000     0.009687   176.086015
	  102 D(12,6,3,17)    =   -178.624365    -0.000000    -0.017870  -178.642234
	  103 D(12,7,4,18)    =   -178.263874    -0.000000    -0.010223  -178.274097
	  104 D(13,10,2,16)   =      2.435604    -0.000001    -0.022440     2.413164
	  105 D(13,10,5,19)   =      1.610732     0.000001     0.029249     1.639981
	  106 D(14,11,5,19)   =      0.746364     0.000001     0.036044     0.782408
	  107 D(15,1,2,16)    =      1.029935    -0.000000    -0.012077     1.017858
	  108 D(17,3,6,20)    =     -0.022928    -0.000000    -0.007717    -0.030644
	  109 D(18,4,7,21)    =      0.959973     0.000000     0.004404     0.964376
	  110 D(20,6,12,22)   =      1.799829    -0.000000    -0.002666     1.797163
	  111 D(21,7,12,22)   =      0.873777    -0.000000    -0.004696     0.869081
	  112 R(3,14)         =      2.753590     0.000088     0.000325     2.753916
	 ---------------------------------------------------------------------------
	Successfully symmetrized geometry.
	 Forces used to impose fixed constraints are not included.
	  Forces zeroed: 62 

  ==> Convergence Check <==

  Measures of convergence in internal coordinates in au.
  Criteria marked as inactive (o), active & met (*), and active & unmet ( ).
  ---------------------------------------------------------------------------------------------
   Step     Total Energy     Delta E     MAX Force     RMS Force      MAX Disp      RMS Disp   
  ---------------------------------------------------------------------------------------------
    Convergence Criteria    1.00e-06 *    3.00e-04 *             o    1.20e-03 *             o
  ---------------------------------------------------------------------------------------------
     16    -652.83331493   -3.72e-06      6.97e-05 *    1.31e-05 o    1.09e-03 *    2.37e-04 o  ~
  ---------------------------------------------------------------------------------------------


  **** Optimization is complete! (in 16 steps) ****

  ==> Optimization Summary <==

  Measures of convergence in internal coordinates in au.
  --------------------------------------------------------------------------------------------------------------- ~
   Step         Total Energy             Delta E       MAX Force       RMS Force        MAX Disp        RMS Disp  ~
  --------------------------------------------------------------------------------------------------------------- ~
      1    -652.812977997851   -652.812977997851      0.03364294      0.00951492      0.03226978      0.00944536  ~
      2    -652.821481304243     -0.008503306392      0.02195406      0.00667570      0.02795475      0.00944495  ~
      3    -652.827182507647     -0.005701203404      0.01306340      0.00413751      0.02466251      0.00944757  ~
      4    -652.830457579833     -0.003275072186      0.00613849      0.00212576      0.03670656      0.00946203  ~
      5    -652.832012567612     -0.001554987778      0.00401259      0.00096710      0.04624620      0.00947181  ~
      6    -652.832754202000     -0.000741634389      0.00273262      0.00054754      0.04988576      0.00947881  ~
      7    -652.833185784354     -0.000431582354      0.00153997      0.00035527      0.04773106      0.00948350  ~
      8    -652.833387845490     -0.000202061136      0.00179369      0.00029153      0.02083322      0.00475319  ~
      9    -652.833390925715     -0.000003080225      0.00132846      0.00019976      0.00610031      0.00145554  ~
     10    -652.833374408602      0.000016517113      0.00100074      0.00014835      0.00443181      0.00104705  ~
     11    -652.833359881068      0.000014527534      0.00075208      0.00011222      0.00371908      0.00104208  ~
     12    -652.833348958311      0.000010922757      0.00059759      0.00009281      0.00771411      0.00194450  ~
     13    -652.833337475812      0.000011482499      0.00048595      0.00009530      0.01491775      0.00392434  ~
     14    -652.833306118717      0.000031357095      0.00046936      0.00012432      0.01323060      0.00346652  ~
     15    -652.833311213688     -0.000005094970      0.00015145      0.00004893      0.00404115      0.00108337  ~
     16    -652.833314930986     -0.000003717298      0.00006975      0.00001312      0.00108863      0.00023738  ~
  --------------------------------------------------------------------------------------------------------------- ~

	Writing optimization data to binary file.
	Final energy is   -652.8333149309860
	Final (previous) structure:
	Cartesian Geometry (in Angstrom)
	    C    -1.4092616831   0.6363059138  -0.7574857651
	    C    -2.4344950323   1.2889833474  -0.1578048568
	    C     2.0853896813  -0.5620768889  -0.1375710682
	    C     0.6725319680  -0.9579121353  -2.0353543185
	    C    -1.4441265099   0.8049219774   2.0225644986
	    C     3.1379673244  -1.0293353452  -0.8574996389
	    C     1.7477421832  -1.4294938437  -2.7168664932
	    C    -0.3344267865   0.0439320957  -0.0268993585
	    C     0.7679325973  -0.5065168628  -0.6843173499
	    C    -2.5325954989   1.4092672937   1.2849476440
	    C    -0.4249630836   0.1931401861   1.3836229114
	    N     2.9732672421  -1.4664898124  -2.1334262973
	    O    -3.4739560469   1.9873973219   1.8446631215
	    F     0.5455867068  -0.3835334847   2.1382560383
	    H    -1.3693666994   0.6155436046  -1.8363784670
	    H    -3.2059130640   1.7648653333  -0.7438219607
	    H     2.2770294722  -0.2081169391   0.8588517162
	    H    -0.2805334444  -0.9780187106  -2.5365156775
	    H    -1.4664196022   0.8370707558   3.0997751561
	    H     4.1417645408  -1.0551746408  -0.4670631387
	    H     1.6827061921  -1.8008110360  -3.7261172561
	    H     3.7624990682  -1.8156481913  -2.6483209955
	Saving final (previous) structure.
			--------------------------
			 OPTKING Finished Execution 
			--------------------------

    Final optimized geometry and variables:
    Molecular point group: c1
    Full point group: C1

    Geometry (in Angstrom), charge = 0, multiplicity = 1:

    C           -1.409261683061     0.636305913826    -0.757485765138
    C           -2.434495032288     1.288983347374    -0.157804856847
    C            2.085389681296    -0.562076888864    -0.137571068182
    C            0.672531968037    -0.957912135255    -2.035354318463
    C           -1.444126509878     0.804921977354     2.022564498569
    C            3.137967324393    -1.029335345200    -0.857499638895
    C            1.747742183245    -1.429493843721    -2.716866493153
    C           -0.334426786478     0.043932095730    -0.026899358500
    C            0.767932597342    -0.506516862753    -0.684317349900
    C           -2.532595498898     1.409267293678     1.284947644035
    C           -0.424963083646     0.193140186135     1.383622911377
    N            2.973267242112    -1.466489812392    -2.133426297309
    O           -3.473956046881     1.987397321944     1.844663121467
    F            0.545586706846    -0.383533484711     2.138256038348
    H           -1.369366699435     0.615543604600    -1.836378466977
    H           -3.205913064024     1.764865333262    -0.743821960706
    H            2.277029472250    -0.208116939083     0.858851716227
    H           -0.280533444438    -0.978018710622    -2.536515677459
    H           -1.466419602190     0.837070755843     3.099775156074
    H            4.141764540766    -1.055174640780    -0.467063138651
    H            1.682706192145    -1.800811036029    -3.726117256103
    H            3.762499068206    -1.815648191298    -2.648320995522

	Cleaning optimization helper files.

*** Psi4 exiting successfully. Buy a developer a beer!
