
    -----------------------------------------------------------------------
          Psi4: An Open-Source Ab Initio Electronic Structure Package
                               Psi4 1.1 release

                         Git: Rev {HEAD} add49b9 


    R. M. Parrish, L. A. Burns, D. G. A. Smith, A. C. Simmonett,
    A. E. DePrince III, E. G. Hohenstein, U. Bozkaya, A. Yu. Sokolov,
    R. Di Remigio, R. M. Richard, J. F. Gonthier, A. M. James,
    H. R. McAlexander, A. Kumar, M. Saitow, X. Wang, B. P. Pritchard,
    P. Verma, H. F. Schaefer III, K. Patkowski, R. A. King, E. F. Valeev,
    F. A. Evangelista, J. M. Turney, T. D. Crawford, and C. D. Sherrill,
    J. Chem. Theory Comput. in press (2017).
    (doi: 10.1021/acs.jctc.7b00174)

    -----------------------------------------------------------------------


    Psi4 started on: Saturday, 11 November 2017 08:20PM

    Process ID:   5432
    PSIDATADIR: /cbio/jclab/home/chayas/anaconda/envs/py35/share/psi4
    Memory:     500.0 MiB
    Threads:    8
    
  ==> Input File <==

--------------------------------------------------------------------------

memory 5 Gb

molecule phepyrFOH_neutral {
  symmetry C1
  0 1 
  C      1.885   -1.036   -0.112
  C      0.807   -0.463   0.561
  C      5.339   -1.985   0.333
  C      3.814   -3.039   -1.200
  C      1.800   -1.079   2.676
  C      6.373   -2.578   -0.373
  C      4.916   -3.584   -1.837
  C      2.921   -1.631   0.608
  C      4.038   -2.225   -0.095
  C      0.764   -0.484   1.955
  C      2.878   -1.652   2.002
  N      6.195   -3.374   -1.451
  O      -0.289   0.076   2.612
  F      3.866   -2.220   2.709
  H      1.904   -1.012   -1.199
  H      0.002   -0.002   -0.006
  H      5.553   -1.356   1.191
  H      2.812   -3.248   -1.562
  H      1.772   -1.099   3.762
  H      7.406   -2.424   -0.079
  H      4.795   -4.225   -2.704
  H      -0.175   -0.018   3.571
  units Angstrom
}

dih_string = "1 8 9 3 135"
set optking fixed_dihedral = $dih_string

optimize('MP2/aug-cc-PVTZ')
--------------------------------------------------------------------------

  Memory set to   4.657 GiB by Python driver.
gradient() will perform analytic gradient computation.

*** tstart() called on gpu-2-4.local
*** at Sat Nov 11 20:20:59 2017

    SCF Algorithm Type (re)set to DF.

*** tstart() called on gpu-2-4.local
*** at Sat Nov 11 20:20:59 2017

   => Loading Basis Set <=

    Name: AUG-CC-PVTZ
    Role: ORBITAL
    Keyword: BASIS
    atoms 1-11  entry C          line   221 file /cbio/jclab/home/chayas/anaconda/envs/py35/share/psi4/basis/aug-cc-pvtz.gbs 
    atoms 12    entry N          line   267 file /cbio/jclab/home/chayas/anaconda/envs/py35/share/psi4/basis/aug-cc-pvtz.gbs 
    atoms 13    entry O          line   313 file /cbio/jclab/home/chayas/anaconda/envs/py35/share/psi4/basis/aug-cc-pvtz.gbs 
    atoms 14    entry F          line   359 file /cbio/jclab/home/chayas/anaconda/envs/py35/share/psi4/basis/aug-cc-pvtz.gbs 
    atoms 15-22 entry H          line    34 file /cbio/jclab/home/chayas/anaconda/envs/py35/share/psi4/basis/aug-cc-pvtz.gbs 


         ---------------------------------------------------------
                                   SCF
            by Justin Turney, Rob Parrish, and Andy Simmonett
                              RHF Reference
                        8 Threads,   4768 MiB Core
         ---------------------------------------------------------

  ==> Geometry <==

    Molecular point group: c1
    Full point group: C1

    Geometry (in Angstrom), charge = 0, multiplicity = 1:

       Center              X                  Y                   Z               Mass       
    ------------   -----------------  -----------------  -----------------  -----------------
           C         -1.321679957117     0.755863691834    -0.800357645070    12.000000000000
           C         -2.399679957117     1.328863691834    -0.127357645070    12.000000000000
           C          2.132320042883    -0.193136308166    -0.355357645070    12.000000000000
           C          0.607320042883    -1.247136308166    -1.888357645070    12.000000000000
           C         -1.406679957117     0.712863691834     1.987642354930    12.000000000000
           C          3.166320042883    -0.786136308166    -1.061357645070    12.000000000000
           C          1.709320042883    -1.792136308166    -2.525357645070    12.000000000000
           C         -0.285679957117     0.160863691834    -0.080357645070    12.000000000000
           C          0.831320042883    -0.433136308166    -0.783357645070    12.000000000000
           C         -2.442679957117     1.307863691834     1.266642354930    12.000000000000
           C         -0.328679957117     0.139863691834     1.313642354930    12.000000000000
           N          2.988320042883    -1.582136308166    -2.139357645070    14.003074004780
           O         -3.495679957117     1.867863691834     1.923642354930    15.994914619560
           F          0.659320042883    -0.428136308166     2.020642354930    18.998403224000
           H         -1.302679957117     0.779863691834    -1.887357645070     1.007825032070
           H         -3.204679957117     1.789863691834    -0.694357645070     1.007825032070
           H          2.346320042883     0.435863691834     0.502642354930     1.007825032070
           H         -0.394679957117    -1.456136308166    -2.250357645070     1.007825032070
           H         -1.434679957117     0.692863691834     3.073642354930     1.007825032070
           H          4.199320042883    -0.632136308166    -0.767357645070     1.007825032070
           H          1.588320042883    -2.433136308166    -3.392357645070     1.007825032070
           H         -3.381679957117     1.773863691834     2.882642354930     1.007825032070

  Running in c1 symmetry.

  Rotational constants: A =      0.06328  B =      0.01330  C =      0.01148 [cm^-1]
  Rotational constants: A =   1897.00043  B =    398.64001  C =    344.18131 [MHz]
  Nuclear repulsion =  815.211877001396260

  Charge       = 0
  Multiplicity = 1
  Electrons    = 98
  Nalpha       = 49
  Nbeta        = 49

  ==> Algorithm <==

  SCF Algorithm Type is DF.
  DIIS enabled.
  MOM disabled.
  Fractional occupation disabled.
  Guess Type is SAD.
  Energy threshold   = 1.00e-10
  Density threshold  = 1.00e-10
  Integral threshold = 0.00e+00

  ==> Primary Basis <==

  Basis Set: AUG-CC-PVTZ
    Blend: AUG-CC-PVTZ
    Number of shells: 268
    Number of basis function: 828
    Number of Cartesian functions: 970
    Spherical Harmonics?: true
    Max angular momentum: 3

   => Loading Basis Set <=

    Name: (AUG-CC-PVTZ AUX)
    Role: JKFIT
    Keyword: DF_BASIS_SCF
    atoms 1-11  entry C          line   161 file /cbio/jclab/home/chayas/anaconda/envs/py35/share/psi4/basis/aug-cc-pvtz-jkfit.gbs 
    atoms 12    entry N          line   223 file /cbio/jclab/home/chayas/anaconda/envs/py35/share/psi4/basis/aug-cc-pvtz-jkfit.gbs 
    atoms 13    entry O          line   285 file /cbio/jclab/home/chayas/anaconda/envs/py35/share/psi4/basis/aug-cc-pvtz-jkfit.gbs 
    atoms 14    entry F          line   347 file /cbio/jclab/home/chayas/anaconda/envs/py35/share/psi4/basis/aug-cc-pvtz-jkfit.gbs 
    atoms 15-22 entry H          line    69 file /cbio/jclab/home/chayas/anaconda/envs/py35/share/psi4/basis/aug-cc-pvtz-jkfit.gbs 

  ==> Pre-Iterations <==

   -------------------------------------------------------
    Irrep   Nso     Nmo     Nalpha   Nbeta   Ndocc  Nsocc
   -------------------------------------------------------
     A        828     828       0       0       0       0
   -------------------------------------------------------
    Total     828     828      49      49      49       0
   -------------------------------------------------------

  ==> Integral Setup <==

  ==> DFJK: Density-Fitted J/K Matrices <==

    J tasked:                  Yes
    K tasked:                  Yes
    wK tasked:                  No
    OpenMP threads:              8
    Integrals threads:           8
    Memory (MB):              3576
    Algorithm:                Disk
    Integral Cache:           NONE
    Schwarz Cutoff:          1E-12
    Fitting Condition:       1E-12

   => Auxiliary Basis Set <=

  Basis Set: (AUG-CC-PVTZ AUX)
    Blend: AUG-CC-PVTZ-JKFIT
    Number of shells: 532
    Number of basis function: 1824
    Number of Cartesian functions: 2274
    Spherical Harmonics?: true
    Max angular momentum: 4

  Minimum eigenvalue in the overlap matrix is 7.0077688084E-07.
  Using Symmetric Orthogonalization.

  SCF Guess: Superposition of Atomic Densities via on-the-fly atomic UHF.

  ==> Iterations <==

                           Total Energy        Delta E     RMS |[F,P]|

   @DF-RHF iter   0:  -655.59777980848344   -6.55598e+02   1.39292e-02 
   @DF-RHF iter   1:  -649.75788405628555    5.83990e+00   2.04963e-03 
   @DF-RHF iter   2:  -650.10575565410318   -3.47872e-01   8.62196e-04 DIIS
   @DF-RHF iter   3:  -650.15779169789221   -5.20360e-02   3.93117e-04 DIIS
   @DF-RHF iter   4:  -650.17170842782787   -1.39167e-02   1.02412e-04 DIIS
   @DF-RHF iter   5:  -650.17307235840849   -1.36393e-03   4.20282e-05 DIIS
   @DF-RHF iter   6:  -650.17331123021449   -2.38872e-04   1.74753e-05 DIIS
   @DF-RHF iter   7:  -650.17335374769470   -4.25175e-05   6.57518e-06 DIIS
   @DF-RHF iter   8:  -650.17335925151349   -5.50382e-06   2.01895e-06 DIIS
   @DF-RHF iter   9:  -650.17336008095140   -8.29438e-07   8.83506e-07 DIIS
   @DF-RHF iter  10:  -650.17336030415242   -2.23201e-07   4.32132e-07 DIIS
   @DF-RHF iter  11:  -650.17336036319148   -5.90391e-08   1.66761e-07 DIIS
   @DF-RHF iter  12:  -650.17336037195059   -8.75912e-09   5.98349e-08 DIIS
   @DF-RHF iter  13:  -650.17336037266773   -7.17137e-10   2.68523e-08 DIIS
   @DF-RHF iter  14:  -650.17336037276118   -9.34506e-11   5.76313e-09 DIIS
   @DF-RHF iter  15:  -650.17336037276243   -1.25056e-12   3.00691e-09 DIIS
   @DF-RHF iter  16:  -650.17336037277846   -1.60298e-11   1.40067e-09 DIIS
   @DF-RHF iter  17:  -650.17336037276698    1.14824e-11   5.38984e-10 DIIS
   @DF-RHF iter  18:  -650.17336037277119   -4.20641e-12   2.98945e-10 DIIS
   @DF-RHF iter  19:  -650.17336037278051   -9.32232e-12   1.42196e-10 DIIS
   @DF-RHF iter  20:  -650.17336037276959    1.09139e-11   4.86754e-11 DIIS

  ==> Post-Iterations <==

    Orbital Energies (a.u.)
    -----------------------

    Doubly Occupied:                                                      

       1A    -26.329547     2A    -20.610470     3A    -15.563570  
       4A    -11.351083     5A    -11.329418     6A    -11.273940  
       7A    -11.272788     8A    -11.266187     9A    -11.265239  
      10A    -11.255459    11A    -11.253777    12A    -11.246945  
      13A    -11.238764    14A    -11.236332    15A     -1.648547  
      16A     -1.425030    17A     -1.249147    18A     -1.182841  
      19A     -1.110387    20A     -1.043021    21A     -1.033452  
      22A     -1.019840    23A     -0.893333    24A     -0.879560  
      25A     -0.851465    26A     -0.825373    27A     -0.773822  
      28A     -0.749607    29A     -0.724371    30A     -0.714983  
      31A     -0.699367    32A     -0.666699    33A     -0.659107  
      34A     -0.640240    35A     -0.635302    36A     -0.614566  
      37A     -0.609679    38A     -0.597497    39A     -0.578180  
      40A     -0.544647    41A     -0.537463    42A     -0.533840  
      43A     -0.517964    44A     -0.497203    45A     -0.418219  
      46A     -0.394465    47A     -0.360667    48A     -0.348719  
      49A     -0.318500  

    Virtual:                                                              

      50A      0.021633    51A      0.028605    52A      0.034539  
      53A      0.037882    54A      0.044709    55A      0.046509  
      56A      0.054672    57A      0.055677    58A      0.076216  
      59A      0.080183    60A      0.082006    61A      0.082865  
      62A      0.091178    63A      0.095583    64A      0.096992  
      65A      0.102196    66A      0.104272    67A      0.107347  
      68A      0.110326    69A      0.112543    70A      0.114463  
      71A      0.119069    72A      0.120945    73A      0.127166  
      74A      0.130267    75A      0.132124    76A      0.134605  
      77A      0.137912    78A      0.141809    79A      0.145449  
      80A      0.148963    81A      0.152425    82A      0.153606  
      83A      0.157715    84A      0.166222    85A      0.167106  
      86A      0.173850    87A      0.176141    88A      0.177988  
      89A      0.185263    90A      0.195176    91A      0.203691  
      92A      0.213118    93A      0.213816    94A      0.218294  
      95A      0.222103    96A      0.226632    97A      0.231305  
      98A      0.237088    99A      0.238184   100A      0.241051  
     101A      0.244791   102A      0.245732   103A      0.251626  
     104A      0.253928   105A      0.261955   106A      0.264329  
     107A      0.269054   108A      0.271677   109A      0.275847  
     110A      0.276449   111A      0.280496   112A      0.288550  
     113A      0.289181   114A      0.296677   115A      0.299148  
     116A      0.302961   117A      0.311036   118A      0.312979  
     119A      0.316824   120A      0.318291   121A      0.323525  
     122A      0.327011   123A      0.329839   124A      0.332396  
     125A      0.340843   126A      0.346730   127A      0.347285  
     128A      0.353737   129A      0.357894   130A      0.359473  
     131A      0.372279   132A      0.376988   133A      0.381901  
     134A      0.387786   135A      0.392680   136A      0.397052  
     137A      0.400307   138A      0.403403   139A      0.407088  
     140A      0.415376   141A      0.419221   142A      0.422346  
     143A      0.423302   144A      0.428371   145A      0.433331  
     146A      0.436625   147A      0.444345   148A      0.446501  
     149A      0.448278   150A      0.454619   151A      0.459174  
     152A      0.462535   153A      0.467252   154A      0.468271  
     155A      0.473771   156A      0.476596   157A      0.478936  
     158A      0.484380   159A      0.486630   160A      0.491127  
     161A      0.496412   162A      0.498171   163A      0.498594  
     164A      0.502169   165A      0.507363   166A      0.511069  
     167A      0.512954   168A      0.515339   169A      0.520154  
     170A      0.525054   171A      0.527356   172A      0.532463  
     173A      0.534036   174A      0.540726   175A      0.542620  
     176A      0.545255   177A      0.551184   178A      0.554230  
     179A      0.555573   180A      0.566279   181A      0.569801  
     182A      0.578161   183A      0.580191   184A      0.586785  
     185A      0.591917   186A      0.595334   187A      0.601733  
     188A      0.606402   189A      0.611542   190A      0.618440  
     191A      0.632958   192A      0.638927   193A      0.641584  
     194A      0.648814   195A      0.653380   196A      0.660334  
     197A      0.662227   198A      0.676449   199A      0.684051  
     200A      0.686548   201A      0.689968   202A      0.699042  
     203A      0.707285   204A      0.707470   205A      0.712540  
     206A      0.720776   207A      0.727995   208A      0.728373  
     209A      0.736377   210A      0.739865   211A      0.746405  
     212A      0.748131   213A      0.751131   214A      0.759349  
     215A      0.762289   216A      0.768110   217A      0.775462  
     218A      0.778776   219A      0.791504   220A      0.793446  
     221A      0.805748   222A      0.808100   223A      0.818876  
     224A      0.820357   225A      0.826201   226A      0.826647  
     227A      0.833670   228A      0.839490   229A      0.846199  
     230A      0.852398   231A      0.860101   232A      0.864063  
     233A      0.869807   234A      0.870977   235A      0.876916  
     236A      0.879362   237A      0.883901   238A      0.887040  
     239A      0.896048   240A      0.898169   241A      0.902550  
     242A      0.910440   243A      0.914618   244A      0.922530  
     245A      0.926092   246A      0.928563   247A      0.936242  
     248A      0.939139   249A      0.942622   250A      0.946485  
     251A      0.952982   252A      0.962237   253A      0.964801  
     254A      0.965594   255A      0.971894   256A      0.974576  
     257A      0.978476   258A      0.984166   259A      0.988942  
     260A      0.996256   261A      0.998687   262A      1.006441  
     263A      1.008738   264A      1.013941   265A      1.020314  
     266A      1.022418   267A      1.026051   268A      1.030479  
     269A      1.038432   270A      1.041934   271A      1.044353  
     272A      1.051143   273A      1.052069   274A      1.056059  
     275A      1.062723   276A      1.065581   277A      1.069618  
     278A      1.075144   279A      1.077119   280A      1.079468  
     281A      1.080430   282A      1.090040   283A      1.093681  
     284A      1.102086   285A      1.106432   286A      1.113106  
     287A      1.115160   288A      1.119570   289A      1.125403  
     290A      1.132191   291A      1.137427   292A      1.141194  
     293A      1.145376   294A      1.150504   295A      1.152724  
     296A      1.161911   297A      1.162843   298A      1.172646  
     299A      1.174218   300A      1.177778   301A      1.186323  
     302A      1.189972   303A      1.198715   304A      1.200982  
     305A      1.204657   306A      1.216091   307A      1.218495  
     308A      1.224020   309A      1.230809   310A      1.234030  
     311A      1.242539   312A      1.244056   313A      1.247188  
     314A      1.256365   315A      1.259749   316A      1.268811  
     317A      1.271156   318A      1.282619   319A      1.285958  
     320A      1.292608   321A      1.300016   322A      1.301165  
     323A      1.313935   324A      1.324312   325A      1.326868  
     326A      1.332192   327A      1.337154   328A      1.352161  
     329A      1.360104   330A      1.361300   331A      1.368144  
     332A      1.368481   333A      1.377427   334A      1.387173  
     335A      1.389896   336A      1.402381   337A      1.403576  
     338A      1.415029   339A      1.422707   340A      1.427460  
     341A      1.436469   342A      1.446543   343A      1.451948  
     344A      1.465820   345A      1.472629   346A      1.477876  
     347A      1.489856   348A      1.491844   349A      1.497921  
     350A      1.506977   351A      1.510013   352A      1.518788  
     353A      1.528071   354A      1.538957   355A      1.551212  
     356A      1.555904   357A      1.570704   358A      1.576430  
     359A      1.586546   360A      1.588078   361A      1.588590  
     362A      1.600152   363A      1.607356   364A      1.615083  
     365A      1.635219   366A      1.643399   367A      1.645267  
     368A      1.650635   369A      1.654536   370A      1.658836  
     371A      1.666314   372A      1.677999   373A      1.681542  
     374A      1.695252   375A      1.697527   376A      1.700587  
     377A      1.705244   378A      1.720956   379A      1.724014  
     380A      1.732797   381A      1.739206   382A      1.742075  
     383A      1.745280   384A      1.751962   385A      1.774098  
     386A      1.779968   387A      1.786095   388A      1.790299  
     389A      1.795714   390A      1.800580   391A      1.804391  
     392A      1.814157   393A      1.823865   394A      1.835617  
     395A      1.840278   396A      1.849541   397A      1.858724  
     398A      1.866438   399A      1.876048   400A      1.888602  
     401A      1.891972   402A      1.904409   403A      1.911637  
     404A      1.912297   405A      1.922229   406A      1.924324  
     407A      1.938187   408A      1.943612   409A      1.947460  
     410A      1.951129   411A      1.963360   412A      1.966788  
     413A      1.979203   414A      1.986073   415A      1.991872  
     416A      2.005003   417A      2.010779   418A      2.012749  
     419A      2.024067   420A      2.030881   421A      2.039817  
     422A      2.047480   423A      2.052582   424A      2.061534  
     425A      2.068840   426A      2.080306   427A      2.083421  
     428A      2.092182   429A      2.101211   430A      2.117035  
     431A      2.121826   432A      2.128113   433A      2.129021  
     434A      2.139631   435A      2.148835   436A      2.150250  
     437A      2.155039   438A      2.162029   439A      2.172818  
     440A      2.185549   441A      2.202168   442A      2.208213  
     443A      2.216068   444A      2.221303   445A      2.235412  
     446A      2.239381   447A      2.265513   448A      2.272263  
     449A      2.274691   450A      2.279973   451A      2.284685  
     452A      2.295740   453A      2.302550   454A      2.314813  
     455A      2.320121   456A      2.337335   457A      2.342543  
     458A      2.347035   459A      2.360016   460A      2.366647  
     461A      2.374558   462A      2.385087   463A      2.406074  
     464A      2.419538   465A      2.426238   466A      2.427272  
     467A      2.442296   468A      2.467656   469A      2.468313  
     470A      2.480911   471A      2.490975   472A      2.507904  
     473A      2.519166   474A      2.533260   475A      2.537700  
     476A      2.560441   477A      2.562441   478A      2.578866  
     479A      2.579424   480A      2.584917   481A      2.590301  
     482A      2.613136   483A      2.621433   484A      2.629643  
     485A      2.643725   486A      2.674565   487A      2.688597  
     488A      2.695923   489A      2.721822   490A      2.732237  
     491A      2.753574   492A      2.757001   493A      2.777446  
     494A      2.791150   495A      2.818951   496A      2.820687  
     497A      2.830550   498A      2.844275   499A      2.849922  
     500A      2.869933   501A      2.888303   502A      2.894964  
     503A      2.925627   504A      2.947469   505A      2.962048  
     506A      2.982902   507A      3.014887   508A      3.041839  
     509A      3.045695   510A      3.060366   511A      3.073569  
     512A      3.085620   513A      3.119981   514A      3.134256  
     515A      3.137529   516A      3.155770   517A      3.158722  
     518A      3.170346   519A      3.191036   520A      3.197819  
     521A      3.203479   522A      3.214473   523A      3.236545  
     524A      3.247077   525A      3.271882   526A      3.276795  
     527A      3.290673   528A      3.302766   529A      3.313325  
     530A      3.326590   531A      3.341392   532A      3.346641  
     533A      3.358709   534A      3.364157   535A      3.380851  
     536A      3.387283   537A      3.402499   538A      3.408548  
     539A      3.419201   540A      3.423106   541A      3.436195  
     542A      3.446750   543A      3.453982   544A      3.459681  
     545A      3.462644   546A      3.472911   547A      3.489929  
     548A      3.495677   549A      3.500830   550A      3.507450  
     551A      3.518802   552A      3.532065   553A      3.538430  
     554A      3.547584   555A      3.560667   556A      3.562230  
     557A      3.567333   558A      3.576821   559A      3.582172  
     560A      3.593269   561A      3.602764   562A      3.613031  
     563A      3.616595   564A      3.627532   565A      3.631156  
     566A      3.641812   567A      3.657355   568A      3.665622  
     569A      3.675810   570A      3.684195   571A      3.689256  
     572A      3.702968   573A      3.710967   574A      3.725131  
     575A      3.739448   576A      3.757318   577A      3.760477  
     578A      3.765574   579A      3.767404   580A      3.772030  
     581A      3.782610   582A      3.799510   583A      3.808332  
     584A      3.815719   585A      3.825633   586A      3.826029  
     587A      3.840549   588A      3.852891   589A      3.856742  
     590A      3.863310   591A      3.875923   592A      3.878997  
     593A      3.884121   594A      3.890330   595A      3.907622  
     596A      3.920376   597A      3.921446   598A      3.931290  
     599A      3.943656   600A      3.945971   601A      3.951072  
     602A      3.959253   603A      3.962943   604A      3.979479  
     605A      3.987956   606A      4.001918   607A      4.008463  
     608A      4.021552   609A      4.024892   610A      4.028482  
     611A      4.043048   612A      4.055129   613A      4.057487  
     614A      4.061452   615A      4.085243   616A      4.094176  
     617A      4.100053   618A      4.105524   619A      4.112654  
     620A      4.126337   621A      4.133233   622A      4.143436  
     623A      4.146418   624A      4.157317   625A      4.167895  
     626A      4.178499   627A      4.185361   628A      4.197846  
     629A      4.205999   630A      4.214600   631A      4.219638  
     632A      4.229381   633A      4.244567   634A      4.249919  
     635A      4.273056   636A      4.275534   637A      4.293881  
     638A      4.306448   639A      4.310714   640A      4.312163  
     641A      4.323800   642A      4.337059   643A      4.339182  
     644A      4.347991   645A      4.350684   646A      4.361785  
     647A      4.368209   648A      4.383483   649A      4.384149  
     650A      4.391570   651A      4.397562   652A      4.408875  
     653A      4.425050   654A      4.429032   655A      4.436489  
     656A      4.448805   657A      4.459028   658A      4.472199  
     659A      4.479037   660A      4.487120   661A      4.507895  
     662A      4.512671   663A      4.517376   664A      4.525686  
     665A      4.533727   666A      4.554469   667A      4.574333  
     668A      4.584354   669A      4.596039   670A      4.598649  
     671A      4.603562   672A      4.607860   673A      4.634134  
     674A      4.650446   675A      4.671222   676A      4.678645  
     677A      4.684839   678A      4.703728   679A      4.714649  
     680A      4.721012   681A      4.738373   682A      4.756232  
     683A      4.769221   684A      4.774559   685A      4.792387  
     686A      4.800582   687A      4.826451   688A      4.846578  
     689A      4.865312   690A      4.882607   691A      4.885114  
     692A      4.888258   693A      4.912358   694A      4.944622  
     695A      4.965696   696A      4.968614   697A      4.976516  
     698A      4.982056   699A      4.992243   700A      5.000597  
     701A      5.014266   702A      5.027138   703A      5.038035  
     704A      5.044354   705A      5.052280   706A      5.071435  
     707A      5.087277   708A      5.092895   709A      5.108660  
     710A      5.113741   711A      5.128054   712A      5.133592  
     713A      5.141207   714A      5.166013   715A      5.173380  
     716A      5.183886   717A      5.188536   718A      5.197542  
     719A      5.211993   720A      5.231514   721A      5.249131  
     722A      5.261410   723A      5.272528   724A      5.289720  
     725A      5.309175   726A      5.326139   727A      5.334588  
     728A      5.348003   729A      5.363095   730A      5.375810  
     731A      5.411376   732A      5.427888   733A      5.446691  
     734A      5.449568   735A      5.466048   736A      5.474658  
     737A      5.483700   738A      5.498864   739A      5.535635  
     740A      5.560935   741A      5.568387   742A      5.584972  
     743A      5.592762   744A      5.623815   745A      5.646087  
     746A      5.694735   747A      5.701323   748A      5.752170  
     749A      5.761847   750A      5.766803   751A      5.797535  
     752A      5.807832   753A      5.840981   754A      5.846255  
     755A      5.880144   756A      5.885126   757A      5.912482  
     758A      5.962290   759A      6.005442   760A      6.040760  
     761A      6.083135   762A      6.116107   763A      6.134167  
     764A      6.186747   765A      6.238077   766A      6.248696  
     767A      6.296739   768A      6.313306   769A      6.332757  
     770A      6.390721   771A      6.404652   772A      6.459452  
     773A      6.496256   774A      6.514647   775A      6.535527  
     776A      6.593871   777A      6.687709   778A      6.704503  
     779A      6.710226   780A      6.722139   781A      6.735524  
     782A      6.849332   783A      6.871309   784A      6.884790  
     785A      6.936891   786A      6.947403   787A      6.992436  
     788A      7.041920   789A      7.057406   790A      7.084841  
     791A      7.191788   792A      7.251757   793A      7.392528  
     794A      7.415080   795A      7.422550   796A      7.470308  
     797A      7.679152   798A      7.683105   799A      7.744739  
     800A      7.993771   801A      8.375395   802A      8.629980  
     803A      9.045883   804A      9.066928   805A      9.268534  
     806A      9.287549   807A      9.413850   808A      9.524965  
     809A      9.555559   810A      9.614170   811A      9.642835  
     812A      9.715283   813A     10.034700   814A     10.088714  
     815A     15.535490   816A     16.200967   817A     16.551081  
     818A     16.603319   819A     16.690103   820A     16.829978  
     821A     18.466524   822A     18.718892   823A     19.266599  
     824A     19.700411   825A     20.153700   826A     20.277851  
     827A     20.443305   828A     21.847860  

    Final Occupation by Irrep:
              A 
    DOCC [    49 ]

  Energy converged.

  @DF-RHF Final Energy:  -650.17336037276959

   => Energetics <=

    Nuclear Repulsion Energy =            815.2118770013962603
    One-Electron Energy =               -2505.1892306259765064
    Two-Electron Energy =                1039.8039932518106525
    DFT Exchange-Correlation Energy =       0.0000000000000000
    Empirical Dispersion Energy =           0.0000000000000000
    PCM Polarization Energy =               0.0000000000000000
    EFP Energy =                            0.0000000000000000
    Total Energy =                       -650.1733603727695936



Properties will be evaluated at   0.000000,   0.000000,   0.000000 Bohr

Properties computed using the SCF density matrix

  Nuclear Dipole Moment: (a.u.)
     X:    -2.1328      Y:     1.3089      Z:    -4.2652

  Electronic Dipole Moment: (a.u.)
     X:     1.0957      Y:    -0.7442      Z:     4.9483

  Dipole Moment: (a.u.)
     X:    -1.0371      Y:     0.5647      Z:     0.6831     Total:     1.3642

  Dipole Moment: (Debye)
     X:    -2.6361      Y:     1.4353      Z:     1.7363     Total:     3.4675


*** tstop() called on gpu-2-4.local at Sat Nov 11 20:28:51 2017
Module time:
	user time   =    1140.66 seconds =      19.01 minutes
	system time =      49.95 seconds =       0.83 minutes
	total time  =        472 seconds =       7.87 minutes
Total time:
	user time   =    1140.67 seconds =      19.01 minutes
	system time =      49.95 seconds =       0.83 minutes
	total time  =        472 seconds =       7.87 minutes

  //>>>>>>>>>>>>>>>>>>>>>>>>>>>>>>>>>>>//
  //               DFMP2               //
  //<<<<<<<<<<<<<<<<<<<<<<<<<<<<<<<<<<<//

   => Loading Basis Set <=

    Name: (AUG-CC-PVTZ AUX)
    Role: RIFIT
    Keyword: DF_BASIS_MP2
    atoms 1-11  entry C          line   147 file /cbio/jclab/home/chayas/anaconda/envs/py35/share/psi4/basis/aug-cc-pvtz-ri.gbs 
    atoms 12    entry N          line   205 file /cbio/jclab/home/chayas/anaconda/envs/py35/share/psi4/basis/aug-cc-pvtz-ri.gbs 
    atoms 13    entry O          line   263 file /cbio/jclab/home/chayas/anaconda/envs/py35/share/psi4/basis/aug-cc-pvtz-ri.gbs 
    atoms 14    entry F          line   321 file /cbio/jclab/home/chayas/anaconda/envs/py35/share/psi4/basis/aug-cc-pvtz-ri.gbs 
    atoms 15-22 entry H          line    29 file /cbio/jclab/home/chayas/anaconda/envs/py35/share/psi4/basis/aug-cc-pvtz-ri.gbs 

	 --------------------------------------------------------
	                          DF-MP2                         
	      2nd-Order Density-Fitted Moller-Plesset Theory     
	              RMP2 Wavefunction,   8 Threads             
	                                                         
	        Rob Parrish, Justin Turney, Andy Simmonett,      
	           Ed Hohenstein, and C. David Sherrill          
	 --------------------------------------------------------

   => Auxiliary Basis Set <=

  Basis Set: (AUG-CC-PVTZ AUX)
    Blend: AUG-CC-PVTZ-RI
    Number of shells: 504
    Number of basis function: 1852
    Number of Cartesian functions: 2344
    Spherical Harmonics?: true
    Max angular momentum: 4

	 --------------------------------------------------------
	                 NBF =   828, NAUX =  1852
	 --------------------------------------------------------
	   CLASS    FOCC     OCC    AOCC    AVIR     VIR    FVIR
	   PAIRS       0      49      49     779     779       0
	 --------------------------------------------------------


         ------------------------------------------------------------
                                     CPHF                           
                                  Rob Parrish                       
         ------------------------------------------------------------

  ==> Geometry <==

    Molecular point group: c1
    Full point group: C1

    Geometry (in Angstrom), charge = 0, multiplicity = 1:

       Center              X                  Y                   Z               Mass       
    ------------   -----------------  -----------------  -----------------  -----------------
           C         -1.321679957117     0.755863691834    -0.800357645070    12.000000000000
           C         -2.399679957117     1.328863691834    -0.127357645070    12.000000000000
           C          2.132320042883    -0.193136308166    -0.355357645070    12.000000000000
           C          0.607320042883    -1.247136308166    -1.888357645070    12.000000000000
           C         -1.406679957117     0.712863691834     1.987642354930    12.000000000000
           C          3.166320042883    -0.786136308166    -1.061357645070    12.000000000000
           C          1.709320042883    -1.792136308166    -2.525357645070    12.000000000000
           C         -0.285679957117     0.160863691834    -0.080357645070    12.000000000000
           C          0.831320042883    -0.433136308166    -0.783357645070    12.000000000000
           C         -2.442679957117     1.307863691834     1.266642354930    12.000000000000
           C         -0.328679957117     0.139863691834     1.313642354930    12.000000000000
           N          2.988320042883    -1.582136308166    -2.139357645070    14.003074004780
           O         -3.495679957117     1.867863691834     1.923642354930    15.994914619560
           F          0.659320042883    -0.428136308166     2.020642354930    18.998403224000
           H         -1.302679957117     0.779863691834    -1.887357645070     1.007825032070
           H         -3.204679957117     1.789863691834    -0.694357645070     1.007825032070
           H          2.346320042883     0.435863691834     0.502642354930     1.007825032070
           H         -0.394679957117    -1.456136308166    -2.250357645070     1.007825032070
           H         -1.434679957117     0.692863691834     3.073642354930     1.007825032070
           H          4.199320042883    -0.632136308166    -0.767357645070     1.007825032070
           H          1.588320042883    -2.433136308166    -3.392357645070     1.007825032070
           H         -3.381679957117     1.773863691834     2.882642354930     1.007825032070

  Nuclear repulsion =  815.211877001396260
  Reference energy  = -650.173360372769594

  ==> Basis Set <==

  Basis Set: AUG-CC-PVTZ
    Blend: AUG-CC-PVTZ
    Number of shells: 268
    Number of basis function: 828
    Number of Cartesian functions: 970
    Spherical Harmonics?: true
    Max angular momentum: 3

  ==> CGRSolver (by Rob Parrish) <==

   Number of roots    =         1
   Preconditioning    =    JACOBI
   Convergence cutoff =     1E-06
   Maximum iterations =       100

  ==> CPHFRHamiltonian (by Rob Parrish) <== 

  ==> DFJK: Density-Fitted J/K Matrices <==

    J tasked:                  Yes
    K tasked:                  Yes
    wK tasked:                  No
    OpenMP threads:              8
    Integrals threads:           8
    Memory (MB):              3576
    Algorithm:                Disk
    Integral Cache:           NONE
    Schwarz Cutoff:          1E-12
    Fitting Condition:       1E-12

   => Auxiliary Basis Set <=

  Basis Set: (AUG-CC-PVTZ AUX)
    Blend: AUG-CC-PVTZ-JKFIT
    Number of shells: 532
    Number of basis function: 1824
    Number of Cartesian functions: 2274
    Spherical Harmonics?: true
    Max angular momentum: 4

  ==> CPHF Iterations <==

  => Iterations <=

             Iter  Converged  Remaining    Residual
  CGR           1          0          1   1.036E-01
  CGR           2          0          1   3.532E-02
  CGR           3          0          1   2.365E-02
  CGR           4          0          1   1.019E-02
  CGR           5          0          1   4.262E-03
  CGR           6          0          1   1.607E-03
  CGR           7          0          1   4.679E-04
  CGR           8          0          1   1.537E-04
  CGR           9          0          1   4.910E-05
  CGR          10          0          1   1.371E-05
  CGR          11          0          1   5.613E-06
  CGR          12          0          1   1.747E-06
  CGR          13          1          0   8.446E-07

    CGRSolver converged.

  ==> DFCorrGrad: Density-Fitted Correlated Gradients <==

    OpenMP threads:              8
    Integrals threads:           8
    Memory (MB):              3576
    Schwarz Cutoff:          0E+00
    Fitting Condition:       1E-12

   => Auxiliary Basis Set <=

  Basis Set: (AUG-CC-PVTZ AUX)
    Blend: AUG-CC-PVTZ-JKFIT
    Number of shells: 532
    Number of basis function: 1824
    Number of Cartesian functions: 2274
    Spherical Harmonics?: true
    Max angular momentum: 4

	-----------------------------------------------------------
	 ==================> DF-MP2 Energies <==================== 
	-----------------------------------------------------------
	 Reference Energy          =    -650.1733603727695936 [Eh]
	 Singles Energy            =      -0.0000000000000004 [Eh]
	 Same-Spin Energy          =      -0.6780306033527163 [Eh]
	 Opposite-Spin Energy      =      -2.0199941876623551 [Eh]
	 Correlation Energy        =      -2.6980247910150719 [Eh]
	 Total Energy              =    -652.8713851637846801 [Eh]
	-----------------------------------------------------------
	 ================> DF-SCS-MP2 Energies <================== 
	-----------------------------------------------------------
	 SCS Same-Spin Scale       =       0.3333333333333333 [-]
	 SCS Opposite-Spin Scale   =       1.2000000000000000 [-]
	 SCS Same-Spin Energy      =      -0.2260102011175721 [Eh]
	 SCS Opposite-Spin Energy  =      -2.4239930251948261 [Eh]
	 SCS Correlation Energy    =      -2.6500032263123985 [Eh]
	 SCS Total Energy          =    -652.8233635990819721 [Eh]
	-----------------------------------------------------------


  -Total Gradient:
     Atom            X                  Y                   Z
    ------   -----------------  -----------------  -----------------
       1        0.011491081337    -0.003005286315    -0.014974227313
       2        0.003537852230    -0.001691972610     0.003949670489
       3       -0.005314083520     0.005322120414     0.005508722776
       4       -0.007567126319    -0.000380842980     0.002070731957
       5       -0.008370961962     0.004728534242     0.001177854565
       6       -0.003295789418     0.007762084274     0.010184248033
       7       -0.014275916591     0.000602018866     0.001435864695
       8       -0.004138836614     0.002054318304    -0.000413605801
       9        0.001079923956    -0.000158076087    -0.002728438155
      10       -0.008380971148     0.005060810605    -0.004837513702
      11        0.022133850625    -0.015812949279     0.004928652270
      12        0.013727930954    -0.006411217688    -0.008193097174
      13        0.002585052663    -0.001618764114     0.000537723895
      14        0.002915640559     0.000378081049     0.000144976001
      15       -0.002739091044     0.000615140144    -0.006464756748
      16       -0.003347622748     0.001592987567    -0.005386548290
      17        0.002485022472     0.002643648766     0.004773310078
      18       -0.003765561344    -0.000911724359    -0.003493149153
      19       -0.000934494869     0.000649334941     0.004350117120
      20        0.002927707392    -0.000292777232     0.000381575720
      21        0.000404201538    -0.001498097996    -0.002343343043
      22       -0.001157808170     0.000372629481     0.009391231786


*** tstop() called on gpu-2-4.local at Sat Nov 11 21:07:19 2017
Module time:
	user time   =    5786.92 seconds =      96.45 minutes
	system time =     107.76 seconds =       1.80 minutes
	total time  =       2780 seconds =      46.33 minutes
Total time:
	user time   =    5786.93 seconds =      96.45 minutes
	system time =     107.76 seconds =       1.80 minutes
	total time  =       2780 seconds =      46.33 minutes

			-----------------------------------------
			 OPTKING 2.0: for geometry optimizations 
			  - R.A. King,  Bethel University        
			-----------------------------------------

	Internal coordinates to be generated automatically.
	Detected frag 1 with atoms:  1 2 3 4 5 6 7 8 9 10 11 12 13 14 15 16 17 18 19 20
	 21 22
	---Fragment 1 Bond Connectivity---
	 1 : 2 8 15
	 2 : 1 10 16
	 3 : 6 9 17
	 4 : 7 9 18
	 5 : 10 11 19
	 6 : 3 12 20
	 7 : 4 12 21
	 8 : 1 9 11
	 9 : 3 4 8
	 10 : 2 5 13
	 11 : 5 8 14
	 12 : 6 7
	 13 : 10 22
	 14 : 11
	 15 : 1
	 16 : 2
	 17 : 3
	 18 : 4
	 19 : 5
	 20 : 6
	 21 : 7
	 22 : 13

	Assuming in current code that numbering for constraints corresponds to unified fragment.
	Fixed dihedral atom list: 
	     1     8     9     3
	---Fragment 1 Geometry and Gradient---
	 C          -2.4976131543        1.4283753714       -1.5124567575
	 C          -4.5347379255        2.5111884455       -0.2406710701
	 C           4.0295009087       -0.3649747287       -0.6715286284
	 C           1.1476685561       -2.3567460728       -3.5684787901
	 C          -2.6582398756        1.3471171476        3.7560997009
	 C           5.9834777301       -1.4855823256       -2.0056752782
	 C           3.2301467545       -3.3866468152       -4.7722343368
	 C          -0.5398568806        0.3039883223       -0.1518539419
	 C           1.5709672098       -0.8185090006       -1.4803314133
	 C          -4.6159961492        2.4715041967        2.3936071591
	 C          -0.6211151043        0.2643040735        2.4824242874
	 N           5.6471064785       -2.9898043273       -4.0428000495
	 O          -6.6058777672        3.5297508311        3.6351572284
	 F           1.2459343150       -0.8090603700        3.8184606633
	 H          -2.4617083577        1.4737287985       -3.5665890640
	 H          -6.0559674625        3.3823521928       -1.3121457875
	 H           4.4339023012        0.8236630088        0.9498563936
	 H          -0.7458370291       -2.7516988346       -4.2525596502
	 H          -2.7111522073        1.3093226250        5.8083422813
	 H           7.9355648254       -1.1945645011       -1.4500957952
	 H           3.0014898924       -4.5979612664       -6.4106268940
	 H          -6.3904489880        3.3521165746        5.4474045899
	             0.0114910813       -0.0030052863       -0.0149742273
	             0.0035378522       -0.0016919726        0.0039496705
	            -0.0053140835        0.0053221204        0.0055087228
	            -0.0075671263       -0.0003808430        0.0020707320
	            -0.0083709620        0.0047285342        0.0011778546
	            -0.0032957894        0.0077620843        0.0101842480
	            -0.0142759166        0.0006020189        0.0014358647
	            -0.0041388366        0.0020543183       -0.0004136058
	             0.0010799240       -0.0001580761       -0.0027284382
	            -0.0083809711        0.0050608106       -0.0048375137
	             0.0221338506       -0.0158129493        0.0049286523
	             0.0137279310       -0.0064112177       -0.0081930972
	             0.0025850527       -0.0016187641        0.0005377239
	             0.0029156406        0.0003780810        0.0001449760
	            -0.0027390910        0.0006151401       -0.0064647567
	            -0.0033476227        0.0015929876       -0.0053865483
	             0.0024850225        0.0026436488        0.0047733101
	            -0.0037655613       -0.0009117244       -0.0034931492
	            -0.0009344949        0.0006493349        0.0043501171
	             0.0029277074       -0.0002927772        0.0003815757
	             0.0004042015       -0.0014980980       -0.0023433430
	            -0.0011578082        0.0003726295        0.0093912318

	Previous optimization step data not found.  Starting new optimization.

	---Fragment 1 Intrafragment Coordinates---
	 - Coordinate -           - BOHR/RAD -       - ANG/DEG -
	 R(1,2)           =         2.634350	       1.394038
	 R(1,8)           =         2.635962	       1.394891
	 R(1,15)          =         2.054947	       1.087431
	 R(2,10)          =         2.635830	       1.394821
	 R(2,16)          =         2.054537	       1.087214
	 R(3,6)           =         2.617964	       1.385367
	 R(3,9)           =         2.627593	       1.390462
	 R(3,17)          =         2.050680	       1.085173
	 R(4,7)           =         2.616570	       1.384629
	 R(4,9)           =         2.627873	       1.390610
	 R(4,18)          =         2.051662	       1.085693
	 R(5,10)          =         2.636938	       1.395407
	 R(5,11)          =         2.635263	       1.394521
	 R(5,19)          =         2.053272	       1.086545
	 R(6,12)          =         2.554546	       1.351808
	 R(6,20)          =         2.050367	       1.085007
	 R(7,12)          =         2.555632	       1.352382
	 R(7,21)          =         2.050341	       1.084994
	 R(8,9)           =         2.735038	       1.447320
	 R(8,11)          =         2.635830	       1.394821
	 R(10,13)         =         2.573123	       1.361638
	 R(11,14)         =         2.534359	       1.341125
	 R(13,22)         =         1.833631	       0.970316
	 B(1,2,10)        =         2.094553	     120.009056
	 B(1,2,16)        =         2.088723	     119.675016
	 B(1,8,9)         =         2.091569	     119.838095
	 B(1,8,11)        =         2.093692	     119.959722
	 B(2,1,8)         =         2.094940	     120.031219
	 B(2,1,15)        =         2.079469	     119.144799
	 B(2,10,5)        =         2.094306	     119.994870
	 B(2,10,13)       =         2.094247	     119.991510
	 B(3,6,12)        =         2.165378	     124.067037
	 B(3,6,20)        =         2.108023	     120.780805
	 B(3,9,4)         =         2.090177	     119.758336
	 B(3,9,8)         =         2.096434	     120.116823
	 B(4,7,12)        =         2.165504	     124.074242
	 B(4,7,21)        =         2.107609	     120.757073
	 B(4,9,8)         =         2.096573	     120.124802
	 B(5,10,13)       =         2.094633	     120.013619
	 B(5,11,8)        =         2.095181	     120.045019
	 B(5,11,14)       =         2.081414	     119.256220
	 B(6,3,9)         =         2.057375	     117.878893
	 B(6,3,17)        =         2.098846	     120.255024
	 B(6,12,7)        =         2.030382	     116.332336
	 B(7,4,9)         =         2.057554	     117.889148
	 B(7,4,18)        =         2.100600	     120.355535
	 B(8,1,15)        =         2.108776	     120.823969
	 B(8,11,14)       =         2.106591	     120.698759
	 B(9,3,17)        =         2.126964	     121.866078
	 B(9,4,18)        =         2.125031	     121.755312
	 B(9,8,11)        =         2.097924	     120.202184
	 B(10,2,16)       =         2.099909	     120.315896
	 B(10,5,11)       =         2.093699	     119.960108
	 B(10,5,19)       =         2.100355	     120.341451
	 B(10,13,22)      =         1.924294	     110.253909
	 B(11,5,19)       =         2.089132	     119.698439
	 B(12,6,20)       =         2.009783	     115.152107
	 B(12,7,21)       =         2.010073	     115.168678
	 D(1,2,10,5)      =        -0.000325	      -0.018609
	 D(1,2,10,13)     =         3.141388	     179.988267
	 D(1,8,9,3)       =         2.356122	     134.995835
	 D(1,8,9,4)       =        -0.786727	     -45.076124
	 D(1,8,11,5)      =         0.000325	       0.018608
	 D(1,8,11,14)     =        -3.141528	    -179.996269
	 D(2,1,8,9)       =         3.141277	     179.981897
	 D(2,1,8,11)      =        -0.000348	      -0.019945
	 D(2,10,5,11)     =         0.000301	       0.017261
	 D(2,10,5,19)     =        -3.141029	    -179.967685
	 D(2,10,13,22)    =         3.141285	     179.982383
	 D(3,6,12,7)      =        -0.000457	      -0.026181
	 D(3,9,4,7)       =        -0.000380	      -0.021752
	 D(3,9,4,18)      =        -3.141514	    -179.995513
	 D(3,9,8,11)      =        -0.785439	     -45.002319
	 D(4,7,12,6)      =         0.000077	       0.004440
	 D(4,9,3,6)       =         0.000040	       0.002291
	 D(4,9,3,17)      =        -3.141105	    -179.972046
	 D(4,9,8,11)      =         2.354898	     134.925722
	 D(5,10,2,16)     =         3.140149	     179.917291
	 D(5,10,13,22)    =        -0.000187	      -0.010740
	 D(5,11,8,9)      =        -3.141300	    -179.983240
	 D(6,3,9,8)       =         3.140381	     179.930596
	 D(6,12,7,21)     =         3.141133	     179.973657
	 D(7,4,9,8)       =        -3.140721	    -179.950052
	 D(7,12,6,20)     =         3.139707	     179.891982
	 D(8,1,2,10)      =         0.000348	       0.019955
	 D(8,1,2,16)      =        -3.140133	    -179.916358
	 D(8,9,3,17)      =        -0.000763	      -0.043740
	 D(8,9,4,18)      =         0.001330	       0.076188
	 D(8,11,5,10)     =        -0.000301	      -0.017270
	 D(8,11,5,19)     =         3.141030	     179.967774
	 D(9,3,6,12)      =         0.000402	       0.023047
	 D(9,3,6,20)      =        -3.139686	    -179.890730
	 D(9,4,7,12)      =         0.000331	       0.018960
	 D(9,4,7,21)      =        -3.140696	    -179.948619
	 D(9,8,1,15)      =         0.000403	       0.023110
	 D(9,8,11,14)     =         0.000033	       0.001883
	 D(10,2,1,15)     =         3.141234	     179.979432
	 D(10,5,11,14)    =         3.141547	     179.997392
	 D(11,5,10,13)    =        -3.141411	    -179.989616
	 D(11,8,1,15)     =        -3.141221	    -179.978731
	 D(12,6,3,17)     =         3.141555	     179.997814
	 D(12,7,4,18)     =         3.141472	     179.993104
	 D(13,10,2,16)    =        -0.001324	      -0.075833
	 D(13,10,5,19)    =         0.000444	       0.025437
	 D(14,11,5,19)    =        -0.000307	      -0.017564
	 D(15,1,2,16)     =         0.000753	       0.043120
	 D(17,3,6,20)     =         0.001467	       0.084038
	 D(18,4,7,21)     =         0.000445	       0.025525
	 R(3,14)          =         5.301458	       2.805411

	Current energy   :      -652.8713851638

	Generating empirical Hessian (Schlegel '84) for each fragment.
	Adding user-defined constraint: Fragment 1; Coordinate 61:
		Value =     2.356122; Fixed value    =     2.356194
		Force =     0.000036; Force constant =     0.500000
	Removing off-diagonal coupling between coordinate 61 and others.
	Taking RFO optimization step.
	Going to follow RFO solution 1.
	Using RFO vector 1.

	Determining step-restricting scale parameter for RS-RFO.
	Maximum step size allowed    0.10000

	 Iter      |step|        alpha        rfo_root  
	------------------------------------------------
	    0     0.20234       1.00000           1
	    1     0.15659       5.50792           1
	    2     0.12485      16.45897           1
	    3     0.10669      30.25545           1
	    4     0.10068      37.04657           1
	    5     0.10001      37.89361           1
	------------------------------------------------
	Norm of target step-size    0.10001
	Projected energy change by RFO approximation:        -0.0048690992

	Back-transformation to cartesian coordinates...
	Could not converge backtransformation.
	Using first guess instead.

	--- Internal Coordinate Step in ANG or DEG, aJ/ANG or AJ/DEG ---
	 ---------------------------------------------------------------------------
	   Coordinate                Previous        Force       Change         New 
	   ----------                --------       ------       ------       ------
	    1 R(1,2)          =      1.394038    -0.060526    -0.005963     1.388075
	    2 R(1,8)          =      1.394891    -0.021366    -0.001814     1.393077
	    3 R(1,15)         =      1.087431    -0.052957    -0.006370     1.081061
	    4 R(2,10)         =      1.394821    -0.080288    -0.007965     1.386856
	    5 R(2,16)         =      1.087214    -0.049129    -0.005840     1.081374
	    6 R(3,6)          =      1.385367     0.001980     0.000179     1.385546
	    7 R(3,9)          =      1.390462    -0.009881    -0.000497     1.389965
	    8 R(3,17)         =      1.085173    -0.047754    -0.005717     1.079456
	    9 R(4,7)          =      1.384629     0.006383     0.000601     1.385230
	   10 R(4,9)          =      1.390610    -0.010286    -0.000528     1.390082
	   11 R(4,18)         =      1.085693    -0.039675    -0.004752     1.080941
	   12 R(5,10)         =      1.395407    -0.046760    -0.004669     1.390738
	   13 R(5,11)         =      1.394521    -0.109133    -0.010717     1.383804
	   14 R(5,19)         =      1.086545    -0.035922    -0.004220     1.082325
	   15 R(6,12)         =      1.351808    -0.115586    -0.010475     1.341333
	   16 R(6,20)         =      1.085007    -0.023473    -0.002802     1.082205
	   17 R(7,12)         =      1.352382    -0.124018    -0.011232     1.341150
	   18 R(7,21)         =      1.084994    -0.022348    -0.002674     1.082319
	   19 R(8,9)          =      1.447320     0.115704     0.013277     1.460596
	   20 R(8,11)         =      1.394821    -0.073654    -0.006991     1.387831
	   21 R(10,13)        =      1.361638    -0.026154    -0.002175     1.359463
	   22 R(11,14)        =      1.341125    -0.019891    -0.001647     1.339479
	   23 R(13,22)        =      0.970316    -0.075053    -0.006730     0.963586
	   24 B(1,2,10)       =    120.009056    -0.000166    -0.303806   119.705251
	   25 B(1,2,16)       =    119.675016     0.000291     0.610832   120.285849
	   26 B(1,8,9)        =    119.838095     0.000760     1.269676   121.107771
	   27 B(1,8,11)       =    119.959722    -0.000991    -1.750602   118.209119
	   28 B(2,1,8)        =    120.031219     0.000552     1.056307   121.087526
	   29 B(2,1,15)       =    119.144799    -0.000063    -0.059762   119.085037
	   30 B(2,10,5)       =    119.994870    -0.000016    -0.031966   119.962904
	   31 B(2,10,13)      =    119.991510    -0.000751    -1.308114   118.683397
	   32 B(3,6,12)       =    124.067037     0.000019    -0.025726   124.041311
	   33 B(3,6,20)       =    120.780805    -0.000069    -0.118752   120.662053
	   34 B(3,9,4)        =    119.758336    -0.000890    -1.466547   118.291789
	   35 B(3,9,8)        =    120.116823     0.000429     0.740202   120.857025
	   36 B(4,7,12)       =    124.074242    -0.000032    -0.123468   123.950775
	   37 B(4,7,21)       =    120.757073    -0.000038    -0.059021   120.698052
	   38 B(4,9,8)        =    120.124802     0.000462     0.726384   120.851186
	   39 B(5,10,13)      =    120.013619     0.000767     1.340073   121.353692
	   40 B(5,11,8)       =    120.045019     0.000830     1.431695   121.476714
	   41 B(5,11,14)      =    119.256220    -0.000191    -0.371433   118.884787
	   42 B(6,3,9)        =    117.878893     0.000354     0.719157   118.598049
	   43 B(6,3,17)       =    120.255024    -0.000068    -0.119183   120.135842
	   44 B(6,12,7)       =    116.332336     0.000146     0.084306   116.416642
	   45 B(7,4,9)        =    117.889148     0.000404     0.812257   118.701405
	   46 B(7,4,18)       =    120.355535    -0.000075    -0.127976   120.227559
	   47 B(8,1,15)       =    120.823969    -0.000489    -0.996625   119.827344
	   48 B(8,11,14)      =    120.698759    -0.000639    -1.060633   119.638126
	   49 B(9,3,17)       =    121.866078    -0.000286    -0.600113   121.265966
	   50 B(9,4,18)       =    121.755312    -0.000329    -0.684342   121.070969
	   51 B(9,8,11)       =    120.202184     0.000231     0.480897   120.683081
	   52 B(10,2,16)      =    120.315896    -0.000125    -0.306998   120.008899
	   53 B(10,5,11)      =    119.960108    -0.000209    -0.401754   119.558354
	   54 B(10,5,19)      =    120.341451     0.000188     0.384290   120.725741
	   55 B(10,13,22)     =    110.253909    -0.000361    -0.793264   109.460644
	   56 B(11,5,19)      =    119.698439     0.000021     0.017462   119.715901
	   57 B(12,6,20)      =    115.152107     0.000050     0.144525   115.296632
	   58 B(12,7,21)      =    115.168678     0.000071     0.182453   115.351131
	   59 D(1,2,10,5)     =     -0.018609     0.000003     0.049190     0.030581
	   60 D(1,2,10,13)    =    179.988267     0.000001     0.013212   180.001479
	   61 D(1,8,9,3)      =    134.995835     0.000010     0.069927   135.065762
	   62 D(1,8,9,4)      =    -45.076124     0.000012     0.149209   -44.926915
	   63 D(1,8,11,5)     =      0.018608     0.000006     0.113443     0.132051
	   64 D(1,8,11,14)    =   -179.996269    -0.000005    -0.096457  -180.092726
	   65 D(2,1,8,9)      =    179.981897     0.000001     0.023253   180.005150
	   66 D(2,1,8,11)     =     -0.019945    -0.000002    -0.035993    -0.055938
	   67 D(2,10,5,11)    =      0.017261     0.000002     0.026025     0.043286
	   68 D(2,10,5,19)    =   -179.967685     0.000002     0.033117  -179.934569
	   69 D(2,10,13,22)   =    179.982383     0.000001     0.009138   179.991521
	   70 D(3,6,12,7)     =     -0.026181     0.000002     0.040731     0.014549
	   71 D(3,9,4,7)      =     -0.021752    -0.000004    -0.038525    -0.060277
	   72 D(3,9,4,18)     =   -179.995513    -0.000011    -0.158185  -180.153697
	   73 D(3,9,8,11)     =    -45.002319     0.000013     0.130676   -44.871643
	   74 D(4,7,12,6)     =      0.004440    -0.000002    -0.030146    -0.025706
	   75 D(4,9,3,6)      =      0.002291     0.000004     0.047840     0.050131
	   76 D(4,9,3,17)     =   -179.972046    -0.000006    -0.115468  -180.087514
	   77 D(4,9,8,11)     =    134.925722     0.000015     0.209959   135.135680
	   78 D(5,10,2,16)    =    179.917291     0.000006     0.096207   180.013498
	   79 D(5,10,13,22)   =     -0.010740    -0.000002    -0.027264    -0.038004
	   80 D(5,11,8,9)     =   -179.983240     0.000004     0.054474  -179.928766
	   81 D(6,3,9,8)      =    179.930596     0.000006     0.126675   180.057271
	   82 D(6,12,7,21)    =    179.973657     0.000005     0.075537   180.049194
	   83 D(7,4,9,8)      =   -179.950052    -0.000006    -0.117365  -180.067416
	   84 D(7,12,6,20)    =    179.891982     0.000006     0.098853   179.990835
	   85 D(8,1,2,10)     =      0.019955    -0.000003    -0.043845    -0.023890
	   86 D(8,1,2,16)     =   -179.916358    -0.000006    -0.090401  -180.006759
	   87 D(8,9,3,17)     =     -0.043740    -0.000004    -0.036634    -0.080374
	   88 D(8,9,4,18)     =      0.076188    -0.000013    -0.237024    -0.160837
	   89 D(8,11,5,10)    =     -0.017270    -0.000006    -0.109645    -0.126915
	   90 D(8,11,5,19)    =    179.967774    -0.000007    -0.116608   179.851166
	   91 D(9,3,6,12)     =      0.023047    -0.000004    -0.051066    -0.028019
	   92 D(9,3,6,20)     =   -179.890730    -0.000007    -0.112364  -180.003094
	   93 D(9,4,7,12)     =      0.018960     0.000002     0.030910     0.049870
	   94 D(9,4,7,21)     =   -179.948619    -0.000005    -0.080228  -180.028847
	   95 D(9,8,1,15)     =      0.023110    -0.000009    -0.129597    -0.106487
	   96 D(9,8,11,14)    =      0.001883    -0.000008    -0.155426    -0.153543
	   97 D(10,2,1,15)    =    179.979432     0.000006     0.107500   180.086932
	   98 D(10,5,11,14)   =    179.997392     0.000005     0.098820   180.096212
	   99 D(11,5,10,13)   =   -179.989616     0.000004     0.062799  -179.926817
	  100 D(11,8,1,15)    =   -179.978731    -0.000011    -0.188843  -180.167574
	  101 D(12,6,3,17)    =    179.997814     0.000006     0.110209   180.108024
	  102 D(12,7,4,18)    =    179.993104     0.000010     0.149375   180.142479
	  103 D(13,10,2,16)   =     -0.075833     0.000004     0.060229    -0.015604
	  104 D(13,10,5,19)   =      0.025437     0.000004     0.069891     0.095329
	  105 D(14,11,5,19)   =     -0.017564     0.000005     0.091857     0.074293
	  106 D(15,1,2,16)    =      0.043120     0.000004     0.060944     0.104063
	  107 D(17,3,6,20)    =      0.084038     0.000003     0.048911     0.132949
	  108 D(18,4,7,21)    =      0.025525     0.000003     0.038237     0.063762
	  109 R(3,14)         =      2.805411     0.030307     0.008975     2.814386
	 ---------------------------------------------------------------------------
	Successfully symmetrized geometry.
	 Forces used to impose fixed constraints are not included.
	  Forces zeroed: 61 

  ==> Convergence Check <==

  Measures of convergence in internal coordinates in au.
  Criteria marked as inactive (o), active & met (*), and active & unmet ( ).
  --------------------------------------------------------------------------------------------- ~
   Step     Total Energy     Delta E     MAX Force     RMS Force      MAX Disp      RMS Disp    ~
  --------------------------------------------------------------------------------------------- ~
    Convergence Criteria    1.00e-06 *    3.00e-04 *             o    1.20e-03 *             o  ~
  --------------------------------------------------------------------------------------------- ~
      1    -652.87138516   -6.53e+02      1.51e-02      4.77e-03 o    3.06e-02      9.59e-03 o  ~
  ---------------------------------------------------------------------------------------------

	Writing optimization data to binary file.
	Structure for next step:
	Cartesian Geometry (in Angstrom)
	    C    -1.3410764707   0.7643321403  -0.7772883451
	    C    -2.4136809625   1.3354656467  -0.1064102427
	    C     2.1405866342  -0.2068754739  -0.3685776440
	    C     0.6311656530  -1.2522280894  -1.8932950720
	    C    -1.4118446891   0.7169152889   1.9906904754
	    C     3.1761807080  -0.7995089609  -1.0728990043
	    C     1.7340072653  -1.7979205672  -2.5295525457
	    C    -0.2939754780   0.1647666263  -0.0810374023
	    C     0.8349353728  -0.4362394177  -0.7865117196
	    C    -2.4489274675   1.3112442440   1.2797860267
	    C    -0.3495805726   0.1537049743   1.3056346551
	    N     3.0011421488  -1.5891811218  -2.1429241492
	    O    -3.5092494459   1.8766680041   1.9155162219
	    F     0.6410208818  -0.4168511111   2.0037588685
	    H    -1.3231510774   0.7901257402  -1.8578926304
	    H    -3.2195636380   1.7975852228  -0.6599164472
	    H     2.3540108026   0.4198451853   0.4840051427
	    H    -0.3653623251  -1.4626589802  -2.2553516743
	    H    -1.4272476377   0.6901211716   3.0725738828
	    H     4.2053038860  -0.6434995425  -0.7766984798
	    H     1.6126785449  -2.4380550984  -3.3937991546
	    H    -3.3983311894   1.7852453390   2.8683210465
			--------------------------
			 OPTKING Finished Execution 
			--------------------------

    Structure for next step:
    Molecular point group: c1
    Full point group: C1

    Geometry (in Angstrom), charge = 0, multiplicity = 1:

    C           -1.338923919036     0.763093640381    -0.775633911371
    C           -2.411528410868     1.334227146786    -0.104755808897
    C            2.142739185873    -0.208113973789    -0.366923210200
    C            0.633318204632    -1.253466589343    -1.891640638277
    C           -1.409692137422     0.715676788979     1.992344909167
    C            3.178333259666    -0.800747460844    -1.071244570581
    C            1.736159817024    -1.799159067174    -2.527898111941
    C           -0.291822926341     0.163528126368    -0.079382968508
    C            0.837087924490    -0.437477917657    -0.784857285850
    C           -2.446774915794     1.310005744100     1.281440460486
    C           -0.347428020883     0.152466474324     1.307289088869
    N            3.003294700464    -1.590419621741    -2.141269715427
    O           -3.507096894265     1.875429504174     1.917170655658
    F            0.643173433467    -0.418089611029     2.005413302255
    H           -1.320998525673     0.788887240293    -1.856238196626
    H           -3.217411086339     1.796346722859    -0.658262013414
    H            2.356163354310     0.418606685375     0.485659576425
    H           -0.363209773435    -1.463897480169    -2.253697240566
    H           -1.425095085991     0.688882671645     3.074228316603
    H            4.207456437671    -0.644738042449    -0.775044046085
    H            1.614831096597    -2.439293598363    -3.392144720853
    H           -3.396178637749     1.784006839047     2.869975480280

gradient() will perform analytic gradient computation.

*** tstart() called on gpu-2-4.local
*** at Sat Nov 11 21:07:21 2017

    SCF Algorithm Type (re)set to DF.

*** tstart() called on gpu-2-4.local
*** at Sat Nov 11 21:07:21 2017

   => Loading Basis Set <=

    Name: AUG-CC-PVTZ
    Role: ORBITAL
    Keyword: BASIS
    atoms 1-11  entry C          line   221 file /cbio/jclab/home/chayas/anaconda/envs/py35/share/psi4/basis/aug-cc-pvtz.gbs 
    atoms 12    entry N          line   267 file /cbio/jclab/home/chayas/anaconda/envs/py35/share/psi4/basis/aug-cc-pvtz.gbs 
    atoms 13    entry O          line   313 file /cbio/jclab/home/chayas/anaconda/envs/py35/share/psi4/basis/aug-cc-pvtz.gbs 
    atoms 14    entry F          line   359 file /cbio/jclab/home/chayas/anaconda/envs/py35/share/psi4/basis/aug-cc-pvtz.gbs 
    atoms 15-22 entry H          line    34 file /cbio/jclab/home/chayas/anaconda/envs/py35/share/psi4/basis/aug-cc-pvtz.gbs 


         ---------------------------------------------------------
                                   SCF
            by Justin Turney, Rob Parrish, and Andy Simmonett
                              RHF Reference
                        8 Threads,   4768 MiB Core
         ---------------------------------------------------------

  ==> Geometry <==

    Molecular point group: c1
    Full point group: C1

    Geometry (in Angstrom), charge = 0, multiplicity = 1:

       Center              X                  Y                   Z               Mass       
    ------------   -----------------  -----------------  -----------------  -----------------
           C         -1.338923919036     0.763093640381    -0.775633911371    12.000000000000
           C         -2.411528410868     1.334227146786    -0.104755808897    12.000000000000
           C          2.142739185873    -0.208113973789    -0.366923210200    12.000000000000
           C          0.633318204632    -1.253466589343    -1.891640638277    12.000000000000
           C         -1.409692137422     0.715676788979     1.992344909167    12.000000000000
           C          3.178333259666    -0.800747460844    -1.071244570581    12.000000000000
           C          1.736159817024    -1.799159067174    -2.527898111941    12.000000000000
           C         -0.291822926341     0.163528126368    -0.079382968508    12.000000000000
           C          0.837087924490    -0.437477917657    -0.784857285850    12.000000000000
           C         -2.446774915794     1.310005744100     1.281440460486    12.000000000000
           C         -0.347428020883     0.152466474324     1.307289088869    12.000000000000
           N          3.003294700464    -1.590419621741    -2.141269715427    14.003074004780
           O         -3.507096894265     1.875429504174     1.917170655658    15.994914619560
           F          0.643173433467    -0.418089611029     2.005413302255    18.998403224000
           H         -1.320998525673     0.788887240293    -1.856238196626     1.007825032070
           H         -3.217411086339     1.796346722859    -0.658262013414     1.007825032070
           H          2.356163354310     0.418606685375     0.485659576425     1.007825032070
           H         -0.363209773435    -1.463897480169    -2.253697240566     1.007825032070
           H         -1.425095085991     0.688882671645     3.074228316603     1.007825032070
           H          4.207456437671    -0.644738042449    -0.775044046085     1.007825032070
           H          1.614831096597    -2.439293598363    -3.392144720853     1.007825032070
           H         -3.396178637749     1.784006839047     2.869975480280     1.007825032070

  Running in c1 symmetry.

  Rotational constants: A =      0.06438  B =      0.01317  C =      0.01141 [cm^-1]
  Rotational constants: A =   1930.01941  B =    394.78246  C =    342.07038 [MHz]
  Nuclear repulsion =  815.733482788230162

  Charge       = 0
  Multiplicity = 1
  Electrons    = 98
  Nalpha       = 49
  Nbeta        = 49

  ==> Algorithm <==

  SCF Algorithm Type is DF.
  DIIS enabled.
  MOM disabled.
  Fractional occupation disabled.
  Guess Type is READ.
  Energy threshold   = 1.00e-10
  Density threshold  = 1.00e-10
  Integral threshold = 0.00e+00

  ==> Primary Basis <==

  Basis Set: AUG-CC-PVTZ
    Blend: AUG-CC-PVTZ
    Number of shells: 268
    Number of basis function: 828
    Number of Cartesian functions: 970
    Spherical Harmonics?: true
    Max angular momentum: 3

   => Loading Basis Set <=

    Name: (AUG-CC-PVTZ AUX)
    Role: JKFIT
    Keyword: DF_BASIS_SCF
    atoms 1-11  entry C          line   161 file /cbio/jclab/home/chayas/anaconda/envs/py35/share/psi4/basis/aug-cc-pvtz-jkfit.gbs 
    atoms 12    entry N          line   223 file /cbio/jclab/home/chayas/anaconda/envs/py35/share/psi4/basis/aug-cc-pvtz-jkfit.gbs 
    atoms 13    entry O          line   285 file /cbio/jclab/home/chayas/anaconda/envs/py35/share/psi4/basis/aug-cc-pvtz-jkfit.gbs 
    atoms 14    entry F          line   347 file /cbio/jclab/home/chayas/anaconda/envs/py35/share/psi4/basis/aug-cc-pvtz-jkfit.gbs 
    atoms 15-22 entry H          line    69 file /cbio/jclab/home/chayas/anaconda/envs/py35/share/psi4/basis/aug-cc-pvtz-jkfit.gbs 

  Reading orbitals from file 180, no projection.

  ==> Pre-Iterations <==

   -------------------------------------------------------
    Irrep   Nso     Nmo     Nalpha   Nbeta   Ndocc  Nsocc
   -------------------------------------------------------
     A        828     828       0       0       0       0
   -------------------------------------------------------
    Total     828     828      49      49      49       0
   -------------------------------------------------------

  ==> Integral Setup <==

  ==> DFJK: Density-Fitted J/K Matrices <==

    J tasked:                  Yes
    K tasked:                  Yes
    wK tasked:                  No
    OpenMP threads:              8
    Integrals threads:           8
    Memory (MB):              3576
    Algorithm:                Disk
    Integral Cache:           NONE
    Schwarz Cutoff:          1E-12
    Fitting Condition:       1E-12

   => Auxiliary Basis Set <=

  Basis Set: (AUG-CC-PVTZ AUX)
    Blend: AUG-CC-PVTZ-JKFIT
    Number of shells: 532
    Number of basis function: 1824
    Number of Cartesian functions: 2274
    Spherical Harmonics?: true
    Max angular momentum: 4

  Minimum eigenvalue in the overlap matrix is 6.7721601333E-07.
  Using Symmetric Orthogonalization.

  SCF Guess: Orbitals guess was supplied from a previous computation.

  ==> Iterations <==

                           Total Energy        Delta E     RMS |[F,P]|

   @DF-RHF iter   0:  -650.26129374114760   -6.50261e+02   4.30782e-04 
   @DF-RHF iter   1:  -650.17905437053639    8.22394e-02   9.33538e-05 
   @DF-RHF iter   2:  -650.17945767908350   -4.03309e-04   6.65212e-05 DIIS
   @DF-RHF iter   3:  -650.17973195953164   -2.74280e-04   1.03802e-05 DIIS
   @DF-RHF iter   4:  -650.17973941174955   -7.45222e-06   3.75333e-06 DIIS
   @DF-RHF iter   5:  -650.17974123638658   -1.82464e-06   1.25854e-06 DIIS
   @DF-RHF iter   6:  -650.17974158254935   -3.46163e-07   7.60764e-07 DIIS
   @DF-RHF iter   7:  -650.17974171851370   -1.35964e-07   3.13518e-07 DIIS
   @DF-RHF iter   8:  -650.17974175459176   -3.60781e-08   1.12105e-07 DIIS
   @DF-RHF iter   9:  -650.17974175778704   -3.19528e-09   4.14048e-08 DIIS
   @DF-RHF iter  10:  -650.17974175806216   -2.75122e-10   1.09430e-08 DIIS
   @DF-RHF iter  11:  -650.17974175810321   -4.10409e-11   3.75323e-09 DIIS
   @DF-RHF iter  12:  -650.17974175808979    1.34150e-11   1.60139e-09 DIIS
   @DF-RHF iter  13:  -650.17974175809741   -7.61702e-12   6.92835e-10 DIIS
   @DF-RHF iter  14:  -650.17974175808627    1.11413e-11   2.88418e-10 DIIS
   @DF-RHF iter  15:  -650.17974175808217    4.09273e-12   1.77242e-10 DIIS
   @DF-RHF iter  16:  -650.17974175809218   -1.00044e-11   5.93427e-11 DIIS

  ==> Post-Iterations <==

    Orbital Energies (a.u.)
    -----------------------

    Doubly Occupied:                                                      

       1A    -26.327050     2A    -20.610679     3A    -15.561968  
       4A    -11.348181     5A    -11.327446     6A    -11.272113  
       7A    -11.270894     8A    -11.266653     9A    -11.264067  
      10A    -11.253599    11A    -11.252871    12A    -11.243189  
      13A    -11.238062    14A    -11.235518    15A     -1.647772  
      16A     -1.428341    17A     -1.254896    18A     -1.185062  
      19A     -1.111522    20A     -1.044565    21A     -1.033579  
      22A     -1.023067    23A     -0.894479    24A     -0.879174  
      25A     -0.854040    26A     -0.827273    27A     -0.774819  
      28A     -0.750763    29A     -0.725290    30A     -0.714194  
      31A     -0.698764    32A     -0.666922    33A     -0.660633  
      34A     -0.640757    35A     -0.636590    36A     -0.615924  
      37A     -0.611440    38A     -0.596453    39A     -0.580473  
      40A     -0.546705    41A     -0.538542    42A     -0.537005  
      43A     -0.518428    44A     -0.498897    45A     -0.417938  
      46A     -0.396319    47A     -0.361658    48A     -0.347747  
      49A     -0.320516  

    Virtual:                                                              

      50A      0.021623    51A      0.028784    52A      0.034565  
      53A      0.037951    54A      0.044594    55A      0.046739  
      56A      0.054753    57A      0.055623    58A      0.076631  
      59A      0.080308    60A      0.082672    61A      0.082971  
      62A      0.091995    63A      0.095795    64A      0.097057  
      65A      0.102265    66A      0.104422    67A      0.107586  
      68A      0.110300    69A      0.112759    70A      0.114711  
      71A      0.119222    72A      0.120806    73A      0.127258  
      74A      0.130383    75A      0.132303    76A      0.134780  
      77A      0.137687    78A      0.142009    79A      0.145495  
      80A      0.149518    81A      0.152330    82A      0.153171  
      83A      0.157738    84A      0.166375    85A      0.167113  
      86A      0.173654    87A      0.176317    88A      0.177783  
      89A      0.185078    90A      0.195743    91A      0.203784  
      92A      0.212944    93A      0.213375    94A      0.218179  
      95A      0.221985    96A      0.226662    97A      0.232146  
      98A      0.237173    99A      0.238223   100A      0.240774  
     101A      0.244688   102A      0.245557   103A      0.251428  
     104A      0.253435   105A      0.261908   106A      0.264515  
     107A      0.268989   108A      0.271961   109A      0.275762  
     110A      0.276799   111A      0.280636   112A      0.289156  
     113A      0.289910   114A      0.297001   115A      0.299492  
     116A      0.303769   117A      0.311546   118A      0.313402  
     119A      0.317396   120A      0.318835   121A      0.323814  
     122A      0.326801   123A      0.330199   124A      0.332735  
     125A      0.341079   126A      0.347159   127A      0.348303  
     128A      0.354093   129A      0.358068   130A      0.359962  
     131A      0.373400   132A      0.377322   133A      0.382321  
     134A      0.388028   135A      0.392684   136A      0.397531  
     137A      0.400205   138A      0.403688   139A      0.407931  
     140A      0.416094   141A      0.418964   142A      0.423151  
     143A      0.424276   144A      0.429704   145A      0.433791  
     146A      0.437690   147A      0.443881   148A      0.446527  
     149A      0.447891   150A      0.455710   151A      0.459836  
     152A      0.463027   153A      0.467447   154A      0.468148  
     155A      0.474350   156A      0.477411   157A      0.479450  
     158A      0.484884   159A      0.487472   160A      0.492176  
     161A      0.497393   162A      0.498342   163A      0.498984  
     164A      0.503114   165A      0.507894   166A      0.512113  
     167A      0.513427   168A      0.516296   169A      0.521331  
     170A      0.525848   171A      0.527798   172A      0.533144  
     173A      0.534945   174A      0.541038   175A      0.542078  
     176A      0.544905   177A      0.551478   178A      0.553439  
     179A      0.556662   180A      0.565614   181A      0.569228  
     182A      0.578188   183A      0.578893   184A      0.586483  
     185A      0.592205   186A      0.596016   187A      0.601727  
     188A      0.607309   189A      0.611129   190A      0.618263  
     191A      0.632719   192A      0.639610   193A      0.641516  
     194A      0.648019   195A      0.654190   196A      0.661145  
     197A      0.664270   198A      0.677479   199A      0.684383  
     200A      0.685461   201A      0.690648   202A      0.699254  
     203A      0.707294   204A      0.708791   205A      0.713629  
     206A      0.721962   207A      0.729226   208A      0.730195  
     209A      0.738203   210A      0.740323   211A      0.746488  
     212A      0.747067   213A      0.752167   214A      0.759273  
     215A      0.762986   216A      0.768380   217A      0.776099  
     218A      0.779666   219A      0.791610   220A      0.793495  
     221A      0.806041   222A      0.808833   223A      0.819025  
     224A      0.821940   225A      0.825417   226A      0.827672  
     227A      0.834892   228A      0.840411   229A      0.846509  
     230A      0.852604   231A      0.858910   232A      0.865329  
     233A      0.871210   234A      0.871898   235A      0.876840  
     236A      0.880142   237A      0.883553   238A      0.887066  
     239A      0.897564   240A      0.899908   241A      0.902636  
     242A      0.911854   243A      0.916055   244A      0.922378  
     245A      0.927239   246A      0.929864   247A      0.934326  
     248A      0.940818   249A      0.942740   250A      0.946499  
     251A      0.952477   252A      0.962735   253A      0.964282  
     254A      0.966601   255A      0.971056   256A      0.975228  
     257A      0.978387   258A      0.983109   259A      0.989799  
     260A      0.996196   261A      0.999448   262A      1.005978  
     263A      1.008638   264A      1.014243   265A      1.020409  
     266A      1.022448   267A      1.025985   268A      1.031171  
     269A      1.038815   270A      1.041303   271A      1.043132  
     272A      1.049892   273A      1.051441   274A      1.056445  
     275A      1.062276   276A      1.066477   277A      1.070293  
     278A      1.074452   279A      1.076834   280A      1.079437  
     281A      1.081618   282A      1.090523   283A      1.094790  
     284A      1.102493   285A      1.107280   286A      1.112146  
     287A      1.115765   288A      1.119348   289A      1.123941  
     290A      1.131337   291A      1.136310   292A      1.140531  
[...]
	 B(1,2,10)        =         2.087251	     119.590648
	 B(1,2,16)        =         2.115442	     121.205870
	 B(1,8,9)         =         2.113759	     121.109490
	 B(1,8,11)        =         2.027380	     116.160319
	 B(2,1,8)         =         2.133469	     122.238756
	 B(2,1,15)        =         2.083306	     119.364637
	 B(2,10,5)        =         2.090976	     119.804097
	 B(2,10,13)       =         2.051014	     117.514421
	 B(3,6,12)        =         2.161124	     123.823285
	 B(3,6,20)        =         2.094002	     119.977499
	 B(3,9,4)         =         2.042210	     117.010004
	 B(3,9,8)         =         2.134666	     122.307377
	 B(4,7,12)        =         2.157432	     123.611732
	 B(4,7,21)        =         2.096121	     120.098909
	 B(4,9,8)         =         2.105618	     120.643015
	 B(5,10,13)       =         2.141194	     122.681398
	 B(5,11,8)        =         2.150187	     123.196664
	 B(5,11,14)       =         2.048922	     117.394605
	 B(6,3,9)         =         2.082490	     119.317865
	 B(6,3,17)        =         2.095937	     120.088318
	 B(6,12,7)        =         2.036853	     116.703087
	 B(7,4,9)         =         2.086262	     119.534023
	 B(7,4,18)        =         2.096196	     120.103170
	 B(8,1,15)        =         2.066201	     118.384623
	 B(8,11,14)       =         2.083803	     119.393110
	 B(9,3,17)        =         2.104706	     120.590753
	 B(9,4,18)        =         2.100583	     120.354527
	 B(9,8,11)        =         2.142001	     122.727599
	 B(10,2,16)       =         2.080454	     119.201237
	 B(10,5,11)       =         2.077078	     119.007789
	 B(10,5,19)       =         2.127851	     121.916870
	 B(10,13,22)      =         1.907568	     109.295602
	 B(11,5,19)       =         2.078241	     119.074448
	 B(12,6,20)       =         2.028050	     116.198698
	 B(12,7,21)       =         2.029623	     116.288811
	 D(1,2,10,5)      =         0.001525	       0.087358
	 D(1,2,10,13)     =         3.141322	     179.984480
	 D(1,8,9,3)       =         2.358059	     135.106808
	 D(1,8,9,4)       =        -0.742379	     -42.535180
	 D(1,8,11,5)      =         0.008445	       0.483862
	 D(1,8,11,14)     =         3.124269	     179.007450
	 D(2,1,8,9)       =        -3.135331	    -179.641244
	 D(2,1,8,11)      =        -0.003690	      -0.211426
	 D(2,10,5,11)     =         0.002924	       0.167536
	 D(2,10,5,19)     =        -3.132610	    -179.485312
	 D(2,10,13,22)    =        -3.139726	    -179.893065
	 D(3,6,12,7)      =        -0.000205	      -0.011751
	 D(3,9,4,7)       =        -0.000314	      -0.017972
	 D(3,9,4,18)      =         3.123030	     178.936437
	 D(3,9,8,11)      =        -0.772916	     -44.284841
	 D(4,7,12,6)      =        -0.000045	      -0.002572
	 D(4,9,3,6)       =         0.000085	       0.004854
	 D(4,9,3,17)      =         3.130574	     179.368675
	 D(4,9,8,11)      =         2.409831	     138.073171
	 D(5,10,2,16)     =        -3.130670	    -179.374203
	 D(5,10,13,22)    =         0.000015	       0.000873
	 D(5,11,8,9)      =         3.139909	     179.903560
	 D(6,3,9,8)       =        -3.101766	    -177.718080
	 D(6,12,7,21)     =        -3.136930	    -179.732871
	 D(7,4,9,8)       =         3.102238	     177.745124
	 D(7,12,6,20)     =        -3.137213	    -179.749059
	 D(8,1,2,10)      =        -0.001087	      -0.062282
	 D(8,1,2,16)      =         3.130915	     179.388200
	 D(8,9,3,17)      =         0.028724	       1.645741
	 D(8,9,4,18)      =        -0.057604	      -3.300468
	 D(8,11,5,10)     =        -0.008220	      -0.470947
	 D(8,11,5,19)     =         3.127489	     179.191900
	 D(9,3,6,12)      =         0.000185	       0.010588
	 D(9,3,6,20)      =         3.137028	     179.738480
	 D(9,4,7,12)      =         0.000309	       0.017700
	 D(9,4,7,21)      =         3.137023	     179.738207
	 D(9,8,1,15)      =        -0.015873	      -0.909431
	 D(9,8,11,14)     =        -0.027451	      -1.572852
	 D(10,2,1,15)     =        -3.120336	    -178.782074
	 D(10,5,11,14)    =        -3.124525	    -179.022121
	 D(11,5,10,13)    =        -3.136777	    -179.724060
	 D(11,8,1,15)     =         3.115769	     178.520387
	 D(12,6,3,17)     =        -3.130361	    -179.356490
	 D(12,7,4,18)     =        -3.123081	    -178.939378
	 D(13,10,2,16)    =         0.009127	       0.522918
	 D(13,10,5,19)    =         0.010875	       0.623092
	 D(14,11,5,19)    =         0.011183	       0.640726
	 D(15,1,2,16)     =         0.011666	       0.668407
	 D(17,3,6,20)     =         0.006482	       0.371403
	 D(18,4,7,21)     =         0.013633	       0.781129
	 R(3,14)          =         5.487158	       2.903679

	Current energy   :      -652.8758820658

	Energy change for the previous step:
		Projected    :        -0.0000033002
		Actual       :         0.0000002234

	Performing BFGS update.
	Previous computed or guess Hessian on step 1.
	Steps to be used in Hessian update: 6 5
	Adding user-defined constraint: Fragment 1; Coordinate 61:
		Value =     2.358059; Fixed value    =     2.356190
		Force =    -0.001215; Force constant =     0.650000
	Removing off-diagonal coupling between coordinate 61 and others.
	Taking RFO optimization step.
	Going to follow RFO solution 1.
	Using RFO vector 1.
	Norm of target step-size    0.00229
	Projected energy change by RFO approximation:        -0.0000001475

	Back-transformation to cartesian coordinates...
	Could not converge backtransformation.
	Using first guess instead.

	--- Internal Coordinate Step in ANG or DEG, aJ/ANG or AJ/DEG ---
	 ---------------------------------------------------------------------------
	   Coordinate                Previous        Force       Change         New 
	   ----------                --------       ------       ------       ------
	    1 R(1,2)          =      1.381997     0.000048     0.000006     1.382003
	    2 R(1,8)          =      1.395896    -0.000137    -0.000004     1.395892
	    3 R(1,15)         =      1.079715    -0.000038    -0.000008     1.079707
	    4 R(2,10)         =      1.387909    -0.000081    -0.000010     1.387899
	    5 R(2,16)         =      1.078026    -0.000060    -0.000010     1.078017
	    6 R(3,6)          =      1.385576     0.000031     0.000005     1.385582
	    7 R(3,9)          =      1.391458     0.000035     0.000003     1.391461
	    8 R(3,17)         =      1.078202     0.000043     0.000012     1.078214
	    9 R(4,7)          =      1.385561     0.000014    -0.000001     1.385561
	   10 R(4,9)          =      1.391515    -0.000151    -0.000020     1.391494
	   11 R(4,18)         =      1.079736     0.000005     0.000000     1.079736
	   12 R(5,10)         =      1.386938     0.000019    -0.000002     1.386936
	   13 R(5,11)         =      1.379544    -0.000046     0.000002     1.379546
	   14 R(5,19)         =      1.079375    -0.000019    -0.000001     1.079374
	   15 R(6,12)         =      1.335296    -0.000112    -0.000012     1.335284
	   16 R(6,20)         =      1.080914    -0.000038    -0.000007     1.080908
	   17 R(7,12)         =      1.334734    -0.000007     0.000007     1.334741
	   18 R(7,21)         =      1.081092    -0.000049    -0.000008     1.081084
	   19 R(8,9)          =      1.461054     0.000338     0.000078     1.461132
	   20 R(8,11)         =      1.387172     0.000016     0.000008     1.387180
	   21 R(10,13)        =      1.359610    -0.000113    -0.000023     1.359587
	   22 R(11,14)        =      1.346817    -0.000504    -0.000059     1.346758
	   23 R(13,22)        =      0.961990    -0.000024    -0.000003     0.961987
	   24 B(1,2,10)       =    119.590648    -0.000001    -0.002585   119.588063
	   25 B(1,2,16)       =    121.205870    -0.000001    -0.006202   121.199668
	   26 B(1,8,9)        =    121.109490    -0.000000    -0.010443   121.099048
	   27 B(1,8,11)       =    116.160319     0.000001     0.001384   116.161704
	   28 B(2,1,8)        =    122.238756     0.000001     0.003219   122.241975
	   29 B(2,1,15)       =    119.364637    -0.000000    -0.002434   119.362203
	   30 B(2,10,5)       =    119.804097    -0.000000    -0.002260   119.801837
	   31 B(2,10,13)      =    117.514421     0.000000     0.001344   117.515765
	   32 B(3,6,12)       =    123.823285    -0.000001    -0.003512   123.819773
	   33 B(3,6,20)       =    119.977499     0.000001     0.002705   119.980204
	   34 B(3,9,4)        =    117.010004     0.000000     0.000556   117.010559
	   35 B(3,9,8)        =    122.307377    -0.000002    -0.000815   122.306561
	   36 B(4,7,12)       =    123.611732    -0.000000     0.000180   123.611911
	   37 B(4,7,21)       =    120.098909     0.000000     0.001324   120.100233
	   38 B(4,9,8)        =    120.643015     0.000001     0.000818   120.643833
	   39 B(5,10,13)      =    122.681398     0.000000     0.000889   122.682287
	   40 B(5,11,8)       =    123.196664    -0.000002    -0.007155   123.189510
	   41 B(5,11,14)      =    117.394605     0.000001    -0.001463   117.393142
	   42 B(6,3,9)        =    119.317865     0.000000     0.001894   119.319760
	   43 B(6,3,17)       =    120.088318     0.000000     0.002838   120.091156
	   44 B(6,12,7)       =    116.703087     0.000001     0.002102   116.705189
	   45 B(7,4,9)        =    119.534023    -0.000000    -0.001244   119.532779
	   46 B(7,4,18)       =    120.103170     0.000000     0.000728   120.103898
	   47 B(8,1,15)       =    118.384623    -0.000000    -0.000528   118.384095
	   48 B(8,11,14)      =    119.393110     0.000001     0.008258   119.401367
	   49 B(9,3,17)       =    120.590753    -0.000001    -0.004472   120.586281
	   50 B(9,4,18)       =    120.354527     0.000000     0.000796   120.355323
	   51 B(9,8,11)       =    122.727599    -0.000000     0.009028   122.736627
	   52 B(10,2,16)      =    119.201237     0.000002     0.008906   119.210143
	   53 B(10,5,11)      =    119.007789     0.000001     0.007306   119.015095
	   54 B(10,5,19)      =    121.916870    -0.000001    -0.006798   121.910072
	   55 B(10,13,22)     =    109.295602     0.000000     0.000482   109.296085
	   56 B(11,5,19)      =    119.074448     0.000000    -0.000561   119.073886
	   57 B(12,6,20)      =    116.198698     0.000000     0.000720   116.199418
	   58 B(12,7,21)      =    116.288811    -0.000000    -0.001756   116.287055
	   59 D(1,2,10,5)     =      0.087358     0.000000     0.018259     0.105617
	   60 D(1,2,10,13)    =    179.984480     0.000000     0.003140   179.987620
	   61 D(1,8,9,3)      =    135.106808    -0.000001    -0.004977   135.101830
	   62 D(1,8,9,4)      =    -42.535180    -0.000000    -0.021675   -42.556855
	   63 D(1,8,11,5)     =      0.483862     0.000000     0.016325     0.500187
	   64 D(1,8,11,14)    =    179.007450     0.000000    -0.000601   179.006849
	   65 D(2,1,8,9)      =   -179.641244     0.000000    -0.010258  -179.651502
	   66 D(2,1,8,11)     =     -0.211426    -0.000000    -0.013496    -0.224922
	   67 D(2,10,5,11)    =      0.167536    -0.000000    -0.015564     0.151972
	   68 D(2,10,5,19)    =   -179.485312    -0.000000    -0.005434  -179.490747
	   69 D(2,10,13,22)   =   -179.893065     0.000000     0.008549  -179.884517
	   70 D(3,6,12,7)     =     -0.011751    -0.000000    -0.018719    -0.030470
	   71 D(3,9,4,7)      =     -0.017972    -0.000000    -0.027292    -0.045264
	   72 D(3,9,4,18)     =    178.936437    -0.000000    -0.009432   178.927005
	   73 D(3,9,8,11)     =    -44.284841    -0.000000    -0.001468   -44.286309
	   74 D(4,7,12,6)     =     -0.002572    -0.000000    -0.014198    -0.016770
	   75 D(4,9,3,6)      =      0.004854    -0.000000    -0.002842     0.002012
	   76 D(4,9,3,17)     =    179.368675     0.000000     0.024793   179.393468
	   77 D(4,9,8,11)     =    138.073171    -0.000000    -0.018166   138.055005
	   78 D(5,10,2,16)    =   -179.374203     0.000000     0.003837  -179.370366
	   79 D(5,10,13,22)   =      0.000873    -0.000000    -0.007042    -0.006169
	   80 D(5,11,8,9)     =    179.903560     0.000000     0.012906   179.916467
	   81 D(6,3,9,8)      =   -177.718080    -0.000000    -0.018974  -177.737054
	   82 D(6,12,7,21)    =   -179.732871     0.000000     0.042088  -179.690783
	   83 D(7,4,9,8)      =    177.745124    -0.000000    -0.011484   177.733640
	   84 D(7,12,6,20)    =   -179.749059     0.000000     0.002383  -179.746676
	   85 D(8,1,2,10)     =     -0.062282    -0.000000    -0.003361    -0.065642
	   86 D(8,1,2,16)     =    179.388200     0.000000     0.011439   179.399639
	   87 D(8,9,3,17)     =      1.645741     0.000000     0.008661     1.654402
	   88 D(8,9,4,18)     =     -3.300468    -0.000000     0.006377    -3.294091
	   89 D(8,11,5,10)    =     -0.470947    -0.000000    -0.002166    -0.473113
	   90 D(8,11,5,19)    =    179.191900    -0.000000    -0.012027   179.179872
	   91 D(9,3,6,12)     =      0.010588     0.000000     0.027310     0.037898
	   92 D(9,3,6,20)     =    179.738480     0.000000     0.005446   179.743926
	   93 D(9,4,7,12)     =      0.017700     0.000000     0.037715     0.055415
	   94 D(9,4,7,21)     =    179.738207    -0.000000    -0.020625   179.717582
	   95 D(9,8,1,15)     =     -0.909431     0.000000     0.003371    -0.906060
	   96 D(9,8,11,14)    =     -1.572852    -0.000000    -0.004020    -1.576872
	   97 D(10,2,1,15)    =   -178.782074    -0.000000    -0.017143  -178.799217
	   98 D(10,5,11,14)   =   -179.022121     0.000000     0.014305  -179.007816
	   99 D(11,5,10,13)   =   -179.724060     0.000000     0.000366  -179.723694
	  100 D(11,8,1,15)    =    178.520387    -0.000000     0.000133   178.520520
	  101 D(12,6,3,17)    =   -179.356490     0.000000    -0.000138  -179.356628
	  102 D(12,7,4,18)    =   -178.939378     0.000000     0.019899  -178.919479
	  103 D(13,10,2,16)   =      0.522918    -0.000000    -0.011281     0.511637
	  104 D(13,10,5,19)   =      0.623092     0.000000     0.010496     0.633588
	  105 D(14,11,5,19)   =      0.640726     0.000000     0.004444     0.645170
	  106 D(15,1,2,16)    =      0.668407     0.000000    -0.002343     0.666064
	  107 D(17,3,6,20)    =      0.371403    -0.000000    -0.022002     0.349400
	  108 D(18,4,7,21)    =      0.781129    -0.000000    -0.038441     0.742688
	  109 R(3,14)         =      2.903679     0.000198     0.000563     2.904242
	 ---------------------------------------------------------------------------
	Successfully symmetrized geometry.
	 Forces used to impose fixed constraints are not included.
	  Forces zeroed: 61 

  ==> Convergence Check <==

  Measures of convergence in internal coordinates in au.
  Criteria marked as inactive (o), active & met (*), and active & unmet ( ).
  ---------------------------------------------------------------------------------------------
   Step     Total Energy     Delta E     MAX Force     RMS Force      MAX Disp      RMS Disp   
  ---------------------------------------------------------------------------------------------
    Convergence Criteria    1.00e-06 *    3.00e-04 *             o    1.20e-03 *             o
  ---------------------------------------------------------------------------------------------
      7    -652.87588207    2.23e-07 *    6.11e-05 *    1.16e-05 o    1.06e-03 *    2.19e-04 o  ~
  ---------------------------------------------------------------------------------------------


  **** Optimization is complete! (in 7 steps) ****

  ==> Optimization Summary <==

  Measures of convergence in internal coordinates in au.
  --------------------------------------------------------------------------------------------------------------- ~
   Step         Total Energy             Delta E       MAX Force       RMS Force        MAX Disp        RMS Disp  ~
  --------------------------------------------------------------------------------------------------------------- ~
      1    -652.871385163785   -652.871385163785      0.01505303      0.00476744      0.03055377      0.00958587  ~
      2    -652.874697610548     -0.003312446763      0.00592873      0.00181130      0.05188847      0.00959509  ~
      3    -652.875647559443     -0.000949948895      0.00226810      0.00047708      0.06341658      0.00954860  ~
      4    -652.875842458807     -0.000194899363      0.00092466      0.00020664      0.03807689      0.00473068  ~
      5    -652.875878906048     -0.000036447242      0.00049041      0.00009086      0.01298494      0.00189041  ~
      6    -652.875882289269     -0.000003383221      0.00014549      0.00004127      0.00243106      0.00070309  ~
      7    -652.875882065822      0.000000223447      0.00006113      0.00001190      0.00106432      0.00021946  ~
  --------------------------------------------------------------------------------------------------------------- ~

	Writing optimization data to binary file.
	Final energy is   -652.8758820658225
	Final (previous) structure:
	Cartesian Geometry (in Angstrom)
	    C    -1.3170089102   0.7168814089  -0.7817427451
	    C    -2.4070935488   1.3000484920  -0.1640483822
	    C     2.1811547596  -0.2424936366  -0.3272219554
	    C     0.6887866817  -1.2625461844  -1.8645784763
	    C    -1.4651134932   0.7471931990   1.9738118626
	    C     3.2229888824  -0.8076692557  -1.0448428706
	    C     1.7936883269  -1.7845592968  -2.5176288122
	    C    -0.2742378907   0.1353974587  -0.0585332049
	    C     0.8706121975  -0.4676101290  -0.7370459116
	    C    -2.4827852345   1.3149012826   1.2217157689
	    C    -0.3896568807   0.1787093335   1.3231496309
	    N     3.0520121051  -1.5706235666  -2.1272859324
	    O    -3.5733250497   1.8997287093   1.7849549546
	    F     0.5700225009  -0.3809964256   2.0845038956
	    H    -1.2521942918   0.7248732041  -1.8594813306
	    H    -3.1985775129   1.7530871566  -0.7388955530
	    H     2.3889137483   0.3731584013   0.5332016969
	    H    -0.3059873218  -1.4862142861  -2.2198620378
	    H    -1.4929602996   0.7324832192   3.0527269930
	    H     4.2453001737  -0.6362853013  -0.7384394263
	    H     1.6628185404  -2.4067666227  -3.3919809400
	    H    -3.5039729163   1.8454743708   2.7429066629
	Saving final (previous) structure.
			--------------------------
			 OPTKING Finished Execution 
			--------------------------

    Final optimized geometry and variables:
    Molecular point group: c1
    Full point group: C1

    Geometry (in Angstrom), charge = 0, multiplicity = 1:

    C           -1.317008910210     0.716881408947    -0.781742745095
    C           -2.407093548834     1.300048491962    -0.164048382194
    C            2.181154759598    -0.242493636558    -0.327221955365
    C            0.688786681687    -1.262546184430    -1.864578476274
    C           -1.465113493185     0.747193198963     1.973811862553
    C            3.222988882427    -0.807669255655    -1.044842870561
    C            1.793688326864    -1.784559296820    -2.517628812164
    C           -0.274237890740     0.135397458678    -0.058533204944
    C            0.870612197502    -0.467610128958    -0.737045911560
    C           -2.482785234493     1.314901282614     1.221715768940
    C           -0.389656880691     0.178709333542     1.323149630937
    N            3.052012105060    -1.570623566600    -2.127285932367
    O           -3.573325049706     1.899728709258     1.784954954633
    F            0.570022500885    -0.380996425613     2.084503895621
    H           -1.252194291845     0.724873204146    -1.859481330595
    H           -3.198577512942     1.753087156619    -0.738895553008
    H            2.388913748264     0.373158401323     0.533201696932
    H           -0.305987321804    -1.486214286135    -2.219862037838
    H           -1.492960299603     0.732483219213     3.052726993025
    H            4.245300173709    -0.636285301336    -0.738439426272
    H            1.662818540402    -2.406766622689    -3.391980939960
    H           -3.503972916264     1.845474370779     2.742906662883

	Cleaning optimization helper files.

*** Psi4 exiting successfully. Buy a developer a beer!
