
    -----------------------------------------------------------------------
          Psi4: An Open-Source Ab Initio Electronic Structure Package
                               Psi4 1.1 release

                         Git: Rev {HEAD} add49b9 


    R. M. Parrish, L. A. Burns, D. G. A. Smith, A. C. Simmonett,
    A. E. DePrince III, E. G. Hohenstein, U. Bozkaya, A. Yu. Sokolov,
    R. Di Remigio, R. M. Richard, J. F. Gonthier, A. M. James,
    H. R. McAlexander, A. Kumar, M. Saitow, X. Wang, B. P. Pritchard,
    P. Verma, H. F. Schaefer III, K. Patkowski, R. A. King, E. F. Valeev,
    F. A. Evangelista, J. M. Turney, T. D. Crawford, and C. D. Sherrill,
    J. Chem. Theory Comput. in press (2017).
    (doi: 10.1021/acs.jctc.7b00174)

    -----------------------------------------------------------------------


    Psi4 started on: Sunday, 12 November 2017 05:41AM

    Process ID:   1798
    PSIDATADIR: /cbio/jclab/home/chayas/anaconda/envs/py35/share/psi4
    Memory:     500.0 MiB
    Threads:    8
    
  ==> Input File <==

--------------------------------------------------------------------------

memory 5 Gb

molecule phepyrOH_anion {
  symmetry C1
  -1 1 
  C      1.885   -1.036   -0.112
  C      2.878   -1.652   2.002
  C      0.807   -0.463   0.561
  C      1.800   -1.079   2.676
  C      4.836   -1.448   -0.924
  C      4.324   -3.577   0.072
  C      5.896   -2.065   -1.569
  C      5.407   -4.099   -0.618
  C      2.921   -1.631   0.608
  C      4.040   -2.226   -0.090
  C      0.764   -0.484   1.955
  N      6.203   -3.375   -1.437
  O      -0.227   0.042   2.574
  H      1.904   -1.011   -1.199
  H      3.678   -2.112   2.577
  H      0.011   -0.006   -0.025
  H      1.791   -1.108   3.764
  H      4.646   -0.391   -1.075
  H      3.725   -4.215   0.714
  H      6.548   -1.502   -2.229
  H      5.671   -5.147   -0.527
  units Angstrom
}

dih_string = "1 9 10 5 60"
set optking fixed_dihedral = $dih_string

optimize('MP2/aug-cc-PVTZ')
--------------------------------------------------------------------------

  Memory set to   4.657 GiB by Python driver.
gradient() will perform analytic gradient computation.

*** tstart() called on gpu-1-7.local
*** at Sun Nov 12 05:41:03 2017

    SCF Algorithm Type (re)set to DF.

*** tstart() called on gpu-1-7.local
*** at Sun Nov 12 05:41:03 2017

   => Loading Basis Set <=

    Name: AUG-CC-PVTZ
    Role: ORBITAL
    Keyword: BASIS
    atoms 1-11  entry C          line   221 file /cbio/jclab/home/chayas/anaconda/envs/py35/share/psi4/basis/aug-cc-pvtz.gbs 
    atoms 12    entry N          line   267 file /cbio/jclab/home/chayas/anaconda/envs/py35/share/psi4/basis/aug-cc-pvtz.gbs 
    atoms 13    entry O          line   313 file /cbio/jclab/home/chayas/anaconda/envs/py35/share/psi4/basis/aug-cc-pvtz.gbs 
    atoms 14-21 entry H          line    34 file /cbio/jclab/home/chayas/anaconda/envs/py35/share/psi4/basis/aug-cc-pvtz.gbs 


         ---------------------------------------------------------
                                   SCF
            by Justin Turney, Rob Parrish, and Andy Simmonett
                              RHF Reference
                        8 Threads,   4768 MiB Core
         ---------------------------------------------------------

  ==> Geometry <==

    Molecular point group: c1
    Full point group: C1

    Geometry (in Angstrom), charge = -1, multiplicity = 1:

       Center              X                  Y                   Z               Mass       
    ------------   -----------------  -----------------  -----------------  -----------------
           C         -1.279278822161     0.724089246537    -0.569461328706    12.000000000000
           C         -0.286278822161     0.108089246537     1.544538671294    12.000000000000
           C         -2.357278822161     1.297089246537     0.103538671294    12.000000000000
           C         -1.364278822161     0.681089246537     2.218538671294    12.000000000000
           C          1.671721177839     0.312089246537    -1.381461328706    12.000000000000
           C          1.159721177839    -1.816910753463    -0.385461328706    12.000000000000
           C          2.731721177839    -0.304910753463    -2.026461328706    12.000000000000
           C          2.242721177839    -2.338910753463    -1.075461328706    12.000000000000
           C         -0.243278822161     0.129089246537     0.150538671294    12.000000000000
           C          0.875721177839    -0.465910753463    -0.547461328706    12.000000000000
           C         -2.400278822161     1.276089246537     1.497538671294    12.000000000000
           N          3.038721177839    -1.614910753463    -1.894461328706    14.003074004780
           O         -3.391278822161     1.802089246537     2.116538671294    15.994914619560
           H         -1.260278822161     0.749089246537    -1.656461328706     1.007825032070
           H          0.513721177839    -0.351910753463     2.119538671294     1.007825032070
           H         -3.153278822161     1.754089246537    -0.482461328706     1.007825032070
           H         -1.373278822161     0.652089246537     3.306538671294     1.007825032070
           H          1.481721177839     1.369089246537    -1.532461328706     1.007825032070
           H          0.560721177839    -2.454910753463     0.256538671294     1.007825032070
           H          3.383721177839     0.258089246537    -2.686461328706     1.007825032070
           H          2.506721177839    -3.386910753463    -0.984461328706     1.007825032070

  Running in c1 symmetry.

  Rotational constants: A =      0.09732  B =      0.01358  C =      0.01269 [cm^-1]
  Rotational constants: A =   2917.55447  B =    407.05733  C =    380.46736 [MHz]
  Nuclear repulsion =  685.948069055689871

  Charge       = -1
  Multiplicity = 1
  Electrons    = 90
  Nalpha       = 45
  Nbeta        = 45

  ==> Algorithm <==

  SCF Algorithm Type is DF.
  DIIS enabled.
  MOM disabled.
  Fractional occupation disabled.
  Guess Type is SAD.
  Energy threshold   = 1.00e-10
  Density threshold  = 1.00e-10
  Integral threshold = 0.00e+00

  ==> Primary Basis <==

  Basis Set: AUG-CC-PVTZ
    Blend: AUG-CC-PVTZ
    Number of shells: 254
    Number of basis function: 782
    Number of Cartesian functions: 915
    Spherical Harmonics?: true
    Max angular momentum: 3

   => Loading Basis Set <=

    Name: (AUG-CC-PVTZ AUX)
    Role: JKFIT
    Keyword: DF_BASIS_SCF
    atoms 1-11  entry C          line   161 file /cbio/jclab/home/chayas/anaconda/envs/py35/share/psi4/basis/aug-cc-pvtz-jkfit.gbs 
    atoms 12    entry N          line   223 file /cbio/jclab/home/chayas/anaconda/envs/py35/share/psi4/basis/aug-cc-pvtz-jkfit.gbs 
    atoms 13    entry O          line   285 file /cbio/jclab/home/chayas/anaconda/envs/py35/share/psi4/basis/aug-cc-pvtz-jkfit.gbs 
    atoms 14-21 entry H          line    69 file /cbio/jclab/home/chayas/anaconda/envs/py35/share/psi4/basis/aug-cc-pvtz-jkfit.gbs 

  ==> Pre-Iterations <==

   -------------------------------------------------------
    Irrep   Nso     Nmo     Nalpha   Nbeta   Ndocc  Nsocc
   -------------------------------------------------------
     A        782     782       0       0       0       0
   -------------------------------------------------------
    Total     782     782      45      45      45       0
   -------------------------------------------------------

  ==> Integral Setup <==

  ==> DFJK: Density-Fitted J/K Matrices <==

    J tasked:                  Yes
    K tasked:                  Yes
    wK tasked:                  No
    OpenMP threads:              8
    Integrals threads:           8
    Memory (MB):              3576
    Algorithm:                Disk
    Integral Cache:           NONE
    Schwarz Cutoff:          1E-12
    Fitting Condition:       1E-12

   => Auxiliary Basis Set <=

  Basis Set: (AUG-CC-PVTZ AUX)
    Blend: AUG-CC-PVTZ-JKFIT
    Number of shells: 502
    Number of basis function: 1720
    Number of Cartesian functions: 2143
    Spherical Harmonics?: true
    Max angular momentum: 4

  Minimum eigenvalue in the overlap matrix is 7.4130761101E-07.
  Using Symmetric Orthogonalization.

  SCF Guess: Superposition of Atomic Densities via on-the-fly atomic UHF.

  ==> Iterations <==

                           Total Energy        Delta E     RMS |[F,P]|

   @DF-RHF iter   0:  -562.25055683814992   -5.62251e+02   2.07193e-02 
   @DF-RHF iter   1:  -550.22131920616403    1.20292e+01   2.30929e-03 
   @DF-RHF iter   2:  -550.54486745364215   -3.23548e-01   1.25460e-03 DIIS
   @DF-RHF iter   3:  -550.68862950320704   -1.43762e-01   4.44727e-04 DIIS
   @DF-RHF iter   4:  -550.70753056720980   -1.89011e-02   1.95217e-04 DIIS
   @DF-RHF iter   5:  -550.71098363528790   -3.45307e-03   4.54400e-05 DIIS
   @DF-RHF iter   6:  -550.71160242445035   -6.18789e-04   2.61214e-05 DIIS
   @DF-RHF iter   7:  -550.71172547826063   -1.23054e-04   1.29615e-05 DIIS
   @DF-RHF iter   8:  -550.71174192918420   -1.64509e-05   3.56430e-06 DIIS
   @DF-RHF iter   9:  -550.71174354112236   -1.61194e-06   1.32630e-06 DIIS
   @DF-RHF iter  10:  -550.71174371784196   -1.76720e-07   4.38393e-07 DIIS
   @DF-RHF iter  11:  -550.71174375491262   -3.70707e-08   1.17575e-07 DIIS
   @DF-RHF iter  12:  -550.71174375853457   -3.62195e-09   7.87176e-08 DIIS
   @DF-RHF iter  13:  -550.71174375942508   -8.90509e-10   2.76270e-08 DIIS
   @DF-RHF iter  14:  -550.71174375962005   -1.94973e-10   1.18724e-08 DIIS
   @DF-RHF iter  15:  -550.71174375968394   -6.38920e-11   5.58795e-09 DIIS
   @DF-RHF iter  16:  -550.71174375967917    4.77485e-12   1.89805e-09 DIIS
   @DF-RHF iter  17:  -550.71174375968133   -2.16005e-12   8.87969e-10 DIIS
   @DF-RHF iter  18:  -550.71174375966507    1.62572e-11   3.34800e-10 DIIS
   @DF-RHF iter  19:  -550.71174375968417   -1.90994e-11   1.74063e-10 DIIS
   @DF-RHF iter  20:  -550.71174375967337    1.08002e-11   5.94641e-11 DIIS

  ==> Post-Iterations <==

    Orbital Energies (a.u.)
    -----------------------

    Doubly Occupied:                                                      

       1A    -20.288324     2A    -15.458660     3A    -11.171529  
       4A    -11.171443     5A    -11.144802     6A    -11.124725  
       7A    -11.124648     8A    -11.107983     9A    -11.095537  
      10A    -11.095514    11A    -11.072113    12A    -11.055843  
      13A    -11.055797    14A     -1.144467    15A     -1.121266  
      16A     -1.018335    17A     -0.957050    18A     -0.927791  
      19A     -0.862817    20A     -0.835913    21A     -0.748653  
      22A     -0.733630    23A     -0.677996    24A     -0.646638  
      25A     -0.594584    26A     -0.555318    27A     -0.545426  
      28A     -0.502446    29A     -0.493560    30A     -0.487438  
      31A     -0.478946    32A     -0.437475    33A     -0.429941  
      34A     -0.414676    35A     -0.404287    36A     -0.371646  
      37A     -0.356313    38A     -0.345982    39A     -0.312863  
      40A     -0.291737    41A     -0.252986    42A     -0.245842  
      43A     -0.206828    44A     -0.193855    45A     -0.104062  

    Virtual:                                                              

      46A      0.097453    47A      0.099304    48A      0.116455  
      49A      0.116751    50A      0.124016    51A      0.125524  
      52A      0.131358    53A      0.132426    54A      0.161656  
      55A      0.166721    56A      0.180180    57A      0.183937  
      58A      0.184793    59A      0.186525    60A      0.188402  
      61A      0.195627    62A      0.196333    63A      0.202380  
      64A      0.204728    65A      0.210731    66A      0.213291  
      67A      0.216022    68A      0.221863    69A      0.225892  
      70A      0.226406    71A      0.230371    72A      0.231380  
      73A      0.233826    74A      0.238379    75A      0.242114  
      76A      0.249027    77A      0.250658    78A      0.257419  
      79A      0.258207    80A      0.266455    81A      0.268152  
      82A      0.275684    83A      0.283346    84A      0.292266  
      85A      0.293436    86A      0.302189    87A      0.308444  
      88A      0.310611    89A      0.319476    90A      0.322136  
      91A      0.324885    92A      0.331245    93A      0.334659  
      94A      0.336021    95A      0.338536    96A      0.344813  
      97A      0.353510    98A      0.355171    99A      0.359539  
     100A      0.360790   101A      0.369550   102A      0.373301  
     103A      0.375689   104A      0.389430   105A      0.389665  
     106A      0.394688   107A      0.395163   108A      0.397768  
     109A      0.407602   110A      0.411135   111A      0.411381  
     112A      0.414504   113A      0.420011   114A      0.423244  
     115A      0.430351   116A      0.431353   117A      0.445065  
     118A      0.445777   119A      0.448907   120A      0.459871  
     121A      0.462649   122A      0.467477   123A      0.470099  
     124A      0.471166   125A      0.477866   126A      0.486352  
     127A      0.494815   128A      0.504574   129A      0.505261  
     130A      0.505874   131A      0.510772   132A      0.520527  
     133A      0.530615   134A      0.532987   135A      0.538445  
     136A      0.546243   137A      0.548305   138A      0.551094  
     139A      0.557967   140A      0.562576   141A      0.568838  
     142A      0.569864   143A      0.570804   144A      0.573059  
     145A      0.578940   146A      0.581974   147A      0.584595  
     148A      0.592124   149A      0.594275   150A      0.597389  
     151A      0.599195   152A      0.605638   153A      0.606069  
     154A      0.609617   155A      0.610306   156A      0.617428  
     157A      0.620729   158A      0.621872   159A      0.628775  
     160A      0.633287   161A      0.633676   162A      0.634958  
     163A      0.643475   164A      0.646717   165A      0.656057  
     166A      0.660251   167A      0.663979   168A      0.668965  
     169A      0.675674   170A      0.679300   171A      0.689240  
     172A      0.691473   173A      0.698880   174A      0.700942  
     175A      0.711160   176A      0.712632   177A      0.714946  
     178A      0.718903   179A      0.722591   180A      0.724454  
     181A      0.742496   182A      0.747166   183A      0.753971  
     184A      0.755777   185A      0.760584   186A      0.777406  
     187A      0.777630   188A      0.786888   189A      0.793033  
     190A      0.798028   191A      0.801744   192A      0.809083  
     193A      0.812964   194A      0.817398   195A      0.828115  
     196A      0.829420   197A      0.835280   198A      0.846603  
     199A      0.850515   200A      0.854431   201A      0.856723  
     202A      0.858098   203A      0.859278   204A      0.867298  
     205A      0.869833   206A      0.879105   207A      0.882818  
     208A      0.891180   209A      0.897065   210A      0.902051  
     211A      0.918813   212A      0.922978   213A      0.931188  
     214A      0.938744   215A      0.951029   216A      0.953052  
     217A      0.960459   218A      0.964549   219A      0.976749  
     220A      0.976934   221A      0.982801   222A      0.987707  
     223A      0.995480   224A      1.005445   225A      1.010737  
     226A      1.014679   227A      1.015233   228A      1.021714  
     229A      1.024345   230A      1.025091   231A      1.026164  
     232A      1.036408   233A      1.040071   234A      1.049530  
     235A      1.052247   236A      1.054561   237A      1.056157  
     238A      1.062827   239A      1.065138   240A      1.069103  
     241A      1.078008   242A      1.080527   243A      1.085833  
     244A      1.090015   245A      1.091084   246A      1.096870  
     247A      1.099505   248A      1.108413   249A      1.109851  
     250A      1.118107   251A      1.124871   252A      1.125361  
     253A      1.135206   254A      1.140311   255A      1.144459  
     256A      1.146637   257A      1.155418   258A      1.164288  
     259A      1.164833   260A      1.167584   261A      1.168430  
     262A      1.172127   263A      1.172255   264A      1.184750  
     265A      1.188347   266A      1.193728   267A      1.204040  
     268A      1.206774   269A      1.208583   270A      1.211827  
     271A      1.223347   272A      1.228897   273A      1.239344  
     274A      1.240534   275A      1.245734   276A      1.245942  
     277A      1.250110   278A      1.255114   279A      1.266718  
     280A      1.268692   281A      1.273327   282A      1.277061  
     283A      1.285982   284A      1.286120   285A      1.296855  
     286A      1.300076   287A      1.301589   288A      1.306110  
     289A      1.311689   290A      1.317424   291A      1.320529  
     292A      1.327365   293A      1.332908   294A      1.333880  
     295A      1.335820   296A      1.345883   297A      1.349079  
     298A      1.356438   299A      1.369991   300A      1.376047  
     301A      1.381188   302A      1.382341   303A      1.388928  
     304A      1.401696   305A      1.408112   306A      1.409277  
     307A      1.413758   308A      1.414497   309A      1.419557  
     310A      1.432214   311A      1.435685   312A      1.444139  
     313A      1.449785   314A      1.451375   315A      1.472069  
     316A      1.479029   317A      1.488186   318A      1.493217  
     319A      1.494024   320A      1.505887   321A      1.509509  
     322A      1.518654   323A      1.528770   324A      1.533630  
     325A      1.536198   326A      1.543168   327A      1.562034  
     328A      1.570993   329A      1.574875   330A      1.582497  
     331A      1.588400   332A      1.592103   333A      1.598513  
     334A      1.615623   335A      1.628521   336A      1.629024  
     337A      1.644252   338A      1.648891   339A      1.663682  
     340A      1.669831   341A      1.677571   342A      1.680356  
     343A      1.688705   344A      1.691338   345A      1.707697  
     346A      1.708495   347A      1.714269   348A      1.731922  
     349A      1.739430   350A      1.742141   351A      1.754177  
     352A      1.757953   353A      1.770278   354A      1.770321  
     355A      1.780745   356A      1.806771   357A      1.808751  
     358A      1.817124   359A      1.821205   360A      1.827112  
     361A      1.833943   362A      1.834630   363A      1.841857  
     364A      1.843659   365A      1.850630   366A      1.862463  
     367A      1.877560   368A      1.881166   369A      1.882909  
     370A      1.896812   371A      1.911790   372A      1.920967  
     373A      1.925319   374A      1.932432   375A      1.938027  
     376A      1.945839   377A      1.963669   378A      1.976075  
     379A      1.979788   380A      1.992270   381A      1.998494  
     382A      2.001584   383A      2.014648   384A      2.021197  
     385A      2.021567   386A      2.031936   387A      2.034074  
     388A      2.047243   389A      2.066319   390A      2.075644  
     391A      2.076575   392A      2.082310   393A      2.089680  
     394A      2.092844   395A      2.099416   396A      2.104877  
     397A      2.108511   398A      2.125745   399A      2.132169  
     400A      2.142449   401A      2.149754   402A      2.160920  
     403A      2.164384   404A      2.166300   405A      2.168869  
     406A      2.176235   407A      2.187414   408A      2.199729  
     409A      2.203778   410A      2.206893   411A      2.220277  
     412A      2.230371   413A      2.241895   414A      2.256267  
     415A      2.257795   416A      2.264183   417A      2.268670  
     418A      2.282869   419A      2.288059   420A      2.299245  
     421A      2.302033   422A      2.311839   423A      2.314615  
     424A      2.327814   425A      2.338898   426A      2.345373  
     427A      2.357747   428A      2.358415   429A      2.372115  
     430A      2.379682   431A      2.382337   432A      2.405531  
     433A      2.409983   434A      2.417377   435A      2.418910  
     436A      2.422701   437A      2.426066   438A      2.457296  
     439A      2.465417   440A      2.478746   441A      2.498439  
     442A      2.515194   443A      2.518666   444A      2.526717  
     445A      2.532892   446A      2.552707   447A      2.558408  
     448A      2.563682   449A      2.584813   450A      2.586514  
     451A      2.598552   452A      2.601246   453A      2.618846  
     454A      2.634062   455A      2.642262   456A      2.655537  
     457A      2.668282   458A      2.673344   459A      2.686271  
     460A      2.692170   461A      2.699253   462A      2.709314  
     463A      2.713106   464A      2.744481   465A      2.751916  
     466A      2.756967   467A      2.759346   468A      2.782729  
     469A      2.806907   470A      2.824638   471A      2.830524  
     472A      2.869183   473A      2.877572   474A      2.887588  
     475A      2.894835   476A      2.908440   477A      2.915173  
     478A      2.942742   479A      2.945569   480A      2.963507  
     481A      2.964565   482A      3.004636   483A      3.018592  
     484A      3.036454   485A      3.048628   486A      3.080580  
     487A      3.120662   488A      3.135375   489A      3.139321  
     490A      3.177326   491A      3.197123   492A      3.206755  
     493A      3.232564   494A      3.235701   495A      3.285456  
     496A      3.312249   497A      3.323615   498A      3.338003  
     499A      3.345571   500A      3.375866   501A      3.378115  
     502A      3.391712   503A      3.396001   504A      3.401779  
     505A      3.438487   506A      3.445352   507A      3.445789  
     508A      3.456590   509A      3.469491   510A      3.510694  
     511A      3.511255   512A      3.521681   513A      3.527533  
     514A      3.531601   515A      3.544794   516A      3.549377  
     517A      3.566556   518A      3.571245   519A      3.579090  
     520A      3.597121   521A      3.599228   522A      3.606265  
     523A      3.628492   524A      3.631730   525A      3.651994  
     526A      3.654567   527A      3.662885   528A      3.678629  
     529A      3.684622   530A      3.685280   531A      3.694254  
     532A      3.697741   533A      3.701669   534A      3.710821  
     535A      3.719118   536A      3.727360   537A      3.733053  
     538A      3.749078   539A      3.756694   540A      3.765919  
     541A      3.770870   542A      3.780922   543A      3.798529  
     544A      3.800076   545A      3.819539   546A      3.824333  
     547A      3.828888   548A      3.833601   549A      3.843184  
     550A      3.859493   551A      3.865870   552A      3.870750  
     553A      3.891374   554A      3.902133   555A      3.916153  
     556A      3.918247   557A      3.933129   558A      3.943114  
     559A      3.952746   560A      3.956220   561A      3.958963  
     562A      3.970140   563A      3.978698   564A      3.999211  
     565A      3.999794   566A      4.017963   567A      4.021464  
     568A      4.027238   569A      4.050897   570A      4.051453  
     571A      4.064505   572A      4.069859   573A      4.072956  
     574A      4.080844   575A      4.090413   576A      4.101099  
     577A      4.111992   578A      4.114204   579A      4.120491  
     580A      4.144804   581A      4.147672   582A      4.157650  
     583A      4.161916   584A      4.166426   585A      4.174220  
     586A      4.187043   587A      4.196227   588A      4.208540  
     589A      4.214079   590A      4.214396   591A      4.228203  
     592A      4.241162   593A      4.252770   594A      4.261779  
     595A      4.262463   596A      4.272319   597A      4.291317  
     598A      4.295400   599A      4.310354   600A      4.313468  
     601A      4.322262   602A      4.331212   603A      4.345259  
     604A      4.350209   605A      4.360473   606A      4.381975  
     607A      4.383883   608A      4.409555   609A      4.411394  
     610A      4.422142   611A      4.438241   612A      4.444981  
     613A      4.445543   614A      4.456196   615A      4.466847  
     616A      4.467407   617A      4.482243   618A      4.503614  
     619A      4.505828   620A      4.517752   621A      4.520340  
     622A      4.525115   623A      4.525432   624A      4.550667  
     625A      4.562344   626A      4.566044   627A      4.574078  
     628A      4.576045   629A      4.602235   630A      4.610103  
     631A      4.612292   632A      4.617621   633A      4.642339  
     634A      4.659117   635A      4.665468   636A      4.670364  
     637A      4.686100   638A      4.686807   639A      4.703124  
     640A      4.710377   641A      4.745962   642A      4.750272  
     643A      4.765138   644A      4.784528   645A      4.786822  
     646A      4.811537   647A      4.827721   648A      4.840389  
     649A      4.842843   650A      4.873600   651A      4.880579  
     652A      4.901766   653A      4.931904   654A      4.945040  
     655A      4.947235   656A      4.964961   657A      4.985156  
     658A      5.001422   659A      5.013116   660A      5.029458  
     661A      5.040851   662A      5.061267   663A      5.075671  
     664A      5.082922   665A      5.095427   666A      5.105109  
     667A      5.118498   668A      5.128138   669A      5.131526  
     670A      5.150860   671A      5.158336   672A      5.169071  
     673A      5.171674   674A      5.185491   675A      5.193566  
     676A      5.220291   677A      5.236631   678A      5.248312  
     679A      5.262062   680A      5.270189   681A      5.275004  
     682A      5.277707   683A      5.285653   684A      5.303702  
     685A      5.303871   686A      5.312436   687A      5.314611  
     688A      5.329238   689A      5.353425   690A      5.356459  
     691A      5.379074   692A      5.393556   693A      5.410191  
     694A      5.459814   695A      5.471107   696A      5.480782  
     697A      5.484486   698A      5.492330   699A      5.506931  
     700A      5.513950   701A      5.527818   702A      5.553274  
     703A      5.566203   704A      5.569360   705A      5.584280  
     706A      5.586985   707A      5.645361   708A      5.655469  
     709A      5.671363   710A      5.685132   711A      5.697244  
     712A      5.765142   713A      5.775697   714A      5.824799  
     715A      5.827578   716A      5.864224   717A      5.879182  
     718A      5.897943   719A      5.903947   720A      5.919872  
     721A      5.944311   722A      5.965406   723A      5.980416  
     724A      5.988185   725A      6.014162   726A      6.085952  
     727A      6.134803   728A      6.184750   729A      6.247685  
     730A      6.248780   731A      6.295734   732A      6.303618  
     733A      6.341129   734A      6.395731   735A      6.402121  
     736A      6.452562   737A      6.462284   738A      6.473131  
     739A      6.544063   740A      6.611201   741A      6.612890  
     742A      6.659007   743A      6.693832   744A      6.725122  
     745A      6.803603   746A      6.827080   747A      6.827580  
     748A      6.891276   749A      6.908153   750A      6.976526  
     751A      6.993354   752A      7.026607   753A      7.039514  
     754A      7.073608   755A      7.144165   756A      7.183901  
     757A      7.200098   758A      7.256336   759A      7.316022  
     760A      7.361379   761A      7.367704   762A      7.526722  
     763A      7.625383   764A      7.651683   765A      7.941836  
     766A      7.953506   767A      8.034644   768A      8.158742  
     769A      8.227158   770A     15.713132   771A     16.119931  
     772A     16.405605   773A     16.673845   774A     16.997849  
     775A     18.529041   776A     18.805505   777A     19.331532  
     778A     19.908230   779A     20.204519   780A     20.214696  
     781A     20.339757   782A     21.846317  

    Final Occupation by Irrep:
              A 
    DOCC [    45 ]

  Energy converged.

  @DF-RHF Final Energy:  -550.71174375967337

   => Energetics <=

    Nuclear Repulsion Energy =            685.9480690556898708
    One-Electron Energy =               -2121.9842555280920351
    Two-Electron Energy =                 885.3244427127289100
    DFT Exchange-Correlation Energy =       0.0000000000000000
    Empirical Dispersion Energy =           0.0000000000000000
    PCM Polarization Energy =               0.0000000000000000
    EFP Energy =                            0.0000000000000000
    Total Energy =                       -550.7117437596733680



Properties will be evaluated at   0.000000,   0.000000,   0.000000 Bohr

Properties computed using the SCF density matrix

  Nuclear Dipole Moment: (a.u.)
     X:     2.4683      Y:    -1.3097      Z:    -1.5402

  Electronic Dipole Moment: (a.u.)
     X:     0.6034      Y:    -0.3228      Z:    -0.3773

  Dipole Moment: (a.u.)
     X:     3.0717      Y:    -1.6325      Z:    -1.9175     Total:     3.9721

  Dipole Moment: (Debye)
     X:     7.8076      Y:    -4.1494      Z:    -4.8739     Total:    10.0961


*** tstop() called on gpu-1-7.local at Sun Nov 12 05:48:25 2017
Module time:
	user time   =    1035.31 seconds =      17.26 minutes
	system time =      47.65 seconds =       0.79 minutes
	total time  =        442 seconds =       7.37 minutes
Total time:
	user time   =    1035.31 seconds =      17.26 minutes
	system time =      47.65 seconds =       0.79 minutes
	total time  =        442 seconds =       7.37 minutes

  //>>>>>>>>>>>>>>>>>>>>>>>>>>>>>>>>>>>//
  //               DFMP2               //
  //<<<<<<<<<<<<<<<<<<<<<<<<<<<<<<<<<<<//

   => Loading Basis Set <=

    Name: (AUG-CC-PVTZ AUX)
    Role: RIFIT
    Keyword: DF_BASIS_MP2
    atoms 1-11  entry C          line   147 file /cbio/jclab/home/chayas/anaconda/envs/py35/share/psi4/basis/aug-cc-pvtz-ri.gbs 
    atoms 12    entry N          line   205 file /cbio/jclab/home/chayas/anaconda/envs/py35/share/psi4/basis/aug-cc-pvtz-ri.gbs 
    atoms 13    entry O          line   263 file /cbio/jclab/home/chayas/anaconda/envs/py35/share/psi4/basis/aug-cc-pvtz-ri.gbs 
    atoms 14-21 entry H          line    29 file /cbio/jclab/home/chayas/anaconda/envs/py35/share/psi4/basis/aug-cc-pvtz-ri.gbs 

	 --------------------------------------------------------
	                          DF-MP2                         
	      2nd-Order Density-Fitted Moller-Plesset Theory     
	              RMP2 Wavefunction,   8 Threads             
	                                                         
	        Rob Parrish, Justin Turney, Andy Simmonett,      
	           Ed Hohenstein, and C. David Sherrill          
	 --------------------------------------------------------

   => Auxiliary Basis Set <=

  Basis Set: (AUG-CC-PVTZ AUX)
    Blend: AUG-CC-PVTZ-RI
    Number of shells: 476
    Number of basis function: 1746
    Number of Cartesian functions: 2208
    Spherical Harmonics?: true
    Max angular momentum: 4

	 --------------------------------------------------------
	                 NBF =   782, NAUX =  1746
	 --------------------------------------------------------
	   CLASS    FOCC     OCC    AOCC    AVIR     VIR    FVIR
	   PAIRS       0      45      45     737     737       0
	 --------------------------------------------------------


         ------------------------------------------------------------
                                     CPHF                           
                                  Rob Parrish                       
         ------------------------------------------------------------

  ==> Geometry <==

    Molecular point group: c1
    Full point group: C1

    Geometry (in Angstrom), charge = -1, multiplicity = 1:

       Center              X                  Y                   Z               Mass       
    ------------   -----------------  -----------------  -----------------  -----------------
           C         -1.279278822161     0.724089246537    -0.569461328706    12.000000000000
           C         -0.286278822161     0.108089246537     1.544538671294    12.000000000000
           C         -2.357278822161     1.297089246537     0.103538671294    12.000000000000
           C         -1.364278822161     0.681089246537     2.218538671294    12.000000000000
           C          1.671721177839     0.312089246537    -1.381461328706    12.000000000000
           C          1.159721177839    -1.816910753463    -0.385461328706    12.000000000000
           C          2.731721177839    -0.304910753463    -2.026461328706    12.000000000000
           C          2.242721177839    -2.338910753463    -1.075461328706    12.000000000000
           C         -0.243278822161     0.129089246537     0.150538671294    12.000000000000
           C          0.875721177839    -0.465910753463    -0.547461328706    12.000000000000
           C         -2.400278822161     1.276089246537     1.497538671294    12.000000000000
           N          3.038721177839    -1.614910753463    -1.894461328706    14.003074004780
           O         -3.391278822161     1.802089246537     2.116538671294    15.994914619560
           H         -1.260278822161     0.749089246537    -1.656461328706     1.007825032070
           H          0.513721177839    -0.351910753463     2.119538671294     1.007825032070
           H         -3.153278822161     1.754089246537    -0.482461328706     1.007825032070
           H         -1.373278822161     0.652089246537     3.306538671294     1.007825032070
           H          1.481721177839     1.369089246537    -1.532461328706     1.007825032070
           H          0.560721177839    -2.454910753463     0.256538671294     1.007825032070
           H          3.383721177839     0.258089246537    -2.686461328706     1.007825032070
           H          2.506721177839    -3.386910753463    -0.984461328706     1.007825032070

  Nuclear repulsion =  685.948069055689871
  Reference energy  = -550.711743759673368

  ==> Basis Set <==

  Basis Set: AUG-CC-PVTZ
    Blend: AUG-CC-PVTZ
    Number of shells: 254
    Number of basis function: 782
    Number of Cartesian functions: 915
    Spherical Harmonics?: true
    Max angular momentum: 3

  ==> CGRSolver (by Rob Parrish) <==

   Number of roots    =         1
   Preconditioning    =    JACOBI
   Convergence cutoff =     1E-06
   Maximum iterations =       100

  ==> CPHFRHamiltonian (by Rob Parrish) <== 

  ==> DFJK: Density-Fitted J/K Matrices <==

    J tasked:                  Yes
    K tasked:                  Yes
    wK tasked:                  No
    OpenMP threads:              8
    Integrals threads:           8
    Memory (MB):              3576
    Algorithm:                Disk
    Integral Cache:           NONE
    Schwarz Cutoff:          1E-12
    Fitting Condition:       1E-12

   => Auxiliary Basis Set <=

  Basis Set: (AUG-CC-PVTZ AUX)
    Blend: AUG-CC-PVTZ-JKFIT
    Number of shells: 502
    Number of basis function: 1720
    Number of Cartesian functions: 2143
    Spherical Harmonics?: true
    Max angular momentum: 4

  ==> CPHF Iterations <==

  => Iterations <=

             Iter  Converged  Remaining    Residual
  CGR           1          0          1   1.311E-01
  CGR           2          0          1   4.947E-02
  CGR           3          0          1   2.920E-02
  CGR           4          0          1   1.056E-02
  CGR           5          0          1   4.769E-03
  CGR           6          0          1   2.537E-03
  CGR           7          0          1   7.387E-04
  CGR           8          0          1   2.325E-04
  CGR           9          0          1   8.842E-05
  CGR          10          0          1   2.678E-05
  CGR          11          0          1   9.968E-06
  CGR          12          0          1   2.701E-06
  CGR          13          1          0   9.015E-07

    CGRSolver converged.

  ==> DFCorrGrad: Density-Fitted Correlated Gradients <==

    OpenMP threads:              8
    Integrals threads:           8
    Memory (MB):              3576
    Schwarz Cutoff:          0E+00
    Fitting Condition:       1E-12

   => Auxiliary Basis Set <=

  Basis Set: (AUG-CC-PVTZ AUX)
    Blend: AUG-CC-PVTZ-JKFIT
    Number of shells: 502
    Number of basis function: 1720
    Number of Cartesian functions: 2143
    Spherical Harmonics?: true
    Max angular momentum: 4

	-----------------------------------------------------------
	 ==================> DF-MP2 Energies <==================== 
	-----------------------------------------------------------
	 Reference Energy          =    -550.7117437596733680 [Eh]
	 Singles Energy            =      -0.0000000000000003 [Eh]
	 Same-Spin Energy          =      -0.6134607951870831 [Eh]
	 Opposite-Spin Energy      =      -1.8375514611964523 [Eh]
	 Correlation Energy        =      -2.4510122563835357 [Eh]
	 Total Energy              =    -553.1627560160569601 [Eh]
	-----------------------------------------------------------
	 ================> DF-SCS-MP2 Energies <================== 
	-----------------------------------------------------------
	 SCS Same-Spin Scale       =       0.3333333333333333 [-]
	 SCS Opposite-Spin Scale   =       1.2000000000000000 [-]
	 SCS Same-Spin Energy      =      -0.2044869317290277 [Eh]
	 SCS Opposite-Spin Energy  =      -2.2050617534357428 [Eh]
	 SCS Correlation Energy    =      -2.4095486851647712 [Eh]
	 SCS Total Energy          =    -553.1212924448381045 [Eh]
	-----------------------------------------------------------


  -Total Gradient:
     Atom            X                  Y                   Z
    ------   -----------------  -----------------  -----------------
       1        0.010171965310    -0.011697181790    -0.005673365812
       2        0.014016989479    -0.001141384559    -0.009467881011
       3       -0.021956456779     0.011049111736     0.035882737218
       4       -0.038171939295     0.020763613739     0.002548643275
       5       -0.007899409502     0.009889564436     0.008573785752
       6       -0.014206666633     0.002818629895     0.005154699187
       7       -0.003840055526     0.010599753257     0.001789330411
       8       -0.008826865135    -0.004384041546     0.006070862218
       9       -0.005658223102     0.002955886641     0.003605911360
      10        0.013172402494    -0.007600730603    -0.008112186615
      11        0.047839796041    -0.025247490169    -0.030395229590
      12        0.008899667234    -0.004526881374    -0.005600056567
      13        0.002199985292    -0.001234560568    -0.001297514349
      14       -0.002606842597     0.001943471566    -0.002834001354
      15        0.000334915637    -0.000706171042     0.004122437995
      16       -0.001553824975     0.001898753090    -0.008800888464
      17        0.005037654328    -0.003735646858     0.006280230418
      18        0.001557235027     0.004197704146    -0.003240515838
      19       -0.000385919770    -0.005278896446     0.002580517116
      20        0.000998473010     0.000584936192    -0.001392014770
      21        0.000877119458    -0.001148439749     0.000204499428


*** tstop() called on gpu-1-7.local at Sun Nov 12 06:16:52 2017
Module time:
	user time   =    4970.44 seconds =      82.84 minutes
	system time =     100.41 seconds =       1.67 minutes
	total time  =       2149 seconds =      35.82 minutes
Total time:
	user time   =    4970.44 seconds =      82.84 minutes
	system time =     100.41 seconds =       1.67 minutes
	total time  =       2149 seconds =      35.82 minutes

			-----------------------------------------
			 OPTKING 2.0: for geometry optimizations 
			  - R.A. King,  Bethel University        
			-----------------------------------------

	Internal coordinates to be generated automatically.
	Detected frag 1 with atoms:  1 2 3 4 5 6 7 8 9 10 11 12 13 14 15 16 17 18 19 20
	 21
	---Fragment 1 Bond Connectivity---
	 1 : 3 9 14
	 2 : 4 9 15
	 3 : 1 11 16
	 4 : 2 11 17
	 5 : 7 10 18
	 6 : 8 10 19
	 7 : 5 12 20
	 8 : 6 12 21
	 9 : 1 2 10
	 10 : 5 6 9
	 11 : 3 4 13
	 12 : 7 8
	 13 : 11
	 14 : 1
	 15 : 2
	 16 : 3
	 17 : 4
	 18 : 5
	 19 : 6
	 20 : 7
	 21 : 8

	Assuming in current code that numbering for constraints corresponds to unified fragment.
	Fixed dihedral atom list: 
	     1     9    10     5
	---Fragment 1 Geometry and Gradient---
	 C          -2.4174866215        1.3683303717       -1.0761259545
	 C          -0.5409885715        0.2042590739        2.9187550904
	 C          -4.4546113927        2.4511434459        0.1956597329
	 C          -2.5781133428        1.2870721480        4.1924305040
	 C           3.1590951967        0.5897632050       -2.6105835744
	 C           2.1915554166       -3.4334637319       -0.7284163461
	 C           5.1622048975       -0.5761978190       -3.8294569301
	 C           4.2381288185       -4.4199007733       -2.0323273778
	 C          -0.4597303478        0.2439433227        0.2844768612
	 C           1.6548731949       -0.8804437264       -1.0345519796
	 C          -4.5358696165        2.4114591971        2.8299379622
	 N           5.7423508203       -3.0517390531       -3.5800130806
	 O          -6.4085882141        3.4054551430        3.9996784384
	 H          -2.3815818250        1.4155735250       -3.1302582610
	 H           0.9707923348       -0.6650149473        4.0053476168
	 H          -5.9588333945        3.3147482886       -0.9117197810
	 H          -2.5951208780        1.2322700902        6.2484525365
	 H           2.8000472314        2.5872037274       -2.8959322205
	 H           1.0596094630       -4.6391090047        0.4847878312
	 H           6.3943063362        0.4877179938       -5.0766761778
	 H           4.7370165176       -6.4003337606       -1.8603622997
	             0.0101719653       -0.0116971818       -0.0056733658
	             0.0140169895       -0.0011413846       -0.0094678810
	            -0.0219564568        0.0110491117        0.0358827372
	            -0.0381719393        0.0207636137        0.0025486433
	            -0.0078994095        0.0098895644        0.0085737858
	            -0.0142066666        0.0028186299        0.0051546992
	            -0.0038400555        0.0105997533        0.0017893304
	            -0.0088268651       -0.0043840415        0.0060708622
	            -0.0056582231        0.0029558866        0.0036059114
	             0.0131724025       -0.0076007306       -0.0081121866
	             0.0478397960       -0.0252474902       -0.0303952296
	             0.0088996672       -0.0045268814       -0.0056000566
	             0.0021999853       -0.0012345606       -0.0012975143
	            -0.0026068426        0.0019434716       -0.0028340014
	             0.0003349156       -0.0007061710        0.0041224380
	            -0.0015538250        0.0018987531       -0.0088008885
	             0.0050376543       -0.0037356469        0.0062802304
	             0.0015572350        0.0041977041       -0.0032405158
	            -0.0003859198       -0.0052788964        0.0025805171
	             0.0009984730        0.0005849362       -0.0013920148
	             0.0008771195       -0.0011484397        0.0002044994

	Previous optimization step data not found.  Starting new optimization.

	---Fragment 1 Intrafragment Coordinates---
	 - Coordinate -           - BOHR/RAD -       - ANG/DEG -
	 R(1,3)           =         2.634350	       1.394038
	 R(1,9)           =         2.635962	       1.394891
	 R(1,14)          =         2.054989	       1.087453
	 R(2,4)           =         2.635263	       1.394521
	 R(2,9)           =         2.635830	       1.394821
	 R(2,15)          =         2.054702	       1.087302
	 R(3,11)          =         2.635830	       1.394821
	 R(3,16)          =         2.057860	       1.088972
	 R(4,11)          =         2.636938	       1.395407
	 R(4,17)          =         2.056823	       1.088424
	 R(5,7)           =         2.618695	       1.385754
	 R(5,10)          =         2.628320	       1.390847
	 R(5,18)          =         2.049416	       1.084504
	 R(6,8)           =         2.619486	       1.386172
	 R(6,10)          =         2.626720	       1.390000
	 R(6,19)          =         2.051035	       1.085361
	 R(7,12)          =         2.554818	       1.351952
	 R(7,20)          =         2.050743	       1.085206
	 R(8,12)          =         2.555363	       1.352240
	 R(8,21)          =         2.049531	       1.084565
	 R(9,10)          =         2.734160	       1.446855
	 R(11,13)         =         2.421445	       1.281373
	 B(1,3,11)        =         2.094553	     120.009056
	 B(1,3,16)        =         2.069123	     118.552025
	 B(1,9,2)         =         2.093692	     119.959722
	 B(1,9,10)        =         2.095337	     120.053983
	 B(2,4,11)        =         2.093699	     119.960108
	 B(2,4,17)        =         2.069829	     118.592446
	 B(2,9,10)        =         2.094156	     119.986294
	 B(3,1,9)         =         2.094940	     120.031219
	 B(3,1,14)        =         2.079025	     119.119344
	 B(3,11,4)        =         2.094306	     119.994870
	 B(3,11,13)       =         2.094918	     120.029973
	 B(4,2,9)         =         2.095181	     120.045019
	 B(4,2,15)        =         2.079455	     119.143974
	 B(4,11,13)       =         2.093961	     119.975136
	 B(5,7,12)        =         2.164799	     124.033858
	 B(5,7,20)        =         2.107912	     120.774456
	 B(5,10,6)        =         2.090507	     119.777226
	 B(5,10,9)        =         2.096559	     120.123981
	 B(6,8,12)        =         2.164902	     124.039754
	 B(6,8,21)        =         2.108649	     120.816687
	 B(6,10,9)        =         2.096119	     120.098751
	 B(7,5,10)        =         2.057619	     117.892908
	 B(7,5,18)        =         2.098045	     120.209143
	 B(7,12,8)        =         2.031142	     116.375875
	 B(8,6,10)        =         2.057400	     117.880363
	 B(8,6,19)        =         2.099324	     120.282380
	 B(9,1,14)        =         2.109221	     120.849435
	 B(9,2,15)        =         2.108550	     120.811005
	 B(10,5,18)       =         2.127521	     121.897949
	 B(10,6,19)       =         2.126461	     121.837223
	 B(11,3,16)       =         2.119509	     121.438903
	 B(11,4,17)       =         2.119657	     121.447411
	 B(12,7,20)       =         2.010473	     115.191601
	 B(12,8,21)       =         2.009634	     115.143559
	 D(1,3,11,4)      =        -0.000325	      -0.018609
	 D(1,3,11,13)     =        -3.141004	    -179.966279
	 D(1,9,2,4)       =         0.000325	       0.018608
	 D(1,9,2,15)      =        -3.141527	    -179.996257
	 D(1,9,10,5)      =         1.047085	      59.993573
	 D(1,9,10,6)      =        -2.095809	    -120.081035
	 D(2,4,11,3)      =         0.000301	       0.017261
	 D(2,4,11,13)     =         3.140981	     179.964960
	 D(2,9,1,3)       =        -0.000348	      -0.019945
	 D(2,9,1,14)      =         3.141027	     179.967567
	 D(2,9,10,5)      =        -2.094290	    -119.993988
	 D(2,9,10,6)      =         1.046000	      59.931405
	 D(3,1,9,10)      =         3.141462	     179.992491
	 D(3,11,4,17)     =         3.140700	     179.948827
	 D(4,2,9,10)      =        -3.141485	    -179.993820
	 D(4,11,3,16)     =         3.140472	     179.935781
	 D(5,7,12,8)      =        -0.000029	      -0.001666
	 D(5,10,6,8)      =        -0.000815	      -0.046704
	 D(5,10,6,19)     =        -3.141238	    -179.979700
	 D(6,8,12,7)      =        -0.000279	      -0.015995
	 D(6,10,5,7)      =         0.000539	       0.030893
	 D(6,10,5,18)     =        -3.141089	    -179.971152
	 D(7,5,10,9)      =         3.140834	     179.956526
	 D(7,12,8,21)     =         3.141290	     179.982659
	 D(8,6,10,9)      =        -3.141110	    -179.972357
	 D(8,12,7,20)     =         3.139723	     179.892851
	 D(9,1,3,11)      =         0.000348	       0.019955
	 D(9,1,3,16)      =        -3.140471	    -179.935743
	 D(9,2,4,11)      =        -0.000301	      -0.017270
	 D(9,2,4,17)      =        -3.140734	    -179.950778
	 D(9,10,5,18)     =        -0.000794	      -0.045519
	 D(9,10,6,19)     =         0.001652	       0.094648
	 D(10,5,7,12)     =        -0.000108	      -0.006187
	 D(10,5,7,20)     =        -3.139762	    -179.895093
	 D(10,6,8,12)     =         0.000704	       0.040330
	 D(10,6,8,21)     =        -3.140864	    -179.958252
	 D(10,9,1,14)     =        -0.000349	      -0.019997
	 D(10,9,2,15)     =        -0.000152	      -0.008685
	 D(11,3,1,14)     =        -3.141030	    -179.967773
	 D(11,4,2,15)     =         3.141546	     179.997347
	 D(12,7,5,18)     =         3.141520	     179.995822
	 D(12,8,6,19)     =         3.141146	     179.974412
	 D(13,11,3,16)    =        -0.000207	      -0.011889
	 D(13,11,4,17)    =        -0.001806	      -0.103475
	 D(14,1,3,16)     =         0.001336	       0.076530
	 D(15,2,4,17)     =         0.001114	       0.063839
	 D(18,5,7,20)     =         0.001866	       0.106916
	 D(19,6,8,21)     =        -0.000422	      -0.024170

	Current energy   :      -553.1627560161

	Generating empirical Hessian (Schlegel '84) for each fragment.
	Adding user-defined constraint: Fragment 1; Coordinate 61:
		Value =     1.047085; Fixed value    =     1.047198
		Force =     0.000056; Force constant =     0.500000
	Removing off-diagonal coupling between coordinate 61 and others.
	Taking RFO optimization step.
	Going to follow RFO solution 1.
	Using RFO vector 1.

	Determining step-restricting scale parameter for RS-RFO.
	Maximum step size allowed    0.10000

	 Iter      |step|        alpha        rfo_root  
	------------------------------------------------
	    0     0.28643       1.00000           1
	    1     0.21151       4.09741           1
	    2     0.15669      13.93445           1
	    3     0.12138      31.93755           1
	    4     0.10479      48.73210           1
	    5     0.10034      54.91636           1
	    6     0.10000      55.41804           1
	------------------------------------------------
	Norm of target step-size    0.10000
	Projected energy change by RFO approximation:        -0.0066645561

	Back-transformation to cartesian coordinates...
	Could not converge backtransformation.
	Using first guess instead.

	--- Internal Coordinate Step in ANG or DEG, aJ/ANG or AJ/DEG ---
	 ---------------------------------------------------------------------------
	   Coordinate                Previous        Force       Change         New 
	   ----------                --------       ------       ------       ------
	    1 R(1,3)          =      1.394038    -0.033830    -0.002596     1.391442
	    2 R(1,9)          =      1.394891     0.024447     0.001609     1.396500
	    3 R(1,14)         =      1.087453    -0.023331    -0.002077     1.085377
	    4 R(2,4)          =      1.394521    -0.036859    -0.002843     1.391678
	    5 R(2,9)          =      1.394821     0.025360     0.001672     1.396493
	    6 R(2,15)         =      1.087302    -0.022453    -0.001995     1.085307
	    7 R(3,11)         =      1.394821     0.213447     0.017087     1.411908
	    8 R(3,16)         =      1.088972    -0.054940    -0.004926     1.084047
	    9 R(4,11)         =      1.395407     0.210119     0.016867     1.412275
	   10 R(4,17)         =      1.088424    -0.052198    -0.004675     1.083749
	   11 R(5,7)          =      1.385754     0.010600     0.000796     1.386550
	   12 R(5,10)         =      1.390847     0.013330     0.001368     1.392216
	   13 R(5,18)         =      1.084504    -0.035177    -0.003130     1.081374
	   14 R(6,8)          =      1.386172     0.008001     0.000597     1.386769
	   15 R(6,10)         =      1.390000     0.019231     0.001807     1.391807
	   16 R(6,19)         =      1.085361    -0.039895    -0.003554     1.081807
	   17 R(7,12)         =      1.351952    -0.104333    -0.007515     1.344437
	   18 R(7,20)         =      1.085206    -0.014418    -0.001283     1.083924
	   19 R(8,12)         =      1.352240    -0.106712    -0.007687     1.344553
	   20 R(8,21)         =      1.084565    -0.011042    -0.000977     1.083588
	   21 R(9,10)         =      1.446855     0.102930     0.008775     1.455630
	   22 R(11,13)        =      1.281373     0.023357     0.001372     1.282746
	   23 B(1,3,11)       =    120.009056     0.000740     0.961681   120.970737
	   24 B(1,3,16)       =    118.552025     0.000116     0.207388   118.759413
	   25 B(1,9,2)        =    119.959722    -0.000601    -0.855122   119.104600
	   26 B(1,9,10)       =    120.053983     0.000294     0.420113   120.474096
	   27 B(2,4,11)       =    119.960108     0.000755     0.977212   120.937320
	   28 B(2,4,17)       =    118.592446     0.000106     0.195580   118.788026
	   29 B(2,9,10)       =    119.986294     0.000307     0.434885   120.421179
	   30 B(3,1,9)        =    120.031219     0.000528     0.600873   120.632092
	   31 B(3,1,14)       =    119.119344    -0.000011     0.060770   119.180114
	   32 B(3,11,4)       =    119.994870    -0.001954    -2.285288   117.709582
	   33 B(3,11,13)      =    120.029973     0.000969     1.133431   121.163404
	   34 B(4,2,9)        =    120.045019     0.000530     0.600529   120.645548
	   35 B(4,2,15)       =    119.143974    -0.000017     0.053923   119.197897
	   36 B(4,11,13)      =    119.975136     0.000985     1.151846   121.126982
	   37 B(5,7,12)       =    124.033858     0.000108     0.098457   124.132315
	   38 B(5,7,20)       =    120.774456    -0.000077    -0.082410   120.692046
	   39 B(5,10,6)       =    119.777226    -0.001343    -1.586020   118.191206
	   40 B(5,10,9)       =    120.123981     0.000667     0.787248   120.911229
	   41 B(6,8,12)       =    124.039754     0.000102     0.090557   124.130311
	   42 B(6,8,21)       =    120.816687    -0.000081    -0.087925   120.728761
	   43 B(6,10,9)       =    120.098751     0.000677     0.798475   120.897227
	   44 B(7,5,10)       =    117.892908     0.000614     0.809404   118.702312
	   45 B(7,5,18)       =    120.209143    -0.000038    -0.021164   120.187979
	   46 B(7,12,8)       =    116.375875    -0.000104    -0.232991   116.142884
	   47 B(8,6,10)       =    117.880363     0.000623     0.820513   118.700877
	   48 B(8,6,19)       =    120.282380    -0.000055    -0.043634   120.238746
	   49 B(9,1,14)       =    120.849435    -0.000517    -0.661679   120.187757
	   50 B(9,2,15)       =    120.811005    -0.000513    -0.654504   120.156500
	   51 B(10,5,18)      =    121.897949    -0.000576    -0.788241   121.109707
	   52 B(10,6,19)      =    121.837223    -0.000569    -0.776917   121.060306
	   53 B(11,3,16)      =    121.438903    -0.000856    -1.169072   120.269831
	   54 B(11,4,17)      =    121.447411    -0.000861    -1.172781   120.274631
	   55 B(12,7,20)      =    115.191601    -0.000031    -0.016268   115.175333
	   56 B(12,8,21)      =    115.143559    -0.000021    -0.002683   115.140876
	   57 D(1,3,11,4)     =     -0.018609    -0.000006    -0.056795    -0.075404
	   58 D(1,3,11,13)    =   -179.966279    -0.000005    -0.045020  -180.011298
	   59 D(1,9,2,4)      =      0.018608    -0.000011    -0.111693    -0.093085
	   60 D(1,9,2,15)     =   -179.996257     0.000001    -0.011532  -180.007789
	   61 D(1,9,10,5)     =     59.993573    -0.000042    -0.239368    59.754205
	   62 D(1,9,10,6)     =   -120.081035    -0.000053    -0.380315  -120.461349
	   63 D(2,4,11,3)     =      0.017261    -0.000005    -0.034670    -0.017408
	   64 D(2,4,11,13)    =    179.964960    -0.000005    -0.046449   179.918511
	   65 D(2,9,1,3)      =     -0.019945     0.000000     0.019945     0.000000
	   66 D(2,9,1,14)     =    179.967567     0.000010     0.102825   180.070392
	   67 D(2,9,10,5)     =   -119.993988    -0.000053    -0.381612  -120.375600
	   68 D(2,9,10,6)     =     59.931405    -0.000064    -0.522559    59.408846
	   69 D(3,1,9,10)     =    179.992491    -0.000011    -0.120378   179.872114
	   70 D(3,11,4,17)    =    179.948827    -0.000004    -0.022420   179.926407
	   71 D(4,2,9,10)     =   -179.993820     0.000001     0.028775  -179.965045
	   72 D(4,11,3,16)    =    179.935781    -0.000007    -0.062318   179.873463
	   73 D(5,7,12,8)     =     -0.001666     0.000002     0.015653     0.013988
	   74 D(5,10,6,8)     =     -0.046704    -0.000002    -0.035481    -0.082186
	   75 D(5,10,6,19)    =   -179.979700     0.000001    -0.005370  -179.985070
	   76 D(6,8,12,7)     =     -0.015995     0.000004     0.041957     0.025961
	   77 D(6,10,5,7)     =      0.030893     0.000008     0.087313     0.118206
	   78 D(6,10,5,18)    =   -179.971152     0.000010     0.105102  -179.866051
	   79 D(7,5,10,9)     =    179.956526    -0.000003    -0.048179   179.908347
	   80 D(7,12,8,21)    =    179.982659    -0.000005    -0.038992   179.943668
	   81 D(8,6,10,9)     =   -179.972357     0.000009     0.099999  -179.872357
	   82 D(8,12,7,20)    =    179.892851    -0.000008    -0.079428   179.813424
	   83 D(9,1,3,11)     =      0.019955     0.000008     0.064936     0.084891
	   84 D(9,1,3,16)     =   -179.935743     0.000009     0.071009  -179.864734
	   85 D(9,2,4,11)     =     -0.017270     0.000013     0.119436     0.102165
	   86 D(9,2,4,17)     =   -179.950778     0.000012     0.108309  -179.842469
	   87 D(9,10,5,18)    =     -0.045519    -0.000000    -0.030391    -0.075910
	   88 D(9,10,6,19)    =      0.094648     0.000012     0.130110     0.224758
	   89 D(10,5,7,12)    =     -0.006187    -0.000008    -0.081175    -0.087362
	   90 D(10,5,7,20)    =   -179.895093     0.000003     0.018812  -179.876282
	   91 D(10,6,8,12)    =      0.040330    -0.000005    -0.031029     0.009301
	   92 D(10,6,8,21)    =   -179.958252     0.000006     0.054218  -179.904033
	   93 D(10,9,1,14)    =     -0.019997    -0.000001    -0.037721    -0.057718
	   94 D(10,9,2,15)    =     -0.008685     0.000012     0.128936     0.120251
	   95 D(11,3,1,14)    =   -179.967773    -0.000002    -0.016805  -179.984578
	   96 D(11,4,2,15)    =    179.997347     0.000002     0.020332   180.017679
	   97 D(12,7,5,18)    =    179.995822    -0.000011    -0.098778   179.897044
	   98 D(12,8,6,19)    =    179.974412    -0.000008    -0.061405   179.913007
	   99 D(13,11,3,16)   =     -0.011889    -0.000006    -0.050542    -0.062431
	  100 D(13,11,4,17)   =     -0.103475    -0.000004    -0.034200    -0.137674
	  101 D(14,1,3,16)    =      0.076530    -0.000001    -0.010732     0.065797
	  102 D(15,2,4,17)    =      0.063839     0.000001     0.009205     0.073044
	  103 D(18,5,7,20)    =      0.106916     0.000000     0.001208     0.108124
	  104 D(19,6,8,21)    =     -0.024170     0.000002     0.024170     0.000000
	 ---------------------------------------------------------------------------
	Successfully symmetrized geometry.
	 Forces used to impose fixed constraints are not included.
	  Forces zeroed: 61 

  ==> Convergence Check <==

  Measures of convergence in internal coordinates in au.
  Criteria marked as inactive (o), active & met (*), and active & unmet ( ).
  --------------------------------------------------------------------------------------------- ~
   Step     Total Energy     Delta E     MAX Force     RMS Force      MAX Disp      RMS Disp    ~
  --------------------------------------------------------------------------------------------- ~
    Convergence Criteria    1.00e-06 *    3.00e-04 *             o    1.20e-03 *             o  ~
  --------------------------------------------------------------------------------------------- ~
      1    -553.16275602   -5.53e+02      2.59e-02      6.58e-03 o    3.99e-02      9.79e-03 o  ~
  ---------------------------------------------------------------------------------------------

	Writing optimization data to binary file.
	Structure for next step:
	Cartesian Geometry (in Angstrom)
	    C    -1.2874441868   0.7334561397  -0.5590282252
	    C    -0.3011547900   0.1116967901   1.5476833955
	    C    -2.3656804552   1.3051030962   0.1093560688
	    C    -1.3748300506   0.6827393500   2.2243653921
	    C     1.6842666101   0.2952654556  -1.3914693764
	    C     1.1798213892  -1.8169604791  -0.3963692552
	    C     2.7448894742  -0.3221516464  -2.0367569295
	    C     2.2635720997  -2.3400393658  -1.0855723895
	    C    -0.2468443688   0.1324290617   0.1524004821
	    C     0.8781376043  -0.4670035707  -0.5504186541
	    C    -2.4349614187   1.2941599066   1.5195206390
	    N     3.0544092623  -1.6236847209  -1.9036400908
	    O    -3.4270989012   1.8202349718   2.1394762768
	    H    -1.2637405969   0.7584954415  -1.6438570029
	    H     0.4982102466  -0.3509964830   2.1176148524
	    H    -3.1578365739   1.7615579821  -0.4731342817
	    H    -1.3849987205   0.6518785436   3.3076272548
	    H     1.4940348050   1.3488196304  -1.5438054095
	    H     0.5841906918  -2.4522833851   0.2454215982
	    H     3.3942217237   0.2410150078  -2.6971371400
	    H     2.5269808904  -3.3868575486  -0.9909651077
			--------------------------
			 OPTKING Finished Execution 
			--------------------------

    Structure for next step:
    Molecular point group: c1
    Full point group: C1

    Geometry (in Angstrom), charge = -1, multiplicity = 1:

    C           -1.284764833655     0.732028915115    -0.560657606789
    C           -0.298475436829     0.110269565496     1.546054013906
    C           -2.363001102110     1.303675871682     0.107726687161
    C           -1.372150697440     0.681312125410     2.222736010521
    C            1.686945963265     0.293838231047    -1.393098758006
    C            1.182500742335    -1.818387703671    -0.397998636843
    C            2.747568827321    -0.323578870983    -2.038386311116
    C            2.266251452825    -2.341466590357    -1.087201771119
    C           -0.244165015636     0.131001837132     0.150771100520
    C            0.880816957394    -0.468430795248    -0.552048035768
    C           -2.432282065572     1.292732682038     1.517891257338
    N            3.057088615414    -1.625111945437    -1.905269472451
    O           -3.424419548080     1.818807747202     2.137846895156
    H           -1.261061243772     0.757068216906    -1.645486384520
    H            0.500889599704    -0.352423707570     2.115985470828
    H           -3.155157220782     1.760130757562    -0.474763663329
    H           -1.382319367368     0.650451319067     3.305997873183
    H            1.496714158158     1.347392405802    -1.545434791099
    H            0.586870044968    -2.453710609688     0.243792216608
    H            3.396901076797     0.239587783239    -2.698766521668
    H            2.529660243494    -3.388284773111    -0.992594489337

gradient() will perform analytic gradient computation.

*** tstart() called on gpu-1-7.local
*** at Sun Nov 12 06:16:54 2017

    SCF Algorithm Type (re)set to DF.

*** tstart() called on gpu-1-7.local
*** at Sun Nov 12 06:16:54 2017

   => Loading Basis Set <=

    Name: AUG-CC-PVTZ
    Role: ORBITAL
    Keyword: BASIS
    atoms 1-11  entry C          line   221 file /cbio/jclab/home/chayas/anaconda/envs/py35/share/psi4/basis/aug-cc-pvtz.gbs 
    atoms 12    entry N          line   267 file /cbio/jclab/home/chayas/anaconda/envs/py35/share/psi4/basis/aug-cc-pvtz.gbs 
    atoms 13    entry O          line   313 file /cbio/jclab/home/chayas/anaconda/envs/py35/share/psi4/basis/aug-cc-pvtz.gbs 
    atoms 14-21 entry H          line    34 file /cbio/jclab/home/chayas/anaconda/envs/py35/share/psi4/basis/aug-cc-pvtz.gbs 


         ---------------------------------------------------------
                                   SCF
            by Justin Turney, Rob Parrish, and Andy Simmonett
                              RHF Reference
                        8 Threads,   4768 MiB Core
         ---------------------------------------------------------

  ==> Geometry <==

    Molecular point group: c1
    Full point group: C1

    Geometry (in Angstrom), charge = -1, multiplicity = 1:

       Center              X                  Y                   Z               Mass       
    ------------   -----------------  -----------------  -----------------  -----------------
           C         -1.284764833655     0.732028915115    -0.560657606789    12.000000000000
           C         -0.298475436829     0.110269565496     1.546054013906    12.000000000000
           C         -2.363001102110     1.303675871682     0.107726687161    12.000000000000
           C         -1.372150697440     0.681312125410     2.222736010521    12.000000000000
           C          1.686945963265     0.293838231047    -1.393098758006    12.000000000000
           C          1.182500742335    -1.818387703671    -0.397998636843    12.000000000000
           C          2.747568827321    -0.323578870983    -2.038386311116    12.000000000000
           C          2.266251452825    -2.341466590357    -1.087201771119    12.000000000000
           C         -0.244165015636     0.131001837132     0.150771100520    12.000000000000
           C          0.880816957394    -0.468430795248    -0.552048035768    12.000000000000
           C         -2.432282065572     1.292732682038     1.517891257338    12.000000000000
           N          3.057088615414    -1.625111945437    -1.905269472451    14.003074004780
           O         -3.424419548080     1.818807747202     2.137846895156    15.994914619560
           H         -1.261061243772     0.757068216906    -1.645486384520     1.007825032070
           H          0.500889599704    -0.352423707570     2.115985470828     1.007825032070
           H         -3.155157220782     1.760130757562    -0.474763663329     1.007825032070
           H         -1.382319367368     0.650451319067     3.305997873183     1.007825032070
           H          1.496714158158     1.347392405802    -1.545434791099     1.007825032070
           H          0.586870044968    -2.453710609688     0.243792216608     1.007825032070
           H          3.396901076797     0.239587783239    -2.698766521668     1.007825032070
           H          2.529660243494    -3.388284773111    -0.992594489337     1.007825032070

  Running in c1 symmetry.

  Rotational constants: A =      0.09810  B =      0.01337  C =      0.01251 [cm^-1]
  Rotational constants: A =   2941.02504  B =    400.80439  C =    374.92170 [MHz]
  Nuclear repulsion =  683.669614154881515

  Charge       = -1
  Multiplicity = 1
  Electrons    = 90
  Nalpha       = 45
  Nbeta        = 45

  ==> Algorithm <==

  SCF Algorithm Type is DF.
  DIIS enabled.
  MOM disabled.
  Fractional occupation disabled.
  Guess Type is READ.
  Energy threshold   = 1.00e-10
  Density threshold  = 1.00e-10
  Integral threshold = 0.00e+00

  ==> Primary Basis <==

  Basis Set: AUG-CC-PVTZ
    Blend: AUG-CC-PVTZ
    Number of shells: 254
    Number of basis function: 782
    Number of Cartesian functions: 915
    Spherical Harmonics?: true
    Max angular momentum: 3

   => Loading Basis Set <=

    Name: (AUG-CC-PVTZ AUX)
    Role: JKFIT
    Keyword: DF_BASIS_SCF
    atoms 1-11  entry C          line   161 file /cbio/jclab/home/chayas/anaconda/envs/py35/share/psi4/basis/aug-cc-pvtz-jkfit.gbs 
    atoms 12    entry N          line   223 file /cbio/jclab/home/chayas/anaconda/envs/py35/share/psi4/basis/aug-cc-pvtz-jkfit.gbs 
    atoms 13    entry O          line   285 file /cbio/jclab/home/chayas/anaconda/envs/py35/share/psi4/basis/aug-cc-pvtz-jkfit.gbs 
    atoms 14-21 entry H          line    69 file /cbio/jclab/home/chayas/anaconda/envs/py35/share/psi4/basis/aug-cc-pvtz-jkfit.gbs 

  Reading orbitals from file 180, no projection.

  ==> Pre-Iterations <==

   -------------------------------------------------------
    Irrep   Nso     Nmo     Nalpha   Nbeta   Ndocc  Nsocc
   -------------------------------------------------------
     A        782     782       0       0       0       0
   -------------------------------------------------------
    Total     782     782      45      45      45       0
   -------------------------------------------------------

  ==> Integral Setup <==

  ==> DFJK: Density-Fitted J/K Matrices <==

    J tasked:                  Yes
    K tasked:                  Yes
    wK tasked:                  No
    OpenMP threads:              8
    Integrals threads:           8
    Memory (MB):              3576
    Algorithm:                Disk
    Integral Cache:           NONE
    Schwarz Cutoff:          1E-12
    Fitting Condition:       1E-12

   => Auxiliary Basis Set <=

  Basis Set: (AUG-CC-PVTZ AUX)
    Blend: AUG-CC-PVTZ-JKFIT
    Number of shells: 502
    Number of basis function: 1720
    Number of Cartesian functions: 2143
    Spherical Harmonics?: true
    Max angular momentum: 4

  Minimum eigenvalue in the overlap matrix is 7.6096956956E-07.
  Using Symmetric Orthogonalization.

  SCF Guess: Orbitals guess was supplied from a previous computation.

  ==> Iterations <==

                           Total Energy        Delta E     RMS |[F,P]|

   @DF-RHF iter   0:  -550.79911803902303   -5.50799e+02   5.48890e-04 
   @DF-RHF iter   1:  -550.71761983731028    8.14982e-02   1.11480e-04 
   @DF-RHF iter   2:  -550.71796351726778   -3.43680e-04   7.21577e-05 DIIS
   @DF-RHF iter   3:  -550.71820759029106   -2.44073e-04   9.99020e-06 DIIS
   @DF-RHF iter   4:  -550.71821269959753   -5.10931e-06   3.30962e-06 DIIS
   @DF-RHF iter   5:  -550.71821407573941   -1.37614e-06   1.26510e-06 DIIS
   @DF-RHF iter   6:  -550.71821432773277   -2.51993e-07   6.69486e-07 DIIS
   @DF-RHF iter   7:  -550.71821440900771   -8.12749e-08   3.27185e-07 DIIS
   @DF-RHF iter   8:  -550.71821443637714   -2.73694e-08   1.39135e-07 DIIS
   @DF-RHF iter   9:  -550.71821444028024   -3.90310e-09   5.14966e-08 DIIS
   @DF-RHF iter  10:  -550.71821444081581   -5.35579e-10   1.55187e-08 DIIS
   @DF-RHF iter  11:  -550.71821444086947   -5.36602e-11   6.04817e-09 DIIS
   @DF-RHF iter  12:  -550.71821444087198   -2.50111e-12   2.38003e-09 DIIS
   @DF-RHF iter  13:  -550.71821444088312   -1.11413e-11   9.49657e-10 DIIS
   @DF-RHF iter  14:  -550.71821444087288    1.02318e-11   3.77950e-10 DIIS
   @DF-RHF iter  15:  -550.71821444089198   -1.90994e-11   1.22237e-10 DIIS
   @DF-RHF iter  16:  -550.71821444088380    8.18545e-12   5.04750e-11 DIIS

  ==> Post-Iterations <==

    Orbital Energies (a.u.)
    -----------------------

    Doubly Occupied:                                                      

       1A    -20.294938     2A    -15.458323     3A    -11.170640  
       4A    -11.170588     5A    -11.146574     6A    -11.124696  
       7A    -11.124649     8A    -11.115277     9A    -11.096059  
      10A    -11.096032    11A    -11.073994    12A    -11.057194  
      13A    -11.057149    14A     -1.149079    15A     -1.122560  
      16A     -1.017121    17A     -0.957666    18A     -0.927355  
      19A     -0.862296    20A     -0.835360    21A     -0.750022  
      22A     -0.734422    23A     -0.676105    24A     -0.647248  
      25A     -0.595741    26A     -0.556408    27A     -0.545233  
      28A     -0.505981    29A     -0.492004    30A     -0.485544  
      31A     -0.479700    32A     -0.436894    33A     -0.431948  
      34A     -0.413171    35A     -0.407440    36A     -0.370288  
      37A     -0.353696    38A     -0.352059    39A     -0.314057  
      40A     -0.293605    41A     -0.255104    42A     -0.245163  
      43A     -0.210233    44A     -0.194422    45A     -0.105323  

    Virtual:                                                              

      46A      0.097398    47A      0.099265    48A      0.116469  
      49A      0.116830    50A      0.124106    51A      0.125665  
      52A      0.131416    53A      0.132467    54A      0.161347  
      55A      0.166568    56A      0.180098    57A      0.183595  
      58A      0.184616    59A      0.186647    60A      0.188266  
      61A      0.195769    62A      0.196284    63A      0.202353  
      64A      0.204675    65A      0.210726    66A      0.213506  
      67A      0.216051    68A      0.222056    69A      0.225846  
      70A      0.226302    71A      0.230115    72A      0.230688  
      73A      0.234033    74A      0.238432    75A      0.241885  
      76A      0.248849    77A      0.250142    78A      0.257156  
      79A      0.258136    80A      0.266016    81A      0.267916  
      82A      0.275292    83A      0.283306    84A      0.292235  
      85A      0.293956    86A      0.301812    87A      0.308571  
      88A      0.310858    89A      0.317904    90A      0.321223  
      91A      0.324694    92A      0.329166    93A      0.334290  
      94A      0.335833    95A      0.338955    96A      0.343504  
      97A      0.350529    98A      0.354708    99A      0.360046  
     100A      0.360619   101A      0.369606   102A      0.373593  
     103A      0.375952   104A      0.389779   105A      0.390558  
     106A      0.395200   107A      0.395327   108A      0.396758  
     109A      0.407859   110A      0.410797   111A      0.411512  
     112A      0.415157   113A      0.418749   114A      0.423421  
     115A      0.430147   116A      0.431295   117A      0.444970  
     118A      0.445225   119A      0.448647   120A      0.459740  
     121A      0.462361   122A      0.467390   123A      0.470736  
     124A      0.471440   125A      0.476798   126A      0.486493  
     127A      0.493929   128A      0.504136   129A      0.504447  
     130A      0.505652   131A      0.510440   132A      0.520150  
     133A      0.531079   134A      0.532673   135A      0.538184  
     136A      0.545974   137A      0.549114   138A      0.551823  
     139A      0.556387   140A      0.561806   141A      0.569028  
     142A      0.569668   143A      0.571307   144A      0.572112  
     145A      0.580441   146A      0.580865   147A      0.584286  
     148A      0.592296   149A      0.594550   150A      0.596720  
     151A      0.599378   152A      0.604762   153A      0.604910  
     154A      0.608819   155A      0.610065   156A      0.616965  
     157A      0.620950   158A      0.622768   159A      0.628432  
     160A      0.632524   161A      0.634330   162A      0.634607  
     163A      0.642840   164A      0.648357   165A      0.655575  
     166A      0.659417   167A      0.663226   168A      0.668057  
     169A      0.674004   170A      0.679296   171A      0.689595  
     172A      0.690998   173A      0.698544   174A      0.699080  
     175A      0.707016   176A      0.711636   177A      0.713022  
     178A      0.717337   179A      0.720661   180A      0.723226  
     181A      0.740449   182A      0.746874   183A      0.753509  
     184A      0.754159   185A      0.761840   186A      0.776975  
     187A      0.778032   188A      0.783377   189A      0.789830  
     190A      0.796446   191A      0.800219   192A      0.806442  
     193A      0.812180   194A      0.818605   195A      0.829281  
     196A      0.829569   197A      0.836481   198A      0.846607  
     199A      0.850235   200A      0.850552   201A      0.855916  
     202A      0.856055   203A      0.858708   204A      0.867224  
     205A      0.867701   206A      0.877684   207A      0.878073  
     208A      0.890096   209A      0.893927   210A      0.902462  
     211A      0.916972   212A      0.925325   213A      0.929148  
     214A      0.936565   215A      0.947219   216A      0.950655  
     217A      0.961476   218A      0.966674   219A      0.973643  
     220A      0.976886   221A      0.984956   222A      0.989704  
     223A      0.994368   224A      1.004767   225A      1.010655  
     226A      1.014278   227A      1.015705   228A      1.023078  
     229A      1.024001   230A      1.024727   231A      1.027857  
     232A      1.037566   233A      1.040184   234A      1.048536  
     235A      1.052515   236A      1.052737   237A      1.055571  
     238A      1.062851   239A      1.063848   240A      1.067813  
     241A      1.075932   242A      1.078519   243A      1.083167  
     244A      1.088663   245A      1.090419   246A      1.094891  
     247A      1.095583   248A      1.107662   249A      1.110774  
     250A      1.118606   251A      1.122806   252A      1.124598  
     253A      1.134538   254A      1.139233   255A      1.143516  
     256A      1.145891   257A      1.152472   258A      1.162153  
     259A      1.163537   260A      1.166104   261A      1.166543  
     262A      1.170776   263A      1.171183   264A      1.183861  
     265A      1.185090   266A      1.191919   267A      1.203881  
     268A      1.205201   269A      1.207812   270A      1.208502  
     271A      1.220456   272A      1.230336   273A      1.236909  
     274A      1.239237   275A      1.243241   276A      1.244857  
     277A      1.247826   278A      1.252757   279A      1.267034  
     280A      1.267359   281A      1.273236   282A      1.278208  
     283A      1.284564   284A      1.286767   285A      1.295290  
     286A      1.297852   287A      1.299161   288A      1.306875  
     289A      1.308292   290A      1.318071   291A      1.320788  
     292A      1.324783   293A      1.330069   294A      1.334341  
     295A      1.334957   296A      1.344302   297A      1.349347  
     298A      1.352068   299A      1.367764   300A      1.377483  
     301A      1.380118   302A      1.382573   303A      1.391058  
     304A      1.402684   305A      1.404290   306A      1.405128  
     307A      1.409908   308A      1.414163   309A      1.419629  
     310A      1.430924   311A      1.434223   312A      1.444347  
     313A      1.444835   314A      1.446725   315A      1.471149  
     316A      1.480580   317A      1.484809   318A      1.489942  
     319A      1.491900   320A      1.502844   321A      1.507153  
     322A      1.516465   323A      1.525645   324A      1.533136  
     325A      1.534510   326A      1.542170   327A      1.559472  
     328A      1.570015   329A      1.574363   330A      1.580264  
     331A      1.586767   332A      1.590766   333A      1.596835  
     334A      1.611452   335A      1.624917   336A      1.626059  
     337A      1.644511   338A      1.647029   339A      1.663085  
     340A      1.668947   341A      1.677450   342A      1.678158  
     343A      1.686639   344A      1.689664   345A      1.704492  
     346A      1.709506   347A      1.710915   348A      1.728468  
     349A      1.738691   350A      1.738920   351A      1.752929  
     352A      1.758417   353A      1.767478   354A      1.771655  
     355A      1.778538   356A      1.806076   357A      1.807501  
     358A      1.818671   359A      1.820866   360A      1.825675  
     361A      1.832948   362A      1.833600   363A      1.840011  
     364A      1.843263   365A      1.848623   366A      1.860622  
     367A      1.872397   368A      1.880059   369A      1.881574  
     370A      1.894304   371A      1.909970   372A      1.920677  
     373A      1.926165   374A      1.931469   375A      1.933527  
     376A      1.950012   377A      1.960955   378A      1.977354  
     379A      1.979883   380A      1.993200   381A      1.997821  
     382A      2.001513   383A      2.013705   384A      2.016440  
     385A      2.022971   386A      2.030527   387A      2.036970  
     388A      2.046998   389A      2.062223   390A      2.070593  
     391A      2.070974   392A      2.082547   393A      2.087268  
     394A      2.092797   395A      2.098422   396A      2.099367  
     397A      2.108693   398A      2.122084   399A      2.133750  
     400A      2.143511   401A      2.151050   402A      2.158333  
     403A      2.162198   404A      2.163533   405A      2.171307  
     406A      2.172056   407A      2.185421   408A      2.194975  
     409A      2.200149   410A      2.206666   411A      2.223601  
     412A      2.226682   413A      2.239836   414A      2.251100  
     415A      2.258551   416A      2.266840   417A      2.268813  
     418A      2.282944   419A      2.283078   420A      2.295101  
     421A      2.300984   422A      2.308536   423A      2.309241  
[...]
	 B(8,6,19)        =         2.096862	     120.141336
	 B(9,1,14)        =         2.072293	     118.733645
	 B(9,2,15)        =         2.073703	     118.814438
	 B(10,5,18)       =         2.083681	     119.386117
	 B(10,6,19)       =         2.084493	     119.432659
	 B(11,3,16)       =         2.041493	     116.968918
	 B(11,4,17)       =         2.040144	     116.891657
	 B(12,7,20)       =         2.024624	     116.002398
	 B(12,8,21)       =         2.024214	     115.978946
	 D(1,3,11,4)      =        -0.023686	      -1.357134
	 D(1,3,11,13)     =         3.125691	     179.088878
	 D(1,9,2,4)       =        -0.073265	      -4.197750
	 D(1,9,2,15)      =         3.109809	     178.178949
	 D(1,9,10,5)      =         1.035898	      59.352582
	 D(1,9,10,6)      =        -2.223537	    -127.399307
	 D(2,4,11,3)      =         0.002978	       0.170621
	 D(2,4,11,13)     =         3.136796	     179.725148
	 D(2,9,1,3)       =         0.052776	       3.023850
	 D(2,9,1,14)      =        -3.072438	    -176.037746
	 D(2,9,10,5)      =        -2.290022	    -131.208621
	 D(2,9,10,6)      =         0.733728	      42.039489
	 D(3,1,9,10)      =         3.017800	     172.907216
	 D(3,11,4,17)     =        -3.138394	    -179.816727
	 D(4,2,9,10)      =        -3.038274	    -174.080272
	 D(4,11,3,16)     =         3.102080	     177.736101
	 D(5,7,12,8)      =         0.003709	       0.212519
	 D(5,10,6,8)      =        -0.035768	      -2.049351
	 D(5,10,6,19)     =         3.124669	     179.030357
	 D(6,8,12,7)      =         0.011142	       0.638404
	 D(6,10,5,7)      =         0.049507	       2.836539
	 D(6,10,5,18)     =        -3.090343	    -177.063620
	 D(7,5,10,9)      =         3.080940	     176.524874
	 D(7,12,8,21)     =        -3.137500	    -179.765521
	 D(8,6,10,9)      =        -3.067523	    -175.756143
	 D(8,12,7,20)     =         3.118758	     178.691676
	 D(9,1,3,11)      =        -0.004619	      -0.264637
	 D(9,1,3,16)      =        -3.129912	    -179.330759
	 D(9,2,4,11)      =         0.046763	       2.679350
	 D(9,2,4,17)      =        -3.095057	    -177.333690
	 D(9,10,5,18)     =        -0.058910	      -3.375285
	 D(9,10,6,19)     =         0.092914	       5.323565
	 D(10,5,7,12)     =        -0.035754	      -2.048529
	 D(10,5,7,20)     =         3.133363	     179.528464
	 D(10,6,8,12)     =         0.006045	       0.346376
	 D(10,6,8,21)     =        -3.128241	    -179.234985
	 D(10,9,1,14)     =        -0.107414	      -6.154379
	 D(10,9,2,15)     =         0.144800	       8.296427
	 D(11,3,1,14)     =         3.120488	     178.790797
	 D(11,4,2,15)     =        -3.136548	    -179.710987
	 D(12,7,5,18)     =         3.104084	     177.850916
	 D(12,8,6,19)     =         3.128660	     179.258996
	 D(13,11,3,16)    =        -0.031728	      -1.817886
	 D(13,11,4,17)    =        -0.004576	      -0.262200
	 D(14,1,3,16)     =        -0.004805	      -0.275325
	 D(15,2,4,17)     =         0.004817	       0.275973
	 D(18,5,7,20)     =        -0.009985	      -0.572091
	 D(19,6,8,21)     =        -0.005626	      -0.322365

	Current energy   :      -553.1729774761

	Energy change for the previous step:
		Projected    :         0.0000004624
		Actual       :        -0.0000008709

	Performing BFGS update.
	Previous computed or guess Hessian on step 1.
	Steps to be used in Hessian update: 14 13
	Adding user-defined constraint: Fragment 1; Coordinate 61:
		Value =     1.035898; Fixed value    =     1.047200
		Force =     0.009607; Force constant =     0.850000
	Removing off-diagonal coupling between coordinate 61 and others.
	Taking RFO optimization step.
	Going to follow RFO solution 1.
	Rejecting RFO root 1 because normalization gives large value.
	Rejecting RFO root 2 because normalization gives large value.
	Rejecting RFO root 3 because normalization gives large value.
	Rejecting RFO root 4 because normalization gives large value.
	Using RFO vector 5.

	Determining step-restricting scale parameter for RS-RFO.
	Maximum step size allowed    0.10000

	 Iter      |step|        alpha        rfo_root  
	------------------------------------------------
	    0   157.30278       1.00000           5
	    1    78.67817       1.99941           5
	    2    39.36588       3.99646           5
	    3    19.70975       7.98349           5
	    4     9.88171      15.92933           5
	    5     4.96774      31.70882           5
	    6     2.51086      62.82384           5
	    7     1.28263     123.31632           5
	    8     0.66895     237.64730           5
	    9     0.36296     441.90626           5
	   10     0.21167     768.26748           5
	   11     0.13936    1186.95113           5
	   12     0.10899    1538.82158           5
	   13     0.10072    1673.67302           5
	   14     0.10001    1686.48526           5
	------------------------------------------------
	Norm of target step-size    0.10001
	Projected energy change by RFO approximation:         0.0000468932

	Back-transformation to cartesian coordinates...
	Could not converge backtransformation.
	Using first guess instead.

	--- Internal Coordinate Step in ANG or DEG, aJ/ANG or AJ/DEG ---
	 ---------------------------------------------------------------------------
	   Coordinate                Previous        Force       Change         New 
	   ----------                --------       ------       ------       ------
	    1 R(1,3)          =      1.379071    -0.000009     0.000096     1.379166
	    2 R(1,9)          =      1.401986     0.000043     0.000428     1.402414
	    3 R(1,14)         =      1.084345    -0.000020     0.000059     1.084404
	    4 R(2,4)          =      1.378879    -0.000009     0.000094     1.378974
	    5 R(2,9)          =      1.401970    -0.000131     0.000487     1.402457
	    6 R(2,15)         =      1.084100     0.000000     0.000152     1.084251
	    7 R(3,11)         =      1.434941    -0.000070    -0.000362     1.434578
	    8 R(3,16)         =      1.081883    -0.000004     0.000109     1.081992
	    9 R(4,11)         =      1.435566     0.000012    -0.000450     1.435115
	   10 R(4,17)         =      1.082038    -0.000027     0.000208     1.082246
	   11 R(5,7)          =      1.384212     0.000022     0.000010     1.384222
	   12 R(5,10)         =      1.398418    -0.000060     0.000571     1.398989
	   13 R(5,18)         =      1.080398     0.000024     0.000047     1.080445
	   14 R(6,8)          =      1.384713     0.000041     0.000027     1.384740
	   15 R(6,10)         =      1.398423    -0.000032     0.000478     1.398901
	   16 R(6,19)         =      1.080024     0.000033     0.000058     1.080082
	   17 R(7,12)         =      1.338956    -0.000095    -0.000114     1.338843
	   18 R(7,20)         =      1.082648    -0.000019     0.000233     1.082881
	   19 R(8,12)         =      1.338338    -0.000120    -0.000235     1.338103
	   20 R(8,21)         =      1.082743    -0.000018     0.000258     1.083001
	   21 R(9,10)         =      1.448278    -0.000019    -0.000151     1.448128
	   22 R(11,13)        =      1.265095     0.000055    -0.000199     1.264896
	   23 B(1,3,11)       =    122.950927     0.000000     0.098260   123.049186
	   24 B(1,3,16)       =    120.073954    -0.000000    -0.029334   120.044620
	   25 B(1,9,2)        =    116.807498     0.000000    -0.113874   116.693624
	   26 B(1,9,10)       =    121.193069    -0.000001     0.025719   121.218788
	   27 B(2,4,11)       =    123.029200     0.000000     0.047071   123.076271
	   28 B(2,4,17)       =    120.079142    -0.000000    -0.015101   120.064041
	   29 B(2,9,10)       =    121.200889     0.000001     0.056638   121.257528
	   30 B(3,1,9)        =    121.851723    -0.000000     0.023984   121.875707
	   31 B(3,1,14)       =    119.408062    -0.000000    -0.021461   119.386600
	   32 B(3,11,4)       =    113.498611    -0.000000    -0.097769   113.400842
	   33 B(3,11,13)      =    123.302793     0.000000     0.059326   123.362119
	   34 B(4,2,9)        =    121.740521    -0.000000     0.094274   121.834795
	   35 B(4,2,15)       =    119.402877    -0.000000    -0.114106   119.288770
	   36 B(4,11,13)      =    123.197005     0.000000     0.039600   123.236605
	   37 B(5,7,12)       =    124.067065     0.000000     0.015783   124.082847
	   38 B(5,7,20)       =    119.913200    -0.000000    -0.043407   119.869792
	   39 B(5,10,6)       =    115.118539    -0.000000    -0.112577   115.005962
	   40 B(5,10,9)       =    122.415953     0.000001     0.059691   122.475644
	   41 B(6,8,12)       =    124.173194     0.000000     0.045180   124.218374
	   42 B(6,8,21)       =    119.846639    -0.000000    -0.054420   119.792220
	   43 B(6,10,9)       =    122.151432    -0.000000     0.071897   122.223329
	   44 B(7,5,10)       =    120.513330    -0.000000     0.069768   120.583098
	   45 B(7,5,18)       =    120.100477    -0.000000    -0.035078   120.065399
	   46 B(7,12,8)       =    115.654560     0.000000    -0.050155   115.604405
	   47 B(8,6,10)       =    120.417169    -0.000000     0.047773   120.464942
	   48 B(8,6,19)       =    120.141336     0.000000    -0.030225   120.111110
	   49 B(9,1,14)       =    118.733645     0.000000    -0.040890   118.692755
	   50 B(9,2,15)       =    118.814438     0.000000     0.060210   118.874648
	   51 B(10,5,18)      =    119.386117     0.000000    -0.042885   119.343232
	   52 B(10,6,19)      =    119.432659    -0.000000    -0.010003   119.422656
	   53 B(11,3,16)      =    116.968918     0.000000    -0.063209   116.905709
	   54 B(11,4,17)      =    116.891657     0.000000    -0.040616   116.851041
	   55 B(12,7,20)      =    116.002398    -0.000000    -0.029285   115.973113
	   56 B(12,8,21)      =    115.978946    -0.000000    -0.000775   115.978171
	   57 D(1,3,11,4)     =     -1.357134     0.000000    -0.514458    -1.871592
	   58 D(1,3,11,13)    =    179.088878    -0.000000    -1.193230   177.895648
	   59 D(1,9,2,4)      =     -4.197750     0.000000     1.327775    -2.869975
	   60 D(1,9,2,15)     =    178.178949     0.000000    -0.559078   177.619871
	   61 D(1,9,10,5)     =     59.352582     0.000000     0.033304    59.385886
	   62 D(1,9,10,6)     =   -127.399307     0.000000     0.233022  -127.166285
	   63 D(2,4,11,3)     =      0.170621    -0.000000     0.634683     0.805304
	   64 D(2,4,11,13)    =    179.725148     0.000000     1.312581   181.037729
	   65 D(2,9,1,3)      =      3.023850    -0.000000    -1.210303     1.813546
	   66 D(2,9,1,14)     =   -176.037746    -0.000000     0.305451  -175.732295
	   67 D(2,9,10,5)     =   -131.208621     0.000000    -0.183145  -131.391766
	   68 D(2,9,10,6)     =     42.039489     0.000000     0.016574    42.056063
	   69 D(3,1,9,10)     =    172.907216    -0.000000    -1.400741   171.506476
	   70 D(3,11,4,17)    =   -179.816727    -0.000000    -0.448979  -180.265706
	   71 D(4,2,9,10)     =   -174.080272     0.000000     1.521641  -172.558631
	   72 D(4,11,3,16)    =    177.736101     0.000000     0.138763   177.874864
	   73 D(5,7,12,8)     =      0.212519     0.000000     0.865648     1.078167
	   74 D(5,10,6,8)     =     -2.049351    -0.000000     0.495081    -1.554270
	   75 D(5,10,6,19)    =    179.030357    -0.000000    -0.171676   178.858681
	   76 D(6,8,12,7)     =      0.638404     0.000000    -0.911262    -0.272859
	   77 D(6,10,5,7)     =      2.836539     0.000000    -0.536052     2.300486
	   78 D(6,10,5,18)    =   -177.063620     0.000000     0.409537  -176.654083
	   79 D(7,5,10,9)     =    176.524874    -0.000000    -0.338964   176.185910
	   80 D(7,12,8,21)    =   -179.765521    -0.000000     0.718663  -179.046859
	   81 D(8,6,10,9)     =   -175.756143     0.000000     0.299354  -175.456789
	   82 D(8,12,7,20)    =    178.691676    -0.000000    -0.761164   177.930512
	   83 D(9,1,3,11)     =     -0.264637    -0.000000     0.856896     0.592260
	   84 D(9,1,3,16)     =   -179.330759    -0.000000     0.184212  -179.146547
	   85 D(9,2,4,11)     =      2.679350     0.000000    -1.099425     1.579926
	   86 D(9,2,4,17)     =   -177.333690     0.000000     0.017692  -177.315997
	   87 D(9,10,5,18)    =     -3.375285    -0.000000     0.606625    -2.768659
	   88 D(9,10,6,19)    =      5.323565     0.000000    -0.367403     4.956162
	   89 D(10,5,7,12)    =     -2.048529    -0.000000    -0.154210    -2.202738
	   90 D(10,5,7,20)    =    179.528464    -0.000000     1.532151   181.060615
	   91 D(10,6,8,12)    =      0.346376    -0.000000     0.242986     0.589362
	   92 D(10,6,8,21)    =   -179.234985     0.000000    -1.445635  -180.680620
	   93 D(10,9,1,14)    =     -6.154379    -0.000000     0.115013    -6.039366
	   94 D(10,9,2,15)    =      8.296427     0.000000    -0.365211     7.931216
	   95 D(11,3,1,14)    =    178.790797    -0.000000    -0.669263   178.121534
	   96 D(11,4,2,15)    =   -179.710987     0.000000     0.799093  -178.911895
	   97 D(12,7,5,18)    =    177.850916    -0.000000    -1.106631   176.744286
	   98 D(12,8,6,19)    =    179.258996    -0.000000     0.914567   180.173564
	   99 D(13,11,3,16)   =     -1.817886    -0.000000    -0.540010    -2.357896
	  100 D(13,11,4,17)   =     -0.262200     0.000000     0.228919    -0.033281
	  101 D(14,1,3,16)    =     -0.275325    -0.000000    -1.341947    -1.617273
	  102 D(15,2,4,17)    =      0.275973     0.000000     1.916210     2.192183
	  103 D(18,5,7,20)    =     -0.572091    -0.000000     0.579730     0.007639
	  104 D(19,6,8,21)    =     -0.322365     0.000000    -0.774053    -1.096419
	 ---------------------------------------------------------------------------
	Successfully symmetrized geometry.
	 Forces used to impose fixed constraints are not included.
	  Forces zeroed: 61 

  ==> Convergence Check <==

  Measures of convergence in internal coordinates in au.
  Criteria marked as inactive (o), active & met (*), and active & unmet ( ).
  ---------------------------------------------------------------------------------------------
   Step     Total Energy     Delta E     MAX Force     RMS Force      MAX Disp      RMS Disp   
  ---------------------------------------------------------------------------------------------
    Convergence Criteria    1.00e-06 *    3.00e-04 *             o    1.20e-03 *             o
  ---------------------------------------------------------------------------------------------
     15    -553.17297748   -8.71e-07 *    2.34e-05 *    6.93e-06 o    3.34e-02      9.81e-03 o  ~
  ---------------------------------------------------------------------------------------------


  **** Optimization is complete! (in 15 steps) ****

  ==> Optimization Summary <==

  Measures of convergence in internal coordinates in au.
  --------------------------------------------------------------------------------------------------------------- ~
   Step         Total Energy             Delta E       MAX Force       RMS Force        MAX Disp        RMS Disp  ~
  --------------------------------------------------------------------------------------------------------------- ~
      1    -553.162756016057   -553.162756016057      0.02590775      0.00658872      0.03988580      0.00979213  ~
      2    -553.167996535899     -0.005240519842      0.01583533      0.00386843      0.03969065      0.00979493  ~
      3    -553.170875278383     -0.002878742485      0.00714017      0.00183894      0.04347723      0.00980536  ~
      4    -553.172015275266     -0.001139996883      0.00257854      0.00066496      0.05939801      0.00979983  ~
      5    -553.172466780005     -0.000451504739      0.00199596      0.00036698      0.06106334      0.00979253  ~
      6    -553.172794734302     -0.000327954296      0.00126872      0.00027493      0.06003088      0.00979181  ~
      7    -553.173030488945     -0.000235754643      0.00160516      0.00028862      0.05778677      0.00979571  ~
      8    -553.173157165352     -0.000126676407      0.00243034      0.00037951      0.00835116      0.00144125  ~
      9    -553.173068231903      0.000088933449      0.00109355      0.00017541      0.01647514      0.00327403  ~
     10    -553.173064581347      0.000003650556      0.00104054      0.00015889      0.05863427      0.00980061  ~
     11    -553.172880828814      0.000183752533      0.00117347      0.00023948      0.05170061      0.00856941  ~
     12    -553.172998305884     -0.000117477070      0.00022374      0.00005063      0.02438251      0.00390277  ~
     13    -553.172991921300      0.000006384584      0.00028723      0.00007668      0.01482335      0.00252233  ~
     14    -553.172976605222      0.000015316078      0.00013068      0.00002206      0.00268418      0.00050314  ~
     15    -553.172977476143     -0.000000870921      0.00002342      0.00000705      0.03344417      0.00980649  ~
  --------------------------------------------------------------------------------------------------------------- ~

	Writing optimization data to binary file.
	Final energy is   -553.1729774761429
	Final (previous) structure:
	Cartesian Geometry (in Angstrom)
	    C    -1.2497130637   0.8659366203  -0.5378808881
	    C    -0.3351637693   0.0635318658   1.5172900822
	    C    -2.3423582693   1.3689658337   0.1365995662
	    C    -1.4113378715   0.5832773134   2.2050563529
	    C     1.6886555364   0.2535183853  -1.5019648906
	    C     1.2361165206  -1.7546064179  -0.3469493195
	    C     2.7404787241  -0.3956958920  -2.1250475458
	    C     2.3162630999  -2.3191004088  -1.0042617804
	    C    -0.1967213447   0.2269245130   0.1317735545
	    C     0.8682129858  -0.4290767906  -0.5983546863
	    C    -2.4913662173   1.2755339216   1.5607209240
	    N     3.0760096517  -1.6714627891  -1.8956085099
	    O    -3.4826519605   1.7492149033   2.1879726394
	    H    -1.2053589103   0.9508212374  -1.6179881522
	    H     0.4461849883  -0.4529823532   2.0631645314
	    H    -3.1439814927   1.8473110791  -0.4102620473
	    H    -1.4695845026   0.4784150371   3.2804249385
	    H     1.4958658964   1.2960361364  -1.7099276706
	    H     0.6595515630  -2.3418980910   0.3524167469
	    H     3.3648512500   0.1401112531  -2.8287490199
	    H     2.5854197931  -3.3500403093  -0.8117778967
	Saving final (previous) structure.
			--------------------------
			 OPTKING Finished Execution 
			--------------------------

    Final optimized geometry and variables:
    Molecular point group: c1
    Full point group: C1

    Geometry (in Angstrom), charge = -1, multiplicity = 1:

    C           -1.249713063731     0.865936620266    -0.537880888089
    C           -0.335163769317     0.063531865762     1.517290082206
    C           -2.342358269291     1.368965833670     0.136599566224
    C           -1.411337871495     0.583277313448     2.205056352928
    C            1.688655536358     0.253518385337    -1.501964890557
    C            1.236116520561    -1.754606417940    -0.346949319541
    C            2.740478724103    -0.395695892030    -2.125047545814
    C            2.316263099890    -2.319100408757    -1.004261780399
    C           -0.196721344741     0.226924512991     0.131773554548
    C            0.868212985820    -0.429076790564    -0.598354686295
    C           -2.491366217262     1.275533921649     1.560720924011
    N            3.076009651654    -1.671462789055    -1.895608509883
    O           -3.482651960493     1.749214903340     2.187972639425
    H           -1.205358910311     0.950821237439    -1.617988152173
    H            0.446184988278    -0.452982353175     2.063164531393
    H           -3.143981492667     1.847311079121    -0.410262047290
    H           -1.469584502576     0.478415037096     3.280424938459
    H            1.495865896358     1.296036136401    -1.709927670603
    H            0.659551562968    -2.341898090983     0.352416746852
    H            3.364851249955     0.140111253081    -2.828749019866
    H            2.585419793132    -3.350040309328    -0.811777896727

	Cleaning optimization helper files.

*** Psi4 exiting successfully. Buy a developer a beer!
