
    -----------------------------------------------------------------------
          Psi4: An Open-Source Ab Initio Electronic Structure Package
                               Psi4 1.1 release

                         Git: Rev {HEAD} add49b9 


    R. M. Parrish, L. A. Burns, D. G. A. Smith, A. C. Simmonett,
    A. E. DePrince III, E. G. Hohenstein, U. Bozkaya, A. Yu. Sokolov,
    R. Di Remigio, R. M. Richard, J. F. Gonthier, A. M. James,
    H. R. McAlexander, A. Kumar, M. Saitow, X. Wang, B. P. Pritchard,
    P. Verma, H. F. Schaefer III, K. Patkowski, R. A. King, E. F. Valeev,
    F. A. Evangelista, J. M. Turney, T. D. Crawford, and C. D. Sherrill,
    J. Chem. Theory Comput. in press (2017).
    (doi: 10.1021/acs.jctc.7b00174)

    -----------------------------------------------------------------------


    Psi4 started on: Sunday, 12 November 2017 01:42PM

    Process ID:   2627
    PSIDATADIR: /cbio/jclab/home/chayas/anaconda/envs/py35/share/psi4
    Memory:     500.0 MiB
    Threads:    8
    
  ==> Input File <==

--------------------------------------------------------------------------

memory 5 Gb

molecule phepyrOH_neutral {
  symmetry C1
  0 1 
  C      1.885   -1.036   -0.112
  C      2.878   -1.652   2.002
  C      0.807   -0.463   0.561
  C      1.800   -1.079   2.676
  C      3.862   -2.773   -1.356
  C      5.298   -2.250   0.501
  C      4.965   -3.329   -1.983
  C      6.337   -2.829   -0.209
  C      2.921   -1.631   0.608
  C      4.040   -2.225   -0.090
  C      0.764   -0.484   1.955
  N      6.202   -3.372   -1.440
  O      -0.288   0.076   2.612
  H      1.904   -1.012   -1.199
  H      3.678   -2.112   2.578
  H      0.003   -0.001   -0.006
  H      1.772   -1.098   3.762
  H      2.895   -2.772   -1.850
  H      5.475   -1.833   1.487
  H      4.879   -3.768   -2.972
  H      7.337   -2.875   0.208
  H      -0.005   0.412   3.477
  units Angstrom
}

dih_string = "3 11 13 22 210"
set optking fixed_dihedral = $dih_string

optimize('MP2/aug-cc-PVTZ')
--------------------------------------------------------------------------

  Memory set to   4.657 GiB by Python driver.
gradient() will perform analytic gradient computation.

*** tstart() called on gpu-1-6.local
*** at Sun Nov 12 13:42:17 2017

    SCF Algorithm Type (re)set to DF.

*** tstart() called on gpu-1-6.local
*** at Sun Nov 12 13:42:17 2017

   => Loading Basis Set <=

    Name: AUG-CC-PVTZ
    Role: ORBITAL
    Keyword: BASIS
    atoms 1-11  entry C          line   221 file /cbio/jclab/home/chayas/anaconda/envs/py35/share/psi4/basis/aug-cc-pvtz.gbs 
    atoms 12    entry N          line   267 file /cbio/jclab/home/chayas/anaconda/envs/py35/share/psi4/basis/aug-cc-pvtz.gbs 
    atoms 13    entry O          line   313 file /cbio/jclab/home/chayas/anaconda/envs/py35/share/psi4/basis/aug-cc-pvtz.gbs 
    atoms 14-22 entry H          line    34 file /cbio/jclab/home/chayas/anaconda/envs/py35/share/psi4/basis/aug-cc-pvtz.gbs 


         ---------------------------------------------------------
                                   SCF
            by Justin Turney, Rob Parrish, and Andy Simmonett
                              RHF Reference
                        8 Threads,   4768 MiB Core
         ---------------------------------------------------------

  ==> Geometry <==

    Molecular point group: c1
    Full point group: C1

    Geometry (in Angstrom), charge = 0, multiplicity = 1:

       Center              X                  Y                   Z               Mass       
    ------------   -----------------  -----------------  -----------------  -----------------
           C         -1.254569328014     0.707113076051    -0.590043893959    12.000000000000
           C         -0.261569328014     0.091113076051     1.523956106041    12.000000000000
           C         -2.332569328014     1.280113076051     0.082956106041    12.000000000000
           C         -1.339569328014     0.664113076051     2.197956106041    12.000000000000
           C          0.722430671986    -1.029886923949    -1.834043893959    12.000000000000
           C          2.158430671986    -0.506886923949     0.022956106041    12.000000000000
           C          1.825430671986    -1.585886923949    -2.461043893959    12.000000000000
           C          3.197430671986    -1.085886923949    -0.687043893959    12.000000000000
           C         -0.218569328014     0.112113076051     0.129956106041    12.000000000000
           C          0.900430671986    -0.481886923949    -0.568043893959    12.000000000000
           C         -2.375569328014     1.259113076051     1.476956106041    12.000000000000
           N          3.062430671986    -1.628886923949    -1.918043893959    14.003074004780
           O         -3.427569328014     1.819113076051     2.133956106041    15.994914619560
           H         -1.235569328014     0.731113076051    -1.677043893959     1.007825032070
           H          0.538430671986    -0.368886923949     2.099956106041     1.007825032070
           H         -3.136569328014     1.742113076051    -0.484043893959     1.007825032070
           H         -1.367569328014     0.645113076051     3.283956106041     1.007825032070
           H         -0.244569328014    -1.028886923949    -2.328043893959     1.007825032070
           H          2.335430671986    -0.089886923949     1.008956106041     1.007825032070
           H          1.739430671986    -2.024886923949    -3.450043893959     1.007825032070
           H          4.197430671986    -1.131886923949    -0.270043893959     1.007825032070
           H         -3.144569328014     2.155113076051     2.998956106041     1.007825032070

  Running in c1 symmetry.

  Rotational constants: A =      0.09693  B =      0.01355  C =      0.01208 [cm^-1]
  Rotational constants: A =   2906.03342  B =    406.13759  C =    362.29664 [MHz]
  Nuclear repulsion =  698.561333369069644

  Charge       = 0
  Multiplicity = 1
  Electrons    = 90
  Nalpha       = 45
  Nbeta        = 45

  ==> Algorithm <==

  SCF Algorithm Type is DF.
  DIIS enabled.
  MOM disabled.
  Fractional occupation disabled.
  Guess Type is SAD.
  Energy threshold   = 1.00e-10
  Density threshold  = 1.00e-10
  Integral threshold = 0.00e+00

  ==> Primary Basis <==

  Basis Set: AUG-CC-PVTZ
    Blend: AUG-CC-PVTZ
    Number of shells: 263
    Number of basis function: 805
    Number of Cartesian functions: 940
    Spherical Harmonics?: true
    Max angular momentum: 3

   => Loading Basis Set <=

    Name: (AUG-CC-PVTZ AUX)
    Role: JKFIT
    Keyword: DF_BASIS_SCF
    atoms 1-11  entry C          line   161 file /cbio/jclab/home/chayas/anaconda/envs/py35/share/psi4/basis/aug-cc-pvtz-jkfit.gbs 
    atoms 12    entry N          line   223 file /cbio/jclab/home/chayas/anaconda/envs/py35/share/psi4/basis/aug-cc-pvtz-jkfit.gbs 
    atoms 13    entry O          line   285 file /cbio/jclab/home/chayas/anaconda/envs/py35/share/psi4/basis/aug-cc-pvtz-jkfit.gbs 
    atoms 14-22 entry H          line    69 file /cbio/jclab/home/chayas/anaconda/envs/py35/share/psi4/basis/aug-cc-pvtz-jkfit.gbs 

  ==> Pre-Iterations <==

   -------------------------------------------------------
    Irrep   Nso     Nmo     Nalpha   Nbeta   Ndocc  Nsocc
   -------------------------------------------------------
     A        805     805       0       0       0       0
   -------------------------------------------------------
    Total     805     805      45      45      45       0
   -------------------------------------------------------

  ==> Integral Setup <==

  ==> DFJK: Density-Fitted J/K Matrices <==

    J tasked:                  Yes
    K tasked:                  Yes
    wK tasked:                  No
    OpenMP threads:              8
    Integrals threads:           8
    Memory (MB):              3576
    Algorithm:                Disk
    Integral Cache:           NONE
    Schwarz Cutoff:          1E-12
    Fitting Condition:       1E-12

   => Auxiliary Basis Set <=

  Basis Set: (AUG-CC-PVTZ AUX)
    Blend: AUG-CC-PVTZ-JKFIT
    Number of shells: 516
    Number of basis function: 1766
    Number of Cartesian functions: 2198
    Spherical Harmonics?: true
    Max angular momentum: 4

  Minimum eigenvalue in the overlap matrix is 6.1580420459E-07.
  Using Symmetric Orthogonalization.

  SCF Guess: Superposition of Atomic Densities via on-the-fly atomic UHF.

  ==> Iterations <==

                           Total Energy        Delta E     RMS |[F,P]|

   @DF-RHF iter   0:  -557.15433443822815   -5.57154e+02   2.29327e-02 
   @DF-RHF iter   1:  -550.94439250246455    6.20994e+00   1.78485e-03 
   @DF-RHF iter   2:  -551.23381072394875   -2.89418e-01   7.25251e-04 DIIS
   @DF-RHF iter   3:  -551.27207634827187   -3.82656e-02   3.78305e-04 DIIS
   @DF-RHF iter   4:  -551.28313713293801   -1.10608e-02   9.57217e-05 DIIS
   @DF-RHF iter   5:  -551.28419896231435   -1.06183e-03   4.22847e-05 DIIS
   @DF-RHF iter   6:  -551.28441391081424   -2.14948e-04   1.64530e-05 DIIS
   @DF-RHF iter   7:  -551.28444875984746   -3.48490e-05   5.36441e-06 DIIS
   @DF-RHF iter   8:  -551.28445196313896   -3.20329e-06   1.84709e-06 DIIS
   @DF-RHF iter   9:  -551.28445259845955   -6.35321e-07   8.51128e-07 DIIS
   @DF-RHF iter  10:  -551.28445277668141   -1.78222e-07   4.19387e-07 DIIS
   @DF-RHF iter  11:  -551.28445281962365   -4.29422e-08   1.53881e-07 DIIS
   @DF-RHF iter  12:  -551.28445282717848   -7.55483e-09   5.12217e-08 DIIS
   @DF-RHF iter  13:  -551.28445282778284   -6.04359e-10   2.18574e-08 DIIS
   @DF-RHF iter  14:  -551.28445282784173   -5.88898e-11   8.27815e-09 DIIS
   @DF-RHF iter  15:  -551.28445282787038   -2.86491e-11   3.97291e-09 DIIS
   @DF-RHF iter  16:  -551.28445282790619   -3.58114e-11   2.23749e-09 DIIS
   @DF-RHF iter  17:  -551.28445282787368    3.25144e-11   8.08715e-10 DIIS
   @DF-RHF iter  18:  -551.28445282786015    1.35287e-11   3.94607e-10 DIIS
   @DF-RHF iter  19:  -551.28445282789119   -3.10365e-11   1.51110e-10 DIIS
   @DF-RHF iter  20:  -551.28445282788482    6.36646e-12   5.99256e-11 DIIS

  ==> Post-Iterations <==

    Orbital Energies (a.u.)
    -----------------------

    Doubly Occupied:                                                      

       1A    -20.598238     2A    -15.561535     3A    -11.314090  
       4A    -11.273996     5A    -11.273891     6A    -11.263160  
       7A    -11.254517     8A    -11.253376     9A    -11.245651  
      10A    -11.245238    11A    -11.242919    12A    -11.236055  
      13A    -11.235985    14A     -1.414297    15A     -1.248389  
      16A     -1.174129    17A     -1.103955    18A     -1.039492  
      19A     -1.028415    20A     -1.009312    21A     -0.881377  
      22A     -0.873178    23A     -0.838033    24A     -0.810544  
      25A     -0.748778    26A     -0.724638    27A     -0.683930  
      28A     -0.665139    29A     -0.649633    30A     -0.632365  
      31A     -0.624303    32A     -0.610355    33A     -0.598622  
      34A     -0.592198    35A     -0.563228    36A     -0.544543  
      37A     -0.529492    38A     -0.521109    39A     -0.505014  
      40A     -0.490819    41A     -0.417389    42A     -0.396487  
      43A     -0.355337    44A     -0.348953    45A     -0.307925  

    Virtual:                                                              

      46A      0.021567    47A      0.029542    48A      0.032144  
      49A      0.039645    50A      0.041693    51A      0.045989  
      52A      0.054628    53A      0.057286    54A      0.061061  
      55A      0.076695    56A      0.078312    57A      0.084333  
      58A      0.088062    59A      0.091962    60A      0.095149  
      61A      0.102272    62A      0.105473    63A      0.108056  
      64A      0.109678    65A      0.112553    66A      0.115513  
      67A      0.117791    68A      0.121745    69A      0.127880  
      70A      0.130345    71A      0.132685    72A      0.134108  
      73A      0.138374    74A      0.143272    75A      0.144939  
      76A      0.149285    77A      0.149572    78A      0.154065  
      79A      0.160515    80A      0.163861    81A      0.167851  
      82A      0.172092    83A      0.176866    84A      0.182305  
      85A      0.185281    86A      0.186977    87A      0.200789  
      88A      0.204813    89A      0.211824    90A      0.215819  
      91A      0.221652    92A      0.224987    93A      0.227898  
      94A      0.236927    95A      0.239760    96A      0.242360  
      97A      0.244784    98A      0.246170    99A      0.251264  
     100A      0.256355   101A      0.262820   102A      0.263562  
     103A      0.266410   104A      0.270222   105A      0.274531  
     106A      0.280088   107A      0.285234   108A      0.289334  
     109A      0.291487   110A      0.296585   111A      0.297495  
     112A      0.302560   113A      0.306511   114A      0.307862  
     115A      0.313660   116A      0.318407   117A      0.322263  
     118A      0.328077   119A      0.329183   120A      0.333916  
     121A      0.340188   122A      0.343399   123A      0.355576  
     124A      0.358339   125A      0.362431   126A      0.367384  
     127A      0.370480   128A      0.373180   129A      0.384415  
     130A      0.392274   131A      0.394240   132A      0.398812  
     133A      0.403718   134A      0.411293   135A      0.415331  
     136A      0.419176   137A      0.425202   138A      0.428786  
     139A      0.433692   140A      0.435636   141A      0.437598  
     142A      0.438242   143A      0.442160   144A      0.447664  
     145A      0.449786   146A      0.453571   147A      0.460960  
     148A      0.462695   149A      0.462914   150A      0.470439  
     151A      0.475376   152A      0.481665   153A      0.483484  
     154A      0.485079   155A      0.490448   156A      0.493167  
     157A      0.499008   158A      0.500585   159A      0.503273  
     160A      0.505596   161A      0.508244   162A      0.511979  
     163A      0.513781   164A      0.517295   165A      0.519751  
     166A      0.526386   167A      0.529294   168A      0.530495  
     169A      0.531650   170A      0.539880   171A      0.545717  
     172A      0.546780   173A      0.550126   174A      0.554292  
     175A      0.555511   176A      0.565656   177A      0.569438  
     178A      0.571536   179A      0.580653   180A      0.588819  
     181A      0.594386   182A      0.596420   183A      0.606767  
     184A      0.611129   185A      0.614859   186A      0.619676  
     187A      0.628039   188A      0.634858   189A      0.638873  
     190A      0.647575   191A      0.652247   192A      0.658425  
     193A      0.659072   194A      0.679885   195A      0.688126  
     196A      0.690366   197A      0.692029   198A      0.698261  
     199A      0.706482   200A      0.709508   201A      0.712179  
     202A      0.720516   203A      0.722442   204A      0.728955  
     205A      0.730682   206A      0.737858   207A      0.741517  
     208A      0.751415   209A      0.755712   210A      0.758680  
     211A      0.768039   212A      0.771584   213A      0.774426  
     214A      0.779874   215A      0.797211   216A      0.799117  
     217A      0.807043   218A      0.809800   219A      0.815185  
     220A      0.820185   221A      0.827821   222A      0.834043  
     223A      0.840167   224A      0.843416   225A      0.852308  
     226A      0.857537   227A      0.863752   228A      0.869755  
     229A      0.875636   230A      0.875885   231A      0.881756  
     232A      0.886502   233A      0.893127   234A      0.896818  
     235A      0.900257   236A      0.904891   237A      0.906370  
     238A      0.908194   239A      0.911740   240A      0.919125  
     241A      0.923780   242A      0.929944   243A      0.935209  
     244A      0.947617   245A      0.950647   246A      0.951923  
     247A      0.960506   248A      0.961079   249A      0.964807  
     250A      0.971926   251A      0.974683   252A      0.975394  
     253A      0.982586   254A      0.984827   255A      0.988781  
     256A      0.996956   257A      1.002409   258A      1.005652  
     259A      1.011291   260A      1.016018   261A      1.016548  
     262A      1.025639   263A      1.028303   264A      1.029271  
     265A      1.033365   266A      1.039957   267A      1.042560  
     268A      1.045638   269A      1.047938   270A      1.051312  
     271A      1.054555   272A      1.062148   273A      1.065177  
     274A      1.075975   275A      1.077516   276A      1.087079  
     277A      1.089371   278A      1.097205   279A      1.100276  
     280A      1.101749   281A      1.102607   282A      1.106209  
     283A      1.111831   284A      1.117176   285A      1.120761  
     286A      1.124369   287A      1.126493   288A      1.141291  
     289A      1.147181   290A      1.155572   291A      1.164543  
     292A      1.166896   293A      1.168633   294A      1.172838  
     295A      1.174843   296A      1.181233   297A      1.187904  
     298A      1.190138   299A      1.190831   300A      1.199975  
     301A      1.205864   302A      1.207106   303A      1.211979  
     304A      1.216219   305A      1.218462   306A      1.221539  
     307A      1.225187   308A      1.229306   309A      1.239890  
     310A      1.255117   311A      1.257940   312A      1.266837  
     313A      1.271137   314A      1.280442   315A      1.282866  
     316A      1.291640   317A      1.294440   318A      1.301771  
     319A      1.305031   320A      1.308954   321A      1.313032  
     322A      1.321849   323A      1.328472   324A      1.334799  
     325A      1.343433   326A      1.354871   327A      1.361192  
     328A      1.371016   329A      1.372183   330A      1.379495  
     331A      1.384819   332A      1.400470   333A      1.404208  
     334A      1.410122   335A      1.426342   336A      1.430017  
     337A      1.433928   338A      1.448096   339A      1.451192  
     340A      1.455888   341A      1.464198   342A      1.478556  
     343A      1.481234   344A      1.493845   345A      1.506382  
     346A      1.511851   347A      1.519937   348A      1.520646  
     349A      1.523234   350A      1.535752   351A      1.536498  
     352A      1.547824   353A      1.559513   354A      1.577606  
     355A      1.584607   356A      1.596146   357A      1.603388  
     358A      1.607984   359A      1.615266   360A      1.621026  
     361A      1.628095   362A      1.640836   363A      1.648478  
     364A      1.658526   365A      1.668001   366A      1.674007  
     367A      1.677974   368A      1.689514   369A      1.697455  
     370A      1.699131   371A      1.705352   372A      1.710903  
     373A      1.715782   374A      1.724164   375A      1.736602  
     376A      1.738624   377A      1.745614   378A      1.749900  
     379A      1.756294   380A      1.768820   381A      1.780309  
     382A      1.782660   383A      1.791665   384A      1.808112  
     385A      1.811610   386A      1.816130   387A      1.825615  
     388A      1.831770   389A      1.844325   390A      1.846617  
     391A      1.852495   392A      1.862851   393A      1.867908  
     394A      1.872088   395A      1.876846   396A      1.896202  
     397A      1.909198   398A      1.911125   399A      1.916361  
     400A      1.930875   401A      1.941334   402A      1.944660  
     403A      1.948207   404A      1.954694   405A      1.967397  
     406A      1.970658   407A      1.978178   408A      1.985398  
     409A      1.999016   410A      2.003453   411A      2.011956  
     412A      2.016469   413A      2.029054   414A      2.034612  
     415A      2.035500   416A      2.042949   417A      2.046147  
     418A      2.057585   419A      2.060908   420A      2.077962  
     421A      2.083297   422A      2.087417   423A      2.096657  
     424A      2.102862   425A      2.108661   426A      2.119122  
     427A      2.121917   428A      2.125019   429A      2.131806  
     430A      2.140417   431A      2.148763   432A      2.152571  
     433A      2.169447   434A      2.184666   435A      2.190736  
     436A      2.198387   437A      2.204084   438A      2.219692  
     439A      2.225135   440A      2.227825   441A      2.235321  
     442A      2.245426   443A      2.256940   444A      2.263200  
     445A      2.274131   446A      2.291923   447A      2.308219  
     448A      2.311061   449A      2.316207   450A      2.327707  
     451A      2.341461   452A      2.356147   453A      2.365369  
     454A      2.368906   455A      2.374835   456A      2.383577  
     457A      2.399511   458A      2.406001   459A      2.408905  
     460A      2.416118   461A      2.421753   462A      2.424644  
     463A      2.440940   464A      2.456653   465A      2.465750  
     466A      2.488859   467A      2.495686   468A      2.517366  
     469A      2.518473   470A      2.547870   471A      2.549672  
     472A      2.557855   473A      2.562724   474A      2.574727  
     475A      2.579775   476A      2.590235   477A      2.606692  
     478A      2.611283   479A      2.628808   480A      2.635279  
     481A      2.651945   482A      2.678335   483A      2.699853  
     484A      2.712041   485A      2.728046   486A      2.735162  
     487A      2.752514   488A      2.777990   489A      2.793541  
     490A      2.807028   491A      2.815932   492A      2.825574  
     493A      2.839748   494A      2.841591   495A      2.864689  
     496A      2.878421   497A      2.883986   498A      2.900172  
     499A      2.932553   500A      2.976775   501A      2.993613  
     502A      2.999147   503A      3.030656   504A      3.053515  
     505A      3.060699   506A      3.073677   507A      3.082461  
     508A      3.107611   509A      3.143996   510A      3.166249  
     511A      3.190787   512A      3.210155   513A      3.214722  
     514A      3.227954   515A      3.241573   516A      3.245639  
     517A      3.284428   518A      3.289842   519A      3.301902  
     520A      3.315448   521A      3.334239   522A      3.341956  
     523A      3.346188   524A      3.356735   525A      3.368557  
     526A      3.371900   527A      3.396785   528A      3.400461  
     529A      3.417061   530A      3.422021   531A      3.424144  
     532A      3.433647   533A      3.442775   534A      3.454971  
     535A      3.460194   536A      3.468909   537A      3.479035  
     538A      3.490471   539A      3.499531   540A      3.511979  
     541A      3.521434   542A      3.528649   543A      3.539214  
     544A      3.544061   545A      3.554514   546A      3.559530  
     547A      3.562064   548A      3.573553   549A      3.574599  
     550A      3.583205   551A      3.595713   552A      3.603017  
     553A      3.608890   554A      3.627937   555A      3.634335  
     556A      3.638766   557A      3.652484   558A      3.660613  
     559A      3.676864   560A      3.689123   561A      3.702276  
     562A      3.711752   563A      3.718566   564A      3.734726  
     565A      3.741141   566A      3.754441   567A      3.768342  
     568A      3.776113   569A      3.782166   570A      3.786951  
     571A      3.790071   572A      3.811832   573A      3.815015  
     574A      3.830793   575A      3.836406   576A      3.846120  
     577A      3.858550   578A      3.863485   579A      3.869985  
     580A      3.876447   581A      3.887009   582A      3.891351  
     583A      3.901785   584A      3.911738   585A      3.921782  
     586A      3.935054   587A      3.937032   588A      3.941436  
     589A      3.945459   590A      3.949561   591A      3.966335  
     592A      3.972259   593A      3.982995   594A      4.000614  
     595A      4.005584   596A      4.013401   597A      4.027449  
     598A      4.028229   599A      4.030300   600A      4.037827  
     601A      4.040035   602A      4.050950   603A      4.074491  
     604A      4.079660   605A      4.093279   606A      4.109145  
     607A      4.124066   608A      4.135005   609A      4.137976  
     610A      4.144188   611A      4.154526   612A      4.165599  
     613A      4.171599   614A      4.174342   615A      4.181238  
     616A      4.204711   617A      4.208331   618A      4.216664  
     619A      4.226265   620A      4.242386   621A      4.252184  
     622A      4.257762   623A      4.262322   624A      4.274604  
     625A      4.285175   626A      4.296950   627A      4.298184  
     628A      4.304395   629A      4.315632   630A      4.332507  
     631A      4.334799   632A      4.344377   633A      4.355550  
     634A      4.365725   635A      4.376353   636A      4.385889  
     637A      4.392540   638A      4.396791   639A      4.408858  
     640A      4.412130   641A      4.424480   642A      4.436610  
     643A      4.441680   644A      4.449366   645A      4.461411  
     646A      4.461832   647A      4.470923   648A      4.486858  
     649A      4.504258   650A      4.506451   651A      4.512804  
     652A      4.517360   653A      4.520480   654A      4.532477  
     655A      4.557586   656A      4.568568   657A      4.584098  
     658A      4.587746   659A      4.604669   660A      4.627703  
     661A      4.632923   662A      4.640660   663A      4.670128  
     664A      4.687659   665A      4.697968   666A      4.700482  
     667A      4.721440   668A      4.736372   669A      4.742351  
     670A      4.750897   671A      4.760822   672A      4.798233  
     673A      4.800977   674A      4.815099   675A      4.826569  
     676A      4.851253   677A      4.862061   678A      4.873420  
     679A      4.877708   680A      4.907993   681A      4.918916  
     682A      4.928765   683A      4.938606   684A      4.953723  
     685A      4.954117   686A      4.971246   687A      4.988110  
     688A      4.997406   689A      5.006237   690A      5.027608  
     691A      5.034545   692A      5.039511   693A      5.049138  
     694A      5.056573   695A      5.081557   696A      5.085262  
     697A      5.092897   698A      5.113804   699A      5.123039  
     700A      5.134174   701A      5.138625   702A      5.146292  
     703A      5.159072   704A      5.164736   705A      5.175036  
     706A      5.179500   707A      5.210714   708A      5.212850  
     709A      5.228811   710A      5.239291   711A      5.266524  
     712A      5.282853   713A      5.295449   714A      5.303988  
     715A      5.313414   716A      5.346319   717A      5.357289  
     718A      5.360378   719A      5.380693   720A      5.406591  
     721A      5.422837   722A      5.429963   723A      5.441671  
     724A      5.450856   725A      5.471395   726A      5.485181  
     727A      5.490259   728A      5.525540   729A      5.553872  
     730A      5.557624   731A      5.565498   732A      5.578051  
     733A      5.619898   734A      5.626439   735A      5.648980  
     736A      5.699609   737A      5.708569   738A      5.729952  
     739A      5.758203   740A      5.767477   741A      5.800794  
     742A      5.809676   743A      5.827296   744A      5.847288  
     745A      5.872985   746A      5.881683   747A      5.915278  
     748A      5.930341   749A      5.985478   750A      6.052323  
     751A      6.086721   752A      6.118071   753A      6.155932  
     754A      6.187844   755A      6.215396   756A      6.258818  
     757A      6.284622   758A      6.293513   759A      6.360633  
     760A      6.404751   761A      6.427649   762A      6.468354  
     763A      6.482916   764A      6.502091   765A      6.523780  
     766A      6.598289   767A      6.624748   768A      6.709241  
     769A      6.714478   770A      6.718844   771A      6.741650  
     772A      6.885602   773A      6.886540   774A      6.907622  
     775A      6.920206   776A      6.943652   777A      6.962156  
     778A      6.976421   779A      7.090228   780A      7.104846  
     781A      7.120733   782A      7.237979   783A      7.292913  
     784A      7.400482   785A      7.435884   786A      7.510515  
     787A      7.668242   788A      7.687535   789A      7.771810  
     790A      7.940442   791A      8.341982   792A      8.592807  
     793A     15.624734   794A     16.380009   795A     16.659810  
     796A     16.767407   797A     16.817469   798A     18.428943  
     799A     18.821401   800A     19.174857   801A     19.575105  
     802A     20.059666   803A     20.080662   804A     20.589024  
     805A     21.776936  

    Final Occupation by Irrep:
              A 
    DOCC [    45 ]

  Energy converged.

  @DF-RHF Final Energy:  -551.28445282788482

   => Energetics <=

    Nuclear Repulsion Energy =            698.5613333690696436
    One-Electron Energy =               -2133.8315131338144965
    Two-Electron Energy =                 883.9857269368600328
    DFT Exchange-Correlation Energy =       0.0000000000000000
    Empirical Dispersion Energy =           0.0000000000000000
    PCM Polarization Energy =               0.0000000000000000
    EFP Energy =                            0.0000000000000000
    Total Energy =                       -551.2844528278848202



Properties will be evaluated at   0.000000,   0.000000,   0.000000 Bohr

Properties computed using the SCF density matrix

  Nuclear Dipole Moment: (a.u.)
     X:    -0.3236      Y:     0.6032      Z:     1.1245

  Electronic Dipole Moment: (a.u.)
     X:    -0.2072      Y:    -0.0188      Z:    -0.1848

  Dipole Moment: (a.u.)
     X:    -0.5308      Y:     0.5844      Z:     0.9397     Total:     1.2273

  Dipole Moment: (Debye)
     X:    -1.3492      Y:     1.4853      Z:     2.3885     Total:     3.1195


*** tstop() called on gpu-1-6.local at Sun Nov 12 13:49:24 2017
Module time:
	user time   =    1068.00 seconds =      17.80 minutes
	system time =      47.00 seconds =       0.78 minutes
	total time  =        427 seconds =       7.12 minutes
Total time:
	user time   =    1068.01 seconds =      17.80 minutes
	system time =      47.00 seconds =       0.78 minutes
	total time  =        427 seconds =       7.12 minutes

  //>>>>>>>>>>>>>>>>>>>>>>>>>>>>>>>>>>>//
  //               DFMP2               //
  //<<<<<<<<<<<<<<<<<<<<<<<<<<<<<<<<<<<//

   => Loading Basis Set <=

    Name: (AUG-CC-PVTZ AUX)
    Role: RIFIT
    Keyword: DF_BASIS_MP2
    atoms 1-11  entry C          line   147 file /cbio/jclab/home/chayas/anaconda/envs/py35/share/psi4/basis/aug-cc-pvtz-ri.gbs 
    atoms 12    entry N          line   205 file /cbio/jclab/home/chayas/anaconda/envs/py35/share/psi4/basis/aug-cc-pvtz-ri.gbs 
    atoms 13    entry O          line   263 file /cbio/jclab/home/chayas/anaconda/envs/py35/share/psi4/basis/aug-cc-pvtz-ri.gbs 
    atoms 14-22 entry H          line    29 file /cbio/jclab/home/chayas/anaconda/envs/py35/share/psi4/basis/aug-cc-pvtz-ri.gbs 

	 --------------------------------------------------------
	                          DF-MP2                         
	      2nd-Order Density-Fitted Moller-Plesset Theory     
	              RMP2 Wavefunction,   8 Threads             
	                                                         
	        Rob Parrish, Justin Turney, Andy Simmonett,      
	           Ed Hohenstein, and C. David Sherrill          
	 --------------------------------------------------------

   => Auxiliary Basis Set <=

  Basis Set: (AUG-CC-PVTZ AUX)
    Blend: AUG-CC-PVTZ-RI
    Number of shells: 490
    Number of basis function: 1792
    Number of Cartesian functions: 2263
    Spherical Harmonics?: true
    Max angular momentum: 4

	 --------------------------------------------------------
	                 NBF =   805, NAUX =  1792
	 --------------------------------------------------------
	   CLASS    FOCC     OCC    AOCC    AVIR     VIR    FVIR
	   PAIRS       0      45      45     760     760       0
	 --------------------------------------------------------


         ------------------------------------------------------------
                                     CPHF                           
                                  Rob Parrish                       
         ------------------------------------------------------------

  ==> Geometry <==

    Molecular point group: c1
    Full point group: C1

    Geometry (in Angstrom), charge = 0, multiplicity = 1:

       Center              X                  Y                   Z               Mass       
    ------------   -----------------  -----------------  -----------------  -----------------
           C         -1.254569328014     0.707113076051    -0.590043893959    12.000000000000
           C         -0.261569328014     0.091113076051     1.523956106041    12.000000000000
           C         -2.332569328014     1.280113076051     0.082956106041    12.000000000000
           C         -1.339569328014     0.664113076051     2.197956106041    12.000000000000
           C          0.722430671986    -1.029886923949    -1.834043893959    12.000000000000
           C          2.158430671986    -0.506886923949     0.022956106041    12.000000000000
           C          1.825430671986    -1.585886923949    -2.461043893959    12.000000000000
           C          3.197430671986    -1.085886923949    -0.687043893959    12.000000000000
           C         -0.218569328014     0.112113076051     0.129956106041    12.000000000000
           C          0.900430671986    -0.481886923949    -0.568043893959    12.000000000000
           C         -2.375569328014     1.259113076051     1.476956106041    12.000000000000
           N          3.062430671986    -1.628886923949    -1.918043893959    14.003074004780
           O         -3.427569328014     1.819113076051     2.133956106041    15.994914619560
           H         -1.235569328014     0.731113076051    -1.677043893959     1.007825032070
           H          0.538430671986    -0.368886923949     2.099956106041     1.007825032070
           H         -3.136569328014     1.742113076051    -0.484043893959     1.007825032070
           H         -1.367569328014     0.645113076051     3.283956106041     1.007825032070
           H         -0.244569328014    -1.028886923949    -2.328043893959     1.007825032070
           H          2.335430671986    -0.089886923949     1.008956106041     1.007825032070
           H          1.739430671986    -2.024886923949    -3.450043893959     1.007825032070
           H          4.197430671986    -1.131886923949    -0.270043893959     1.007825032070
           H         -3.144569328014     2.155113076051     2.998956106041     1.007825032070

  Nuclear repulsion =  698.561333369069644
  Reference energy  = -551.284452827884820

  ==> Basis Set <==

  Basis Set: AUG-CC-PVTZ
    Blend: AUG-CC-PVTZ
    Number of shells: 263
    Number of basis function: 805
    Number of Cartesian functions: 940
    Spherical Harmonics?: true
    Max angular momentum: 3

  ==> CGRSolver (by Rob Parrish) <==

   Number of roots    =         1
   Preconditioning    =    JACOBI
   Convergence cutoff =     1E-06
   Maximum iterations =       100

  ==> CPHFRHamiltonian (by Rob Parrish) <== 

  ==> DFJK: Density-Fitted J/K Matrices <==

    J tasked:                  Yes
    K tasked:                  Yes
    wK tasked:                  No
    OpenMP threads:              8
    Integrals threads:           8
    Memory (MB):              3576
    Algorithm:                Disk
    Integral Cache:           NONE
    Schwarz Cutoff:          1E-12
    Fitting Condition:       1E-12

   => Auxiliary Basis Set <=

  Basis Set: (AUG-CC-PVTZ AUX)
    Blend: AUG-CC-PVTZ-JKFIT
    Number of shells: 516
    Number of basis function: 1766
    Number of Cartesian functions: 2198
    Spherical Harmonics?: true
    Max angular momentum: 4

  ==> CPHF Iterations <==

  => Iterations <=

             Iter  Converged  Remaining    Residual
  CGR           1          0          1   9.007E-02
  CGR           2          0          1   3.710E-02
  CGR           3          0          1   2.591E-02
  CGR           4          0          1   1.042E-02
  CGR           5          0          1   4.122E-03
  CGR           6          0          1   1.733E-03
  CGR           7          0          1   4.968E-04
  CGR           8          0          1   1.655E-04
  CGR           9          0          1   8.326E-05
  CGR          10          0          1   3.820E-05
  CGR          11          0          1   1.407E-05
  CGR          12          0          1   5.095E-06
  CGR          13          0          1   1.508E-06
  CGR          14          1          0   4.950E-07

    CGRSolver converged.

  ==> DFCorrGrad: Density-Fitted Correlated Gradients <==

    OpenMP threads:              8
    Integrals threads:           8
    Memory (MB):              3576
    Schwarz Cutoff:          0E+00
    Fitting Condition:       1E-12

   => Auxiliary Basis Set <=

  Basis Set: (AUG-CC-PVTZ AUX)
    Blend: AUG-CC-PVTZ-JKFIT
    Number of shells: 516
    Number of basis function: 1766
    Number of Cartesian functions: 2198
    Spherical Harmonics?: true
    Max angular momentum: 4

	-----------------------------------------------------------
	 ==================> DF-MP2 Energies <==================== 
	-----------------------------------------------------------
	 Reference Energy          =    -551.2844528278848202 [Eh]
	 Singles Energy            =      -0.0000000000000002 [Eh]
	 Same-Spin Energy          =      -0.6051229248766550 [Eh]
	 Opposite-Spin Energy      =      -1.8308050472141169 [Eh]
	 Correlation Energy        =      -2.4359279720907718 [Eh]
	 Total Energy              =    -553.7203807999756009 [Eh]
	-----------------------------------------------------------
	 ================> DF-SCS-MP2 Energies <================== 
	-----------------------------------------------------------
	 SCS Same-Spin Scale       =       0.3333333333333333 [-]
	 SCS Opposite-Spin Scale   =       1.2000000000000000 [-]
	 SCS Same-Spin Energy      =      -0.2017076416255517 [Eh]
	 SCS Opposite-Spin Energy  =      -2.1969660566569402 [Eh]
	 SCS Correlation Energy    =      -2.3986736982824919 [Eh]
	 SCS Total Energy          =    -553.6831265261672570 [Eh]
	-----------------------------------------------------------


  -Total Gradient:
     Atom            X                  Y                   Z
    ------   -----------------  -----------------  -----------------
       1        0.009836779657    -0.001312789747    -0.008987390632
       2        0.008214228807    -0.007341850144    -0.005269372247
       3        0.001885538966     0.001162618295     0.002516874342
       4       -0.007000697166     0.002985968254     0.006100283694
       5       -0.009843694181     0.001481204543     0.002168356567
       6       -0.005032606653     0.006304475614     0.007154915293
       7       -0.012734814118     0.002142210953    -0.000214088330
       8       -0.003061658927     0.006979010049     0.010972011890
       9        0.002601684702    -0.001284342851    -0.001853799210
      10        0.004322195284    -0.001993686589    -0.002134819207
      11       -0.010864005917     0.001474636050    -0.005131760837
      12        0.012460631737    -0.006976390435    -0.008115615591
      13        0.006349210928    -0.008517268670    -0.000705763065
      14       -0.001215255795    -0.001303954143    -0.006577234173
      15        0.005265877040    -0.000992725329     0.004288424087
      16       -0.003013092423     0.001013294770    -0.005361073799
      17        0.001540741388    -0.000122820283     0.004153446701
      18       -0.004517353083     0.001225626022    -0.003967217168
      19        0.001094369649     0.000270623899     0.005513260188
      20        0.000493536110    -0.001041135314    -0.002871749657
      21        0.002295459537    -0.000743772555     0.000439505208
      22        0.000922924443     0.006591067612     0.007882805960


*** tstop() called on gpu-1-6.local at Sun Nov 12 14:21:52 2017
Module time:
	user time   =    5240.46 seconds =      87.34 minutes
	system time =     106.58 seconds =       1.78 minutes
	total time  =       2375 seconds =      39.58 minutes
Total time:
	user time   =    5240.47 seconds =      87.34 minutes
	system time =     106.58 seconds =       1.78 minutes
	total time  =       2375 seconds =      39.58 minutes

			-----------------------------------------
			 OPTKING 2.0: for geometry optimizations 
			  - R.A. King,  Bethel University        
			-----------------------------------------

	Internal coordinates to be generated automatically.
	Detected frag 1 with atoms:  1 2 3 4 5 6 7 8 9 10 11 12 13 14 15 16 17 18 19 20
	 21 22
	---Fragment 1 Bond Connectivity---
	 1 : 3 9 14
	 2 : 4 9 15
	 3 : 1 11 16
	 4 : 2 11 17
	 5 : 7 10 18
	 6 : 8 10 19
	 7 : 5 12 20
	 8 : 6 12 21
	 9 : 1 2 10
	 10 : 5 6 9
	 11 : 3 4 13
	 12 : 7 8
	 13 : 11 22
	 14 : 1
	 15 : 2
	 16 : 3
	 17 : 4
	 18 : 5
	 19 : 6
	 20 : 7
	 21 : 8
	 22 : 13

	Assuming in current code that numbering for constraints corresponds to unified fragment.
	Fixed dihedral atom list: 
	     3    11    13    22
	---Fragment 1 Geometry and Gradient---
	 C          -2.3707924447        1.3362500587       -1.1150213660
	 C          -0.4942943947        0.1721787609        2.8798596790
	 C          -4.4079172159        2.4190631329        0.1567643215
	 C          -2.5314191660        1.2549918350        4.1535350925
	 C           1.3651961200       -1.9462042341       -3.4658406753
	 C           4.0788428469       -0.9578774666        0.0433807535
	 C           3.4495640446       -2.9968919640       -4.6506989606
	 C           6.0422682989       -2.0520288975       -1.2983248009
	 C          -0.4130361710        0.2118630097        0.2455814497
	 C           1.7015673717       -0.9106343133       -1.0734473910
	 C          -4.4891754396        2.3793788841        2.7910425507
	 N           5.7871552710       -3.0781501877       -3.6245776704
	 O          -6.4771673314        3.4376255185        4.0325926200
	 H          -2.3348876481        1.3816034859       -3.1691536724
	 H           1.0174865116       -0.6970952603        3.9683419315
	 H          -5.9272570268        3.2921166063       -0.9147103959
	 H          -2.5843314977        1.2190870385        6.2057776728
	 H          -0.4621690505       -1.9443145080       -4.3993653849
	 H           4.4133243724       -0.1698616692        1.9066507205
	 H           3.2870475972       -3.8264817363       -6.5196381060
	 H           7.9319944318       -2.1389562997       -0.5103090034
	 H          -5.9423748358        4.0725734991        5.6672057250
	             0.0098367797       -0.0013127897       -0.0089873906
	             0.0082142288       -0.0073418501       -0.0052693722
	             0.0018855390        0.0011626183        0.0025168743
	            -0.0070006972        0.0029859683        0.0061002837
	            -0.0098436942        0.0014812045        0.0021683566
	            -0.0050326067        0.0063044756        0.0071549153
	            -0.0127348141        0.0021422110       -0.0002140883
	            -0.0030616589        0.0069790100        0.0109720119
	             0.0026016847       -0.0012843429       -0.0018537992
	             0.0043221953       -0.0019936866       -0.0021348192
	            -0.0108640059        0.0014746360       -0.0051317608
	             0.0124606317       -0.0069763904       -0.0081156156
	             0.0063492109       -0.0085172687       -0.0007057631
	            -0.0012152558       -0.0013039541       -0.0065772342
	             0.0052658770       -0.0009927253        0.0042884241
	            -0.0030130924        0.0010132948       -0.0053610738
	             0.0015407414       -0.0001228203        0.0041534467
	            -0.0045173531        0.0012256260       -0.0039672172
	             0.0010943696        0.0002706239        0.0055132602
	             0.0004935361       -0.0010411353       -0.0028717497
	             0.0022954595       -0.0007437726        0.0004395052
	             0.0009229244        0.0065910676        0.0078828060

	Previous optimization step data not found.  Starting new optimization.

	---Fragment 1 Intrafragment Coordinates---
	 - Coordinate -           - BOHR/RAD -       - ANG/DEG -
	 R(1,3)           =         2.634350	       1.394038
	 R(1,9)           =         2.635962	       1.394891
	 R(1,14)          =         2.054947	       1.087431
	 R(2,4)           =         2.635263	       1.394521
	 R(2,9)           =         2.635830	       1.394821
	 R(2,15)          =         2.055702	       1.087831
	 R(3,11)          =         2.635830	       1.394821
	 R(3,16)          =         2.053941	       1.086899
	 R(4,11)          =         2.636938	       1.395407
	 R(4,17)          =         2.053239	       1.086527
	 R(5,7)           =         2.617713	       1.385234
	 R(5,10)          =         2.628516	       1.390951
	 R(5,18)          =         2.052008	       1.085876
	 R(6,8)           =         2.617705	       1.385230
	 R(6,10)          =         2.626971	       1.390133
	 R(6,19)          =         2.050517	       1.085087
	 R(7,12)          =         2.554185	       1.351616
	 R(7,20)          =         2.051235	       1.085467
	 R(8,12)          =         2.555281	       1.352196
	 R(8,21)          =         2.049290	       1.084438
	 R(9,10)          =         2.733384	       1.446444
	 R(11,13)         =         2.571662	       1.360865
	 R(13,22)         =         1.833336	       0.970160
	 B(1,3,11)        =         2.094553	     120.009056
	 B(1,3,16)        =         2.088505	     119.662516
	 B(1,9,2)         =         2.093692	     119.959722
	 B(1,9,10)        =         2.095161	     120.043881
	 B(2,4,11)        =         2.093699	     119.960108
	 B(2,4,17)        =         2.089577	     119.723926
	 B(2,9,10)        =         2.094332	     119.996376
	 B(3,1,9)         =         2.094940	     120.031219
	 B(3,1,14)        =         2.079469	     119.144799
	 B(3,11,4)        =         2.094306	     119.994870
	 B(3,11,13)       =         2.094549	     120.008801
	 B(4,2,9)         =         2.095181	     120.045019
	 B(4,2,15)        =         2.078675	     119.099297
	 B(4,11,13)       =         2.094331	     119.996326
	 B(5,7,12)        =         2.164774	     124.032419
	 B(5,7,20)        =         2.107900	     120.773750
	 B(5,10,6)        =         2.089402	     119.713913
	 B(5,10,9)        =         2.096711	     120.132663
	 B(6,8,12)        =         2.164670	     124.026428
	 B(6,8,21)        =         2.108649	     120.816676
	 B(6,10,9)        =         2.097073	     120.153413
	 B(7,5,10)        =         2.058056	     117.917911
	 B(7,5,18)        =         2.098486	     120.234396
	 B(7,12,8)        =         2.031222	     116.380442
	 B(8,6,10)        =         2.058246	     117.928826
	 B(8,6,19)        =         2.099051	     120.266760
	 B(9,1,14)        =         2.108776	     120.823969
	 B(9,2,15)        =         2.109330	     120.855683
	 B(10,5,18)       =         2.126643	     121.847689
	 B(10,6,19)       =         2.125888	     121.804412
	 B(11,3,16)       =         2.100127	     120.328425
	 B(11,4,17)       =         2.099910	     120.315955
	 B(11,13,22)      =         1.925668	     110.332626
	 B(12,7,20)       =         2.010511	     115.193804
	 B(12,8,21)       =         2.009864	     115.156734
	 D(1,3,11,4)      =        -0.000325	      -0.018609
	 D(1,3,11,13)     =         3.140978	     179.964785
	 D(1,9,2,4)       =         0.000325	       0.018608
	 D(1,9,2,15)      =        -3.141497	    -179.994534
	 D(1,9,10,5)      =        -0.524224	     -30.035797
	 D(1,9,10,6)      =         2.616694	     149.925506
	 D(2,4,11,3)      =         0.000301	       0.017261
	 D(2,4,11,13)     =        -3.141002	    -179.966135
	 D(2,9,1,3)       =        -0.000348	      -0.019945
	 D(2,9,1,14)      =        -3.141221	    -179.978731
	 D(2,9,10,5)      =         2.618285	     150.016707
	 D(2,9,10,6)      =        -0.523983	     -30.021991
	 D(3,1,9,10)      =        -3.141025	    -179.967461
	 D(3,11,4,17)     =         3.141223	     179.978848
	 D(3,11,13,22)    =        -2.617715	    -149.984008
	 D(4,2,9,10)      =         3.141002	     179.966149
	 D(4,11,3,16)     =         3.141593	     180.000000
	 D(4,11,13,22)    =         0.523588	      29.999386
	 D(5,7,12,8)      =        -0.001332	      -0.076323
	 D(5,10,6,8)      =         0.000381	       0.021838
	 D(5,10,6,19)     =        -3.140989	    -179.965395
	 D(6,8,12,7)      =         0.001671	       0.095732
	 D(6,10,5,7)      =        -0.000077	      -0.004437
	 D(6,10,5,18)     =        -3.141299	    -179.983151
	 D(7,5,10,9)      =         3.140843	     179.957036
	 D(7,12,8,21)     =         3.140716	     179.949799
	 D(8,6,10,9)      =        -3.140539	    -179.939628
	 D(8,12,7,20)     =         3.139212	     179.863574
	 D(9,1,3,11)      =         0.000348	       0.019955
	 D(9,1,3,16)      =        -3.141571	    -179.998735
	 D(9,2,4,11)      =        -0.000301	      -0.017270
	 D(9,2,4,17)      =        -3.141228	    -179.979086
	 D(9,10,5,18)     =        -0.000378	      -0.021678
	 D(9,10,6,19)     =         0.001277	       0.073140
	 D(10,5,7,12)     =         0.000580	       0.033223
	 D(10,5,7,20)     =        -3.139908	    -179.903478
	 D(10,6,8,12)     =        -0.001235	      -0.070741
	 D(10,6,8,21)     =        -3.140143	    -179.916933
	 D(10,9,1,14)     =         0.001287	       0.073752
	 D(10,9,2,15)     =        -0.000820	      -0.046992
	 D(11,3,1,14)     =         3.141234	     179.979432
	 D(11,4,2,15)     =         3.141517	     179.995641
	 D(12,7,5,18)     =        -3.141378	    -179.987706
	 D(12,8,6,19)     =         3.140139	     179.916697
	 D(13,11,3,16)    =        -0.000286	      -0.016400
	 D(13,11,4,17)    =        -0.000079	      -0.004548
	 D(14,1,3,16)     =        -0.000685	      -0.039257
	 D(15,2,4,17)     =         0.000590	       0.033826
	 D(18,5,7,20)     =         0.001319	       0.075593
	 D(19,6,8,21)     =         0.001231	       0.070505

	Current energy   :      -553.7203808000

	Generating empirical Hessian (Schlegel '84) for each fragment.
	Adding user-defined constraint: Fragment 1; Coordinate 73:
		Value =    -2.617715; Fixed value    =    -2.617994
		Force =    -0.000140; Force constant =     0.500000
	Removing off-diagonal coupling between coordinate 73 and others.
	Taking RFO optimization step.
	Going to follow RFO solution 1.
	Using RFO vector 1.

	Determining step-restricting scale parameter for RS-RFO.
	Maximum step size allowed    0.10000

	 Iter      |step|        alpha        rfo_root  
	------------------------------------------------
	    0     0.26527       1.00000           1
	    1     0.18747       3.71210           1
	    2     0.14424      10.00079           1
	    3     0.11733      21.95602           1
	    4     0.10378      33.76654           1
	    5     0.10024      37.91831           1
	    6     0.10000      38.21490           1
	------------------------------------------------
	Norm of target step-size    0.10000
	Projected energy change by RFO approximation:        -0.0047277072

	Back-transformation to cartesian coordinates...
	Could not converge backtransformation.
	Using first guess instead.

	--- Internal Coordinate Step in ANG or DEG, aJ/ANG or AJ/DEG ---
	 ---------------------------------------------------------------------------
	   Coordinate                Previous        Force       Change         New 
	   ----------                --------       ------       ------       ------
	    1 R(1,3)          =      1.394038    -0.056744    -0.005656     1.388382
	    2 R(1,9)          =      1.394891    -0.000845     0.000188     1.395079
	    3 R(1,14)         =      1.087431    -0.053754    -0.006441     1.080990
	    4 R(2,4)          =      1.394521    -0.061242    -0.006052     1.388469
	    5 R(2,9)          =      1.394821    -0.009223    -0.000690     1.394131
	    6 R(2,15)         =      1.087831    -0.054071    -0.006495     1.081336
	    7 R(3,11)         =      1.394821    -0.083578    -0.008448     1.386374
	    8 R(3,16)         =      1.086899    -0.044953    -0.005363     1.081535
	    9 R(4,11)         =      1.395407    -0.041761    -0.004256     1.391151
	   10 R(4,17)         =      1.086527    -0.033893    -0.004052     1.082476
	   11 R(5,7)          =      1.385234     0.002009     0.000185     1.385419
	   12 R(5,10)         =      1.390951     0.003678     0.000894     1.391844
	   13 R(5,18)         =      1.085876    -0.048021    -0.005730     1.080146
	   14 R(6,8)          =      1.385230     0.001525     0.000135     1.385365
	   15 R(6,10)         =      1.390133     0.009865     0.001618     1.391751
	   16 R(6,19)         =      1.085087    -0.043602    -0.005162     1.079925
	   17 R(7,12)         =      1.351616    -0.122853    -0.011141     1.340476
	   18 R(7,20)         =      1.085467    -0.024703    -0.002936     1.082531
	   19 R(8,12)         =      1.352196    -0.126486    -0.011490     1.340706
	   20 R(8,21)         =      1.084438    -0.019092    -0.002266     1.082172
	   21 R(9,10)         =      1.446444     0.154008     0.017408     1.463852
	   22 R(11,13)        =      1.360865     0.024299     0.002518     1.363383
	   23 R(13,22)        =      0.970160    -0.078929    -0.007075     0.963085
	   24 B(1,3,11)       =    120.009056     0.000010    -0.035573   119.973483
	   25 B(1,3,16)       =    119.662516     0.000224     0.524270   120.186786
	   26 B(1,9,2)        =    119.959722    -0.000798    -1.366245   118.593477
	   27 B(1,9,10)       =    120.043881     0.000401     0.687622   120.731504
	   28 B(2,4,11)       =    119.960108     0.000131     0.207673   120.167781
	   29 B(2,4,17)       =    119.723926     0.000049     0.149169   119.873095
	   30 B(2,9,10)       =    119.996376     0.000397     0.678626   120.675002
	   31 B(3,1,9)        =    120.031219     0.000477     0.892174   120.923393
	   32 B(3,1,14)       =    119.144799    -0.000202    -0.369478   118.775322
	   33 B(3,11,4)       =    119.994870    -0.000127    -0.286473   119.708398
	   34 B(3,11,13)      =    120.008801    -0.000699    -1.184869   118.823932
	   35 B(4,2,9)        =    120.045019     0.000307     0.588129   120.633148
	   36 B(4,2,15)       =    119.099297    -0.000083    -0.140900   118.958397
	   37 B(4,11,13)      =    119.996326     0.000825     1.471270   121.467596
	   38 B(5,7,12)       =    124.032419     0.000045     0.006646   124.039065
	   39 B(5,7,20)       =    120.773750    -0.000075    -0.119882   120.653868
	   40 B(5,10,6)       =    119.713913    -0.001210    -2.002177   117.711736
	   41 B(5,10,9)       =    120.132663     0.000595     0.982293   121.114956
	   42 B(6,8,12)       =    124.026428     0.000039    -0.005340   124.021088
	   43 B(6,8,21)       =    120.816676    -0.000076    -0.122607   120.694069
	   44 B(6,10,9)       =    120.153413     0.000615     1.019886   121.173298
	   45 B(7,5,10)       =    117.917911     0.000530     1.044749   118.962660
	   46 B(7,5,18)       =    120.234396    -0.000207    -0.396684   119.837712
	   47 B(7,12,8)       =    116.380442     0.000062    -0.093926   116.286516
	   48 B(8,6,10)       =    117.928826     0.000533     1.050064   118.978890
	   49 B(8,6,19)       =    120.266760    -0.000217    -0.419882   119.846878
	   50 B(9,1,14)       =    120.823969    -0.000275    -0.523546   120.300423
	   51 B(9,2,15)       =    120.855683    -0.000224    -0.448359   120.407324
	   52 B(10,5,18)      =    121.847689    -0.000323    -0.648511   121.199179
	   53 B(10,6,19)      =    121.804412    -0.000316    -0.630645   121.173767
	   54 B(11,3,16)      =    120.328425    -0.000234    -0.488703   119.839722
	   55 B(11,4,17)      =    120.315955    -0.000180    -0.356867   119.959087
	   56 B(11,13,22)     =    110.332626    -0.000368    -0.811386   109.521240
	   57 B(12,7,20)      =    115.193804     0.000030     0.113225   115.307029
	   58 B(12,8,21)      =    115.156734     0.000037     0.128109   115.284843
	   59 D(1,3,11,4)     =     -0.018609     0.000005     0.107745     0.089136
	   60 D(1,3,11,13)    =    179.964785     0.000015     0.221773   180.186559
	   61 D(1,9,2,4)      =      0.018608     0.000005     0.081186     0.099794
	   62 D(1,9,2,15)     =   -179.994534    -0.000019    -0.296492  -180.291026
	   63 D(1,9,10,5)     =    -30.035797    -0.000027    -0.473787   -30.509583
	   64 D(1,9,10,6)     =    149.925506    -0.000027    -0.470616   149.454890
	   65 D(2,4,11,3)     =      0.017261     0.000006     0.060288     0.077549
	   66 D(2,4,11,13)    =   -179.966135    -0.000005    -0.056385  -180.022520
	   67 D(2,9,1,3)      =     -0.019945     0.000006     0.088269     0.068324
	   68 D(2,9,1,14)     =   -179.978731    -0.000017    -0.294780  -180.273511
	   69 D(2,9,10,5)     =    150.016707    -0.000028    -0.477730   149.538977
	   70 D(2,9,10,6)     =    -30.021991    -0.000028    -0.474559   -30.496550
	   71 D(3,1,9,10)     =   -179.967461     0.000005     0.083352  -179.884109
	   72 D(3,11,4,17)    =    179.978848     0.000012     0.168108   180.146956
	   73 D(3,11,13,22)   =   -149.984008    -0.000022    -0.149287  -150.133295
	   74 D(4,2,9,10)     =    179.966149     0.000005     0.086106   180.052255
	   75 D(4,11,3,16)    =    180.000000     0.000006     0.122893   180.122893
	   76 D(4,11,13,22)   =     29.999386    -0.000012    -0.033474    29.965912
	   77 D(5,7,12,8)     =     -0.076323     0.000001     0.017831    -0.058492
	   78 D(5,10,6,8)     =      0.021838    -0.000000     0.000555     0.022393
	   79 D(5,10,6,19)    =   -179.965395    -0.000016    -0.260566  -180.225962
	   80 D(6,8,12,7)     =      0.095732    -0.000001    -0.014085     0.081648
	   81 D(6,10,5,7)     =     -0.004437     0.000000     0.003027    -0.001411
	   82 D(6,10,5,18)    =   -179.983151    -0.000016    -0.262336  -180.245487
	   83 D(7,5,10,9)     =    179.957036     0.000000     0.007218   179.964254
	   84 D(7,12,8,21)    =    179.949799     0.000008     0.135040   180.084839
	   85 D(8,6,10,9)     =   -179.939628    -0.000000    -0.003623  -179.943251
	   86 D(8,12,7,20)    =    179.863574     0.000009     0.148388   180.011962
	   87 D(9,1,3,11)     =      0.019955    -0.000010    -0.183192    -0.163238
	   88 D(9,1,3,16)     =   -179.998735    -0.000011    -0.198378  -180.197113
	   89 D(9,2,4,11)     =     -0.017270    -0.000010    -0.156094    -0.173365
	   90 D(9,2,4,17)     =   -179.979086    -0.000016    -0.263626  -180.242712
	   91 D(9,10,5,18)    =     -0.021678    -0.000016    -0.258144    -0.279822
	   92 D(9,10,6,19)    =      0.073140    -0.000016    -0.264745    -0.191605
	   93 D(10,5,7,12)    =      0.033223    -0.000001    -0.012770     0.020453
	   94 D(10,5,7,20)    =   -179.903478    -0.000009    -0.150107  -180.053586
	   95 D(10,6,8,12)    =     -0.070741     0.000000     0.004856    -0.065885
	   96 D(10,6,8,21)    =   -179.916933    -0.000009    -0.152307  -180.069240
	   97 D(10,9,1,14)    =      0.073752    -0.000018    -0.299697    -0.225945
	   98 D(10,9,2,15)    =     -0.046992    -0.000018    -0.291572    -0.338565
	   99 D(11,3,1,14)    =    179.979432     0.000012     0.194048   180.173480
	  100 D(11,4,2,15)    =    179.995641     0.000013     0.216220   180.211861
	  101 D(12,7,5,18)    =   -179.987706     0.000015     0.248840  -179.738866
	  102 D(12,8,6,19)    =    179.916697     0.000016     0.262406   180.179103
	  103 D(13,11,3,16)   =     -0.016400     0.000016     0.236715     0.220316
	  104 D(13,11,4,17)   =     -0.004548     0.000001     0.051435     0.046887
	  105 D(14,1,3,16)    =     -0.039257     0.000011     0.178862     0.139605
	  106 D(15,2,4,17)    =      0.033826     0.000006     0.108689     0.142514
	  107 D(18,5,7,20)    =      0.075593     0.000007     0.111502     0.187095
	  108 D(19,6,8,21)    =      0.070505     0.000006     0.105243     0.175748
	 ---------------------------------------------------------------------------
	Successfully symmetrized geometry.
	 Forces used to impose fixed constraints are not included.
	  Forces zeroed: 73 

  ==> Convergence Check <==

  Measures of convergence in internal coordinates in au.
  Criteria marked as inactive (o), active & met (*), and active & unmet ( ).
  --------------------------------------------------------------------------------------------- ~
   Step     Total Energy     Delta E     MAX Force     RMS Force      MAX Disp      RMS Disp    ~
  --------------------------------------------------------------------------------------------- ~
    Convergence Criteria    1.00e-06 *    3.00e-04 *             o    1.20e-03 *             o  ~
  --------------------------------------------------------------------------------------------- ~
      1    -553.72038080   -5.54e+02      1.87e-02      4.73e-03 o    3.49e-02      9.62e-03 o  ~
  ---------------------------------------------------------------------------------------------

	Writing optimization data to binary file.
	Structure for next step:
	Cartesian Geometry (in Angstrom)
	    C    -1.2671696334   0.7194478369  -0.5632483338
	    C    -0.2811565805   0.0975544632   1.5325860185
	    C    -2.3405708635   1.2924900522   0.1053603188
	    C    -1.3548337650   0.6666326973   2.2043093804
	    C     0.7480551038  -1.0425946478  -1.8347280772
	    C     2.1773701932  -0.5174372575  -0.0024984776
	    C     1.8490280224  -1.5985765257  -2.4657020195
	    C     3.2153628799  -1.0961717093  -0.7144485424
	    C    -0.2242361549   0.1158370365   0.1397376606
	    C     0.9067388813  -0.4848661619  -0.5694260939
	    C    -2.3873603719   1.2665952746   1.4907020849
	    N     3.0785295154  -1.6380303679  -1.9331195786
	    O    -3.4542388811   1.8329081282   2.1230574066
	    H    -1.2490311165   0.7531512582  -1.6435606976
	    H     0.5089786428  -0.3666482863   2.1065985469
	    H    -3.1411711354   1.7601238083  -0.4514849825
	    H    -1.3883935872   0.6420105053   3.2859843514
	    H    -0.2140316788  -1.0514161146  -2.3256728108
	    H     2.3643761806  -0.0977166453   0.9747948708
	    H     1.7565156903  -2.0405096016  -3.4495765033
	    H     4.2145124574  -1.1355389120  -0.3006286932
	    H    -3.1787990152   2.1652428425   2.9839985044
			--------------------------
			 OPTKING Finished Execution 
			--------------------------

    Structure for next step:
    Molecular point group: c1
    Full point group: C1

    Geometry (in Angstrom), charge = 0, multiplicity = 1:

    C           -1.267308469698     0.719212260376    -0.562955597810
    C           -0.281295416783     0.097318886685     1.532878754485
    C           -2.340709699736     1.292254475727     0.105653054728
    C           -1.354972601293     0.666397120788     2.204602116398
    C            0.747916267534    -1.042830224321    -1.834435341196
    C            2.177231356925    -0.517672834017    -0.002205741593
    C            1.848889186147    -1.598812102156    -2.465409283578
    C            3.215224043636    -1.096407285824    -0.714155806476
    C           -0.224374991166     0.115601459973     0.140030396606
    C            0.906600045036    -0.485101738404    -0.569133357922
    C           -2.387499208164     1.266359698104     1.490994820838
    N            3.078390679162    -1.638265944340    -1.932826842654
    O           -3.454377717356     1.832672551744     2.123350142525
    H           -1.249169952795     0.752915681693    -1.643267961662
    H            0.508839806530    -0.366883862779     2.106891282841
    H           -3.141309971633     1.759888231844    -0.451192246567
    H           -1.388532423453     0.641774928806     3.286277087402
    H           -0.214170515044    -1.051651691102    -2.325380074813
    H            2.364237344350    -0.097952221821     0.975087606785
    H            1.756376854006    -2.040745178058    -3.449283767298
    H            4.214373621121    -1.135774488536    -0.300335957220
    H           -3.178937851505     2.165007265993     2.984291240396

gradient() will perform analytic gradient computation.

*** tstart() called on gpu-1-6.local
*** at Sun Nov 12 14:21:53 2017

    SCF Algorithm Type (re)set to DF.

*** tstart() called on gpu-1-6.local
*** at Sun Nov 12 14:21:53 2017

   => Loading Basis Set <=

    Name: AUG-CC-PVTZ
    Role: ORBITAL
    Keyword: BASIS
    atoms 1-11  entry C          line   221 file /cbio/jclab/home/chayas/anaconda/envs/py35/share/psi4/basis/aug-cc-pvtz.gbs 
    atoms 12    entry N          line   267 file /cbio/jclab/home/chayas/anaconda/envs/py35/share/psi4/basis/aug-cc-pvtz.gbs 
    atoms 13    entry O          line   313 file /cbio/jclab/home/chayas/anaconda/envs/py35/share/psi4/basis/aug-cc-pvtz.gbs 
    atoms 14-22 entry H          line    34 file /cbio/jclab/home/chayas/anaconda/envs/py35/share/psi4/basis/aug-cc-pvtz.gbs 


         ---------------------------------------------------------
                                   SCF
            by Justin Turney, Rob Parrish, and Andy Simmonett
                              RHF Reference
                        8 Threads,   4768 MiB Core
         ---------------------------------------------------------

  ==> Geometry <==

    Molecular point group: c1
    Full point group: C1

    Geometry (in Angstrom), charge = 0, multiplicity = 1:

       Center              X                  Y                   Z               Mass       
    ------------   -----------------  -----------------  -----------------  -----------------
           C         -1.267308469698     0.719212260376    -0.562955597810    12.000000000000
           C         -0.281295416783     0.097318886685     1.532878754485    12.000000000000
           C         -2.340709699736     1.292254475727     0.105653054728    12.000000000000
           C         -1.354972601293     0.666397120788     2.204602116398    12.000000000000
           C          0.747916267534    -1.042830224321    -1.834435341196    12.000000000000
           C          2.177231356925    -0.517672834017    -0.002205741593    12.000000000000
           C          1.848889186147    -1.598812102156    -2.465409283578    12.000000000000
           C          3.215224043636    -1.096407285824    -0.714155806476    12.000000000000
           C         -0.224374991166     0.115601459973     0.140030396606    12.000000000000
           C          0.906600045036    -0.485101738404    -0.569133357922    12.000000000000
           C         -2.387499208164     1.266359698104     1.490994820838    12.000000000000
           N          3.078390679162    -1.638265944340    -1.932826842654    14.003074004780
           O         -3.454377717356     1.832672551744     2.123350142525    15.994914619560
           H         -1.249169952795     0.752915681693    -1.643267961662     1.007825032070
           H          0.508839806530    -0.366883862779     2.106891282841     1.007825032070
           H         -3.141309971633     1.759888231844    -0.451192246567     1.007825032070
           H         -1.388532423453     0.641774928806     3.286277087402     1.007825032070
           H         -0.214170515044    -1.051651691102    -2.325380074813     1.007825032070
           H          2.364237344350    -0.097952221821     0.975087606785     1.007825032070
           H          1.756376854006    -2.040745178058    -3.449283767298     1.007825032070
           H          4.214373621121    -1.135774488536    -0.300335957220     1.007825032070
           H         -3.178937851505     2.165007265993     2.984291240396     1.007825032070

  Running in c1 symmetry.

  Rotational constants: A =      0.09840  B =      0.01334  C =      0.01195 [cm^-1]
  Rotational constants: A =   2949.97084  B =    400.03348  C =    358.21193 [MHz]
  Nuclear repulsion =  697.656046416230083

  Charge       = 0
  Multiplicity = 1
  Electrons    = 90
  Nalpha       = 45
  Nbeta        = 45

  ==> Algorithm <==

  SCF Algorithm Type is DF.
  DIIS enabled.
  MOM disabled.
  Fractional occupation disabled.
  Guess Type is READ.
  Energy threshold   = 1.00e-10
  Density threshold  = 1.00e-10
  Integral threshold = 0.00e+00

  ==> Primary Basis <==

  Basis Set: AUG-CC-PVTZ
    Blend: AUG-CC-PVTZ
    Number of shells: 263
    Number of basis function: 805
    Number of Cartesian functions: 940
    Spherical Harmonics?: true
    Max angular momentum: 3

   => Loading Basis Set <=

    Name: (AUG-CC-PVTZ AUX)
    Role: JKFIT
    Keyword: DF_BASIS_SCF
    atoms 1-11  entry C          line   161 file /cbio/jclab/home/chayas/anaconda/envs/py35/share/psi4/basis/aug-cc-pvtz-jkfit.gbs 
    atoms 12    entry N          line   223 file /cbio/jclab/home/chayas/anaconda/envs/py35/share/psi4/basis/aug-cc-pvtz-jkfit.gbs 
    atoms 13    entry O          line   285 file /cbio/jclab/home/chayas/anaconda/envs/py35/share/psi4/basis/aug-cc-pvtz-jkfit.gbs 
    atoms 14-22 entry H          line    69 file /cbio/jclab/home/chayas/anaconda/envs/py35/share/psi4/basis/aug-cc-pvtz-jkfit.gbs 

  Reading orbitals from file 180, no projection.

  ==> Pre-Iterations <==

   -------------------------------------------------------
    Irrep   Nso     Nmo     Nalpha   Nbeta   Ndocc  Nsocc
   -------------------------------------------------------
     A        805     805       0       0       0       0
   -------------------------------------------------------
    Total     805     805      45      45      45       0
   -------------------------------------------------------

  ==> Integral Setup <==

  ==> DFJK: Density-Fitted J/K Matrices <==

    J tasked:                  Yes
    K tasked:                  Yes
    wK tasked:                  No
    OpenMP threads:              8
    Integrals threads:           8
    Memory (MB):              3576
    Algorithm:                Disk
    Integral Cache:           NONE
    Schwarz Cutoff:          1E-12
    Fitting Condition:       1E-12

   => Auxiliary Basis Set <=

  Basis Set: (AUG-CC-PVTZ AUX)
    Blend: AUG-CC-PVTZ-JKFIT
    Number of shells: 516
    Number of basis function: 1766
    Number of Cartesian functions: 2198
    Spherical Harmonics?: true
    Max angular momentum: 4

  Minimum eigenvalue in the overlap matrix is 6.0127176417E-07.
  Using Symmetric Orthogonalization.

  SCF Guess: Orbitals guess was supplied from a previous computation.

  ==> Iterations <==

                           Total Energy        Delta E     RMS |[F,P]|

   @DF-RHF iter   0:  -551.43725136295120   -5.51437e+02   5.18366e-04 
   @DF-RHF iter   1:  -551.28862902014055    1.48622e-01   1.58445e-04 
   @DF-RHF iter   2:  -551.28956660257290   -9.37582e-04   1.21583e-04 DIIS
   @DF-RHF iter   3:  -551.29042356132788   -8.56959e-04   1.56200e-05 DIIS
   @DF-RHF iter   4:  -551.29043835755579   -1.47962e-05   4.49070e-06 DIIS
   @DF-RHF iter   5:  -551.29044084655914   -2.48900e-06   1.43188e-06 DIIS
   @DF-RHF iter   6:  -551.29044117141393   -3.24855e-07   8.25949e-07 DIIS
   @DF-RHF iter   7:  -551.29044128322130   -1.11807e-07   2.91474e-07 DIIS
   @DF-RHF iter   8:  -551.29044131688806   -3.36668e-08   1.66256e-07 DIIS
   @DF-RHF iter   9:  -551.29044132316790   -6.27983e-09   5.62314e-08 DIIS
   @DF-RHF iter  10:  -551.29044132397473   -8.06835e-10   2.06514e-08 DIIS
   @DF-RHF iter  11:  -551.29044132404442   -6.96900e-11   6.51077e-09 DIIS
   @DF-RHF iter  12:  -551.29044132405784   -1.34150e-11   2.94054e-09 DIIS
   @DF-RHF iter  13:  -551.29044132407955   -2.17142e-11   1.66908e-09 DIIS
   @DF-RHF iter  14:  -551.29044132406659    1.29603e-11   7.81049e-10 DIIS
   @DF-RHF iter  15:  -551.29044132406705   -4.54747e-13   3.13831e-10 DIIS
   @DF-RHF iter  16:  -551.29044132407876   -1.17097e-11   9.93468e-11 DIIS

  ==> Post-Iterations <==

    Orbital Energies (a.u.)
    -----------------------

    Doubly Occupied:                                                      

       1A    -20.598325     2A    -15.560378     3A    -11.312189  
       4A    -11.272202     5A    -11.272070     6A    -11.265739  
       7A    -11.253451     8A    -11.251845     9A    -11.247819  
      10A    -11.244322    11A    -11.239680    12A    -11.235891  
      13A    -11.235662    14A     -1.415548    15A     -1.254663  
      16A     -1.174842    17A     -1.104975    18A     -1.039436  
      19A     -1.029652    20A     -1.012234    21A     -0.881289  
      22A     -0.872980    23A     -0.841345    24A     -0.812391  
      25A     -0.749798    26A     -0.725399    27A     -0.684624  
      28A     -0.664134    29A     -0.652511    30A     -0.634967  
      31A     -0.625762    32A     -0.608320    33A     -0.600596  
      34A     -0.592435    35A     -0.564919    36A     -0.546308  
      37A     -0.531603    38A     -0.521668    39A     -0.506487  
      40A     -0.491369    41A     -0.417727    42A     -0.398110  
      43A     -0.355917    44A     -0.348249    45A     -0.310735  

    Virtual:                                                              

      46A      0.021701    47A      0.029743    48A      0.032150  
      49A      0.039662    50A      0.041732    51A      0.046167  
      52A      0.054729    53A      0.057204    54A      0.061101  
      55A      0.077473    56A      0.078552    57A      0.084348  
      58A      0.088942    59A      0.091791    60A      0.095116  
      61A      0.102276    62A      0.105668    63A      0.108106  
      64A      0.109680    65A      0.112665    66A      0.115563  
      67A      0.117806    68A      0.121877    69A      0.127940  
      70A      0.130212    71A      0.132544    72A      0.134006  
      73A      0.138271    74A      0.143395    75A      0.145019  
      76A      0.149002    77A      0.149418    78A      0.153841  
      79A      0.160424    80A      0.163228    81A      0.167732  
      82A      0.172202    83A      0.176645    84A      0.181745  
      85A      0.185145    86A      0.186915    87A      0.200989  
      88A      0.204974    89A      0.211813    90A      0.215750  
      91A      0.221401    92A      0.225210    93A      0.227457  
      94A      0.236840    95A      0.239921    96A      0.242488  
      97A      0.244659    98A      0.245997    99A      0.251725  
     100A      0.256371   101A      0.262619   102A      0.263773  
     103A      0.266248   104A      0.270309   105A      0.275119  
     106A      0.279948   107A      0.284518   108A      0.289385  
     109A      0.292719   110A      0.296999   111A      0.298285  
     112A      0.303864   113A      0.306896   114A      0.307267  
     115A      0.313732   116A      0.318887   117A      0.322558  
     118A      0.327491   119A      0.328316   120A      0.333731  
     121A      0.340068   122A      0.342790   123A      0.355400  
     124A      0.358124   125A      0.362590   126A      0.366776  
     127A      0.370481   128A      0.373639   129A      0.384703  
     130A      0.391841   131A      0.393742   132A      0.399012  
     133A      0.403393   134A      0.411236   135A      0.414200  
     136A      0.419614   137A      0.424287   138A      0.428790  
     139A      0.433667   140A      0.436269   141A      0.437558  
     142A      0.438663   143A      0.442758   144A      0.446978  
     145A      0.450120   146A      0.453771   147A      0.461073  
     148A      0.462970   149A      0.463694   150A      0.470588  
     151A      0.475148   152A      0.481026   153A      0.484032  
     154A      0.485990   155A      0.490864   156A      0.493188  
     157A      0.499180   158A      0.500267   159A      0.503561  
     160A      0.506004   161A      0.509008   162A      0.511532  
     163A      0.513486   164A      0.518214   165A      0.519709  
     166A      0.526873   167A      0.529588   168A      0.530779  
     169A      0.532010   170A      0.539565   171A      0.544169  
     172A      0.546920   173A      0.549000   174A      0.553185  
     175A      0.554261   176A      0.564066   177A      0.568287  
     178A      0.570159   179A      0.580580   180A      0.587673  
     181A      0.593375   182A      0.595641   183A      0.606745  
     184A      0.611743   185A      0.613472   186A      0.619712  
     187A      0.627233   188A      0.634563   189A      0.636753  
     190A      0.646702   191A      0.653837   192A      0.658044  
     193A      0.660041   194A      0.680465   195A      0.689139  
     196A      0.690689   197A      0.692150   198A      0.698012  
     199A      0.706395   200A      0.711255   201A      0.711917  
     202A      0.720702   203A      0.723352   204A      0.727650  
     205A      0.730393   206A      0.739106   207A      0.741395  
     208A      0.751170   209A      0.753266   210A      0.757647  
     211A      0.768041   212A      0.771946   213A      0.773347  
     214A      0.779340   215A      0.797044   216A      0.798982  
     217A      0.806191   218A      0.808629   219A      0.814938  
     220A      0.819141   221A      0.828616   222A      0.835556  
     223A      0.840553   224A      0.843349   225A      0.853406  
     226A      0.858027   227A      0.863708   228A      0.870516  
     229A      0.875579   230A      0.877025   231A      0.882051  
     232A      0.886300   233A      0.893641   234A      0.898782  
     235A      0.900773   236A      0.904213   237A      0.906061  
     238A      0.907871   239A      0.912420   240A      0.918014  
     241A      0.922250   242A      0.931500   243A      0.935431  
     244A      0.947003   245A      0.949595   246A      0.950005  
     247A      0.960720   248A      0.960975   249A      0.963914  
     250A      0.970747   251A      0.972127   252A      0.976085  
     253A      0.981307   254A      0.982154   255A      0.988384  
     256A      0.997935   257A      1.003336   258A      1.005242  
     259A      1.011072   260A      1.014502   261A      1.016788  
     262A      1.024052   263A      1.027725   264A      1.029881  
     265A      1.032563   266A      1.038866   267A      1.042239  
     268A      1.045312   269A      1.047410   270A      1.050889  
     271A      1.053648   272A      1.060275   273A      1.064124  
     274A      1.075869   275A      1.077807   276A      1.086189  
     277A      1.086924   278A      1.095124   279A      1.099638  
     280A      1.101110   281A      1.102643   282A      1.103988  
     283A      1.110347   284A      1.116740   285A      1.118897  
     286A      1.122886   287A      1.125809   288A      1.140145  
     289A      1.146914   290A      1.155625   291A      1.163725  
     292A      1.165654   293A      1.168433   294A      1.172121  
     295A      1.175780   296A      1.181772   297A      1.186840  
     298A      1.188701   299A      1.190461   300A      1.197782  
     301A      1.204584   302A      1.205979   303A      1.213359  
     304A      1.216790   305A      1.217294   306A      1.218836  
     307A      1.224944   308A      1.230432   309A      1.239418  
     310A      1.255534   311A      1.260156   312A      1.268972  
     313A      1.271332   314A      1.279152   315A      1.283677  
     316A      1.291566   317A      1.294357   318A      1.301593  
     319A      1.305211   320A      1.308724   321A      1.314406  
     322A      1.318899   323A      1.328211   324A      1.332844  
     325A      1.342261   326A      1.354047   327A      1.362254  
     328A      1.370178   329A      1.370948   330A      1.379375  
     331A      1.383514   332A      1.398523   333A      1.404516  
     334A      1.413338   335A      1.424266   336A      1.425989  
     337A      1.432973   338A      1.445280   339A      1.452832  
     340A      1.454537   341A      1.461812   342A      1.475114  
     343A      1.480989   344A      1.493686   345A      1.501871  
[...]
	 B(4,2,9)         =         2.112076	     121.013022
	 B(4,2,15)        =         2.081786	     119.277545
	 B(4,11,13)       =         2.139443	     122.581036
	 B(5,7,12)        =         2.159367	     123.722589
	 B(5,7,20)        =         2.095145	     120.042988
	 B(5,10,6)        =         2.035539	     116.627787
	 B(5,10,9)        =         2.123251	     121.653331
	 B(6,8,12)        =         2.159282	     123.717739
	 B(6,8,21)        =         2.095215	     120.046949
	 B(6,10,9)        =         2.124395	     121.718882
	 B(7,5,10)        =         2.088598	     119.667862
	 B(7,5,18)        =         2.091425	     119.829840
	 B(7,12,8)        =         2.034856	     116.588648
	 B(8,6,10)        =         2.088726	     119.675175
	 B(8,6,19)        =         2.091110	     119.811774
	 B(9,1,14)        =         2.086483	     119.546663
	 B(9,2,15)        =         2.088627	     119.669537
	 B(10,5,18)       =         2.102837	     120.483672
	 B(10,6,19)       =         2.103022	     120.494267
	 B(11,3,16)       =         2.075569	     118.921345
	 B(11,4,17)       =         2.091575	     119.838442
	 B(11,13,22)      =         1.903032	     109.035723
	 B(12,7,20)       =         2.028642	     116.232652
	 B(12,8,21)       =         2.028656	     116.233398
	 D(1,3,11,4)      =         0.015600	       0.893817
	 D(1,3,11,13)     =        -3.121177	    -178.830262
	 D(1,9,2,4)       =         0.009919	       0.568289
	 D(1,9,2,15)      =         3.111124	     178.254286
	 D(1,9,10,5)      =        -0.621062	     -35.584216
	 D(1,9,10,6)      =         2.520504	     144.414266
	 D(2,4,11,3)      =         0.000234	       0.013429
	 D(2,4,11,13)     =         3.136765	     179.723376
	 D(2,9,1,3)       =         0.006167	       0.353327
	 D(2,9,1,14)      =         3.104628	     177.882088
	 D(2,9,10,5)      =         2.521946	     144.496840
	 D(2,9,10,6)      =        -0.619674	     -35.504678
	 D(3,1,9,10)      =        -3.134048	    -179.567751
	 D(3,11,4,17)     =        -3.124111	    -178.998397
	 D(3,11,13,22)    =        -2.620067	    -150.118759
	 D(4,2,9,10)      =        -3.133051	    -179.510604
	 D(4,11,3,16)     =        -3.119203	    -178.717152
	 D(4,11,13,22)    =         0.526487	      30.165486
	 D(5,7,12,8)      =        -0.001206	      -0.069106
	 D(5,10,6,8)      =        -0.001328	      -0.076102
	 D(5,10,6,19)     =         3.112699	     178.344528
	 D(6,8,12,7)      =        -0.001197	      -0.068561
	 D(6,10,5,7)      =        -0.000877	      -0.050266
	 D(6,10,5,18)     =         3.113271	     178.377264
	 D(7,5,10,9)      =         3.140690	     179.948290
	 D(7,12,8,21)     =        -3.133986	    -179.564149
	 D(8,6,10,9)      =         3.140290	     179.925344
	 D(8,12,7,20)     =        -3.134329	    -179.583850
	 D(9,1,3,11)      =        -0.018946	      -1.085515
	 D(9,1,3,16)      =         3.115700	     178.516455
	 D(9,2,4,11)      =        -0.013155	      -0.753745
	 D(9,2,4,17)      =         3.111131	     178.254652
	 D(9,10,5,18)     =        -0.028347	      -1.624181
	 D(9,10,6,19)     =        -0.028868	      -1.654027
	 D(10,5,7,12)     =         0.002265	       0.129768
	 D(10,5,7,20)     =         3.135081	     179.626935
	 D(10,6,8,12)     =         0.002497	       0.143062
	 D(10,6,8,21)     =         3.134967	     179.620360
	 D(10,9,1,14)     =        -0.035587	      -2.038990
	 D(10,9,2,15)     =        -0.031845	      -1.824607
	 D(11,3,1,14)     =        -3.117531	    -178.621395
	 D(11,4,2,15)     =        -3.114517	    -178.448677
	 D(12,7,5,18)     =        -3.112064	    -178.308156
	 D(12,8,6,19)     =        -3.111721	    -178.288461
	 D(13,11,3,16)    =         0.027206	       1.558769
	 D(13,11,4,17)    =         0.012419	       0.711550
	 D(14,1,3,16)     =         0.017114	       0.980575
	 D(15,2,4,17)     =         0.009769	       0.559720
	 D(18,5,7,20)     =         0.020752	       1.189011
	 D(19,6,8,21)     =         0.020749	       1.188837

	Current energy   :      -553.7242305314

	Energy change for the previous step:
		Projected    :        -0.0000013192
		Actual       :        -0.0000013740

	Performing BFGS update.
	Previous computed or guess Hessian on step 1.
	Steps to be used in Hessian update: 12 11
	Adding user-defined constraint: Fragment 1; Coordinate 73:
		Value =    -2.620067; Fixed value    =    -2.617990
		Force =     0.001661; Force constant =     0.800000
	Removing off-diagonal coupling between coordinate 73 and others.
	Taking RFO optimization step.
	Going to follow RFO solution 1.
	Rejecting RFO root 1 because normalization gives large value.
	Using RFO vector 2.
	Norm of target step-size    0.00239
	Projected energy change by RFO approximation:        -0.0000000509

	Back-transformation to cartesian coordinates...
	Successfully converged to displaced geometry.

	--- Internal Coordinate Step in ANG or DEG, aJ/ANG or AJ/DEG ---
	 ---------------------------------------------------------------------------
	   Coordinate                Previous        Force       Change         New 
	   ----------                --------       ------       ------       ------
	    1 R(1,3)          =      1.383924     0.000050     0.000006     1.383929
	    2 R(1,9)          =      1.394783     0.000006     0.000000     1.394783
	    3 R(1,14)         =      1.079899    -0.000125    -0.000030     1.079870
	    4 R(2,4)          =      1.385418     0.000030     0.000005     1.385422
	    5 R(2,9)          =      1.393408    -0.000035    -0.000007     1.393400
	    6 R(2,15)         =      1.079891    -0.000126    -0.000030     1.079861
	    7 R(3,11)         =      1.387370    -0.000083    -0.000017     1.387353
	    8 R(3,16)         =      1.078814    -0.000069    -0.000016     1.078798
	    9 R(4,11)         =      1.388437    -0.000004    -0.000005     1.388433
	   10 R(4,17)         =      1.080673    -0.000065    -0.000015     1.080658
	   11 R(5,7)          =      1.385564    -0.000006    -0.000002     1.385562
	   12 R(5,10)         =      1.392059    -0.000001    -0.000001     1.392058
	   13 R(5,18)         =      1.079578    -0.000115    -0.000030     1.079548
	   14 R(6,8)          =      1.385511    -0.000005    -0.000002     1.385509
	   15 R(6,10)         =      1.392059     0.000018    -0.000001     1.392058
	   16 R(6,19)         =      1.079609    -0.000119    -0.000030     1.079579
	   17 R(7,12)         =      1.335104    -0.000090    -0.000018     1.335086
	   18 R(7,20)         =      1.081130    -0.000015    -0.000005     1.081124
	   19 R(8,12)         =      1.335100    -0.000094    -0.000020     1.335080
	   20 R(8,21)         =      1.081150    -0.000009    -0.000004     1.081146
	   21 R(9,10)         =      1.461298     0.000105     0.000028     1.461325
	   22 R(11,13)        =      1.366619     0.000052     0.000025     1.366644
	   23 R(13,22)        =      0.961444    -0.000079    -0.000017     0.961426
	   24 B(1,3,11)       =    119.892131    -0.000000    -0.001462   119.890669
	   25 B(1,3,16)       =    121.185353     0.000000     0.003400   121.188753
	   26 B(1,9,2)        =    118.190443    -0.000001    -0.000387   118.190056
	   27 B(1,9,10)       =    120.922566    -0.000000    -0.000953   120.921612
	   28 B(2,4,11)       =    119.972050     0.000000    -0.000653   119.971397
	   29 B(2,4,17)       =    120.182100     0.000000     0.001708   120.183808
	   30 B(2,9,10)       =    120.886943     0.000001     0.001357   120.888300
	   31 B(3,1,9)        =    121.154343     0.000001     0.000747   121.155090
	   32 B(3,1,14)       =    119.253514     0.000000     0.005442   119.258956
	   33 B(3,11,4)       =    119.766996    -0.000000     0.001553   119.768549
	   34 B(3,11,13)      =    117.651362    -0.000000    -0.002525   117.648837
	   35 B(4,2,9)        =    121.013022     0.000000     0.000062   121.013084
	   36 B(4,2,15)       =    119.277545     0.000000     0.006294   119.283839
	   37 B(4,11,13)      =    122.581036     0.000001     0.000954   122.581990
	   38 B(5,7,12)       =    123.722589    -0.000000    -0.002173   123.720416
	   39 B(5,7,20)       =    120.042988    -0.000000     0.001869   120.044857
	   40 B(5,10,6)       =    116.627787    -0.000001     0.000314   116.628100
	   41 B(5,10,9)       =    121.653331     0.000000    -0.001419   121.651912
	   42 B(6,8,12)       =    123.717739    -0.000000    -0.002154   123.715585
	   43 B(6,8,21)       =    120.046949    -0.000000     0.001867   120.048816
	   44 B(6,10,9)       =    121.718882     0.000001     0.001105   121.719988
	   45 B(7,5,10)       =    119.667862     0.000000     0.000095   119.667957
	   46 B(7,5,18)       =    119.829840     0.000000     0.006013   119.835852
	   47 B(7,12,8)       =    116.588648     0.000000     0.003886   116.592533
	   48 B(8,6,10)       =    119.675175     0.000000     0.000111   119.675287
	   49 B(8,6,19)       =    119.811774     0.000000     0.005906   119.817680
	   50 B(9,1,14)       =    119.546663    -0.000001    -0.006521   119.540142
	   51 B(9,2,15)       =    119.669537    -0.000001    -0.005857   119.663680
	   52 B(10,5,18)      =    120.483672    -0.000001    -0.006024   120.477648
	   53 B(10,6,19)      =    120.494267    -0.000001    -0.005936   120.488331
	   54 B(11,3,16)      =    118.921345    -0.000000    -0.001786   118.919559
	   55 B(11,4,17)      =    119.838442    -0.000000    -0.001442   119.837000
	   56 B(11,13,22)     =    109.035723    -0.000001    -0.002719   109.033004
	   57 B(12,7,20)      =    116.232652     0.000000     0.000626   116.233278
	   58 B(12,8,21)      =    116.233398     0.000000     0.000660   116.234058
	   59 D(1,3,11,4)     =      0.893817    -0.000001     0.005939     0.899756
	   60 D(1,3,11,13)    =   -178.830262     0.000001     0.010128  -178.820134
	   61 D(1,9,2,4)      =      0.568289    -0.000000    -0.016293     0.551995
	   62 D(1,9,2,15)     =    178.254286    -0.000000    -0.001646   178.252640
	   63 D(1,9,10,5)     =    -35.584216     0.000000    -0.010401   -35.594617
	   64 D(1,9,10,6)     =    144.414266     0.000000    -0.010996   144.403270
	   65 D(2,4,11,3)     =      0.013429     0.000001     0.001459     0.014888
	   66 D(2,4,11,13)    =    179.723376    -0.000001    -0.002954   179.720422
	   67 D(2,9,1,3)      =      0.353327     0.000000     0.023860     0.377187
	   68 D(2,9,1,14)     =    177.882088     0.000000     0.014988   177.897076
	   69 D(2,9,10,5)     =    144.496840    -0.000000    -0.025926   144.470914
	   70 D(2,9,10,6)     =    -35.504678    -0.000000    -0.026520   -35.531198
	   71 D(3,1,9,10)     =   -179.567751    -0.000000     0.008743  -179.559008
	   72 D(3,11,4,17)    =   -178.998397     0.000001     0.026984  -178.971413
	   73 D(3,11,13,22)   =   -150.118759    -0.000005    -0.014482  -150.133241
	   74 D(4,2,9,10)     =   -179.510604     0.000000    -0.001184  -179.511788
	   75 D(4,11,3,16)    =   -178.717152    -0.000001    -0.020100  -178.737252
	   76 D(4,11,13,22)   =     30.165486    -0.000003    -0.010168    30.155317
	   77 D(5,7,12,8)     =     -0.069106     0.000000     0.012534    -0.056572
	   78 D(5,10,6,8)     =     -0.076102     0.000000     0.013973    -0.062129
	   79 D(5,10,6,19)    =    178.344528     0.000000     0.017443   178.361971
	   80 D(6,8,12,7)     =     -0.068561     0.000000     0.017926    -0.050635
	   81 D(6,10,5,7)     =     -0.050266     0.000000     0.013983    -0.036283
	   82 D(6,10,5,18)    =    178.377264     0.000000     0.017596   178.394860
	   83 D(7,5,10,9)     =    179.948290     0.000000     0.013417   179.961707
	   84 D(7,12,8,21)    =   -179.564149    -0.000000    -0.033830  -179.597979
	   85 D(8,6,10,9)     =    179.925344     0.000000     0.014540   179.939883
	   86 D(8,12,7,20)    =   -179.583850    -0.000000    -0.033807  -179.617657
	   87 D(9,1,3,11)     =     -1.085515     0.000000    -0.018945    -1.104460
	   88 D(9,1,3,16)     =    178.516455     0.000000     0.007676   178.524132
	   89 D(9,2,4,11)     =     -0.753745    -0.000000     0.003918    -0.749827
	   90 D(9,2,4,17)     =    178.254652    -0.000000    -0.021728   178.232924
	   91 D(9,10,5,18)    =     -1.624181     0.000000     0.017030    -1.607151
	   92 D(9,10,6,19)    =     -1.654027     0.000000     0.018009    -1.636017
	   93 D(10,5,7,12)    =      0.129768    -0.000000    -0.028767     0.101001
	   94 D(10,5,7,20)    =    179.626935     0.000000     0.019246   179.646181
	   95 D(10,6,8,12)    =      0.143062    -0.000000    -0.031598     0.111465
	   96 D(10,6,8,21)    =    179.620360     0.000000     0.022029   179.642389
	   97 D(10,9,1,14)    =     -2.038990     0.000000    -0.000129    -2.039119
	   98 D(10,9,2,15)    =     -1.824607    -0.000000     0.013463    -1.811144
	   99 D(11,3,1,14)    =   -178.621395     0.000000    -0.009808  -178.631202
	  100 D(11,4,2,15)    =   -178.448677    -0.000000    -0.010398  -178.459075
	  101 D(12,7,5,18)    =   -178.308156    -0.000000    -0.032165  -178.340321
	  102 D(12,8,6,19)    =   -178.288461    -0.000000    -0.034856  -178.323317
	  103 D(13,11,3,16)   =      1.558769     0.000001    -0.015911     1.542858
	  104 D(13,11,4,17)   =      0.711550    -0.000001     0.022571     0.734121
	  105 D(14,1,3,16)    =      0.980575     0.000000     0.016814     0.997390
	  106 D(15,2,4,17)    =      0.559720    -0.000000    -0.036044     0.523676
	  107 D(18,5,7,20)    =      1.189011     0.000000     0.015848     1.204859
	  108 D(19,6,8,21)    =      1.188837     0.000000     0.018771     1.207608
	 ---------------------------------------------------------------------------
	Successfully symmetrized geometry.
	 Forces used to impose fixed constraints are not included.
	  Forces zeroed: 73 

  ==> Convergence Check <==

  Measures of convergence in internal coordinates in au.
  Criteria marked as inactive (o), active & met (*), and active & unmet ( ).
  ---------------------------------------------------------------------------------------------
   Step     Total Energy     Delta E     MAX Force     RMS Force      MAX Disp      RMS Disp   
  ---------------------------------------------------------------------------------------------
    Convergence Criteria    1.00e-06 *    3.00e-04 *             o    1.20e-03 *             o
  ---------------------------------------------------------------------------------------------
     13    -553.72423053   -1.37e-06      1.57e-04 *    2.23e-05 o    6.29e-04 *    2.30e-04 o  ~
  ---------------------------------------------------------------------------------------------


  **** Optimization is complete! (in 13 steps) ****

  ==> Optimization Summary <==

  Measures of convergence in internal coordinates in au.
  --------------------------------------------------------------------------------------------------------------- ~
   Step         Total Energy             Delta E       MAX Force       RMS Force        MAX Disp        RMS Disp  ~
  --------------------------------------------------------------------------------------------------------------- ~
      1    -553.720380799976   -553.720380799976      0.01869314      0.00473090      0.03494457      0.00961588  ~
      2    -553.723474103129     -0.003093303153      0.00524774      0.00150360      0.02024970      0.00961045  ~
      3    -553.724129737782     -0.000655634654      0.00083943      0.00030514      0.04195986      0.00959984  ~
      4    -553.724225167736     -0.000095429954      0.00053786      0.00018441      0.01815563      0.00375145  ~
      5    -553.724238041488     -0.000012873752      0.00033081      0.00006201      0.00851083      0.00180963  ~
      6    -553.724240462622     -0.000002421134      0.00026448      0.00004142      0.00177323      0.00050571  ~
      7    -553.724237376247      0.000003086375      0.00008380      0.00001893      0.00182964      0.00048189  ~
      8    -553.724236365104      0.000001011143      0.00006772      0.00001886      0.00368313      0.00092814  ~
      9    -553.724235197036      0.000001168067      0.00010269      0.00003552      0.01983505      0.00506163  ~
     10    -553.724178674657      0.000056522380      0.00122086      0.00027435      0.01533424      0.00395133  ~
     11    -553.724235278653     -0.000056603997      0.00014658      0.00003130      0.00402627      0.00106549  ~
     12    -553.724229157397      0.000006121256      0.00035741      0.00005385      0.00177094      0.00047779  ~
     13    -553.724230531379     -0.000001373981      0.00026044      0.00003354      0.00062908      0.00022987  ~
  --------------------------------------------------------------------------------------------------------------- ~

	Writing optimization data to binary file.
	Final energy is   -553.7242305313786
	Final (previous) structure:
	Cartesian Geometry (in Angstrom)
	    C    -1.2415331043   0.7652184390  -0.5603650350
	    C    -0.3169096431   0.0607821414   1.5305872183
	    C    -2.3119760249   1.3424602571   0.1000808347
	    C    -1.3946978735   0.6196131923   2.1980171101
	    C     0.7578882627  -1.0919965846  -1.8023467085
	    C     2.1918165677  -0.4708935219  -0.0216797463
	    C     1.8605255560  -1.6466759531  -2.4318783292
	    C     3.2349722334  -1.0534109547  -0.7232072666
	    C    -0.2244602150   0.1183413877   0.1414415411
	    C     0.9082967819  -0.4813014115  -0.5604707280
	    C    -2.3958762574   1.2627292221   1.4826139763
	    N     3.0914091063  -1.6381839398  -1.9148122921
	    O    -3.4845700481   1.8273929625   2.0855631184
	    H    -1.1748640737   0.8527789093  -1.6346418656
	    H     0.4425928701  -0.4587036077   2.0957908903
	    H    -3.0867564047   1.8634102576  -0.4404426801
	    H    -1.4669700143   0.5426518736   3.2735206744
	    H    -0.2149193356  -1.1584942112  -2.2657181044
	    H     2.3843809061   0.0095317006   0.9257730312
	    H     1.7495377843  -2.1277665882  -3.3936865486
	    H     4.2353189905  -1.0433457257  -0.3132182400
	    H    -3.2358304400   2.1274058970   2.9644798376
	Saving final (previous) structure.
			--------------------------
			 OPTKING Finished Execution 
			--------------------------

    Final optimized geometry and variables:
    Molecular point group: c1
    Full point group: C1

    Geometry (in Angstrom), charge = 0, multiplicity = 1:

    C           -1.241533104255     0.765218439014    -0.560365034985
    C           -0.316909643141     0.060782141367     1.530587218322
    C           -2.311976024854     1.342460257079     0.100080834699
    C           -1.394697873461     0.619613192339     2.198017110128
    C            0.757888262749    -1.091996584568    -1.802346708533
    C            2.191816567665    -0.470893521936    -0.021679746342
    C            1.860525555973    -1.646675953116    -2.431878329242
    C            3.234972233391    -1.053410954693    -0.723207266556
    C           -0.224460214965     0.118341387733     0.141441541125
    C            0.908296781893    -0.481301411532    -0.560470727957
    C           -2.395876257406     1.262729222120     1.482613976344
    N            3.091409106325    -1.638183939836    -1.914812292065
    O           -3.484570048101     1.827392962492     2.085563118387
    H           -1.174864073677     0.852778909283    -1.634641865566
    H            0.442592870074    -0.458703607713     2.095790890258
    H           -3.086756404735     1.863410257634    -0.440442680126
    H           -1.466970014344     0.542651873551     3.273520674440
    H           -0.214919335633    -1.158494211187    -2.265718104372
    H            2.384380906055     0.009531700608     0.925773031231
    H            1.749537784343    -2.127766588214    -3.393686548573
    H            4.235318990485    -1.043345725685    -0.313218239965
    H           -3.235830439974     2.127405897028     2.964479837566

	Cleaning optimization helper files.

*** Psi4 exiting successfully. Buy a developer a beer!
