
    -----------------------------------------------------------------------
          Psi4: An Open-Source Ab Initio Electronic Structure Package
                               Psi4 1.1 release

                         Git: Rev {HEAD} add49b9 


    R. M. Parrish, L. A. Burns, D. G. A. Smith, A. C. Simmonett,
    A. E. DePrince III, E. G. Hohenstein, U. Bozkaya, A. Yu. Sokolov,
    R. Di Remigio, R. M. Richard, J. F. Gonthier, A. M. James,
    H. R. McAlexander, A. Kumar, M. Saitow, X. Wang, B. P. Pritchard,
    P. Verma, H. F. Schaefer III, K. Patkowski, R. A. King, E. F. Valeev,
    F. A. Evangelista, J. M. Turney, T. D. Crawford, and C. D. Sherrill,
    J. Chem. Theory Comput. in press (2017).
    (doi: 10.1021/acs.jctc.7b00174)

    -----------------------------------------------------------------------


    Psi4 started on: Sunday, 12 November 2017 03:27PM

    Process ID:  31792
    PSIDATADIR: /cbio/jclab/home/chayas/anaconda/envs/py35/share/psi4
    Memory:     500.0 MiB
    Threads:    8
    
  ==> Input File <==

--------------------------------------------------------------------------

memory 5 Gb

molecule phepyrOH_zwitterion {
  symmetry C1
  0 1 
  C      1.885   -1.036   -0.112
  C      2.878   -1.652   2.002
  C      0.807   -0.463   0.561
  C      1.800   -1.079   2.676
  C      5.073   -2.819   0.628
  C      4.084   -2.206   -1.481
  C      6.134   -3.381   -0.068
  C      5.170   -2.783   -2.123
  C      2.921   -1.631   0.608
  C      4.040   -2.226   -0.090
  C      0.764   -0.484   1.955
  N      6.152   -3.348   -1.407
  O      -0.227   0.042   2.574
  H      1.904   -1.011   -1.199
  H      3.678   -2.112   2.577
  H      0.011   -0.006   -0.025
  H      1.791   -1.108   3.764
  H      5.065   -2.850   1.714
  H      3.292   -1.749   -2.067
  H      6.978   -3.863   0.406
  H      5.288   -2.814   -3.198
  H      6.941   -3.766   -1.899
  units Angstrom
}

dih_string = "1 9 10 5 180.001"
set optking fixed_dihedral = $dih_string

optimize('MP2/aug-cc-PVTZ')
--------------------------------------------------------------------------

  Memory set to   4.657 GiB by Python driver.
gradient() will perform analytic gradient computation.

*** tstart() called on gpu-1-8.local
*** at Sun Nov 12 15:27:00 2017

    SCF Algorithm Type (re)set to DF.

*** tstart() called on gpu-1-8.local
*** at Sun Nov 12 15:27:00 2017

   => Loading Basis Set <=

    Name: AUG-CC-PVTZ
    Role: ORBITAL
    Keyword: BASIS
    atoms 1-11  entry C          line   221 file /cbio/jclab/home/chayas/anaconda/envs/py35/share/psi4/basis/aug-cc-pvtz.gbs 
    atoms 12    entry N          line   267 file /cbio/jclab/home/chayas/anaconda/envs/py35/share/psi4/basis/aug-cc-pvtz.gbs 
    atoms 13    entry O          line   313 file /cbio/jclab/home/chayas/anaconda/envs/py35/share/psi4/basis/aug-cc-pvtz.gbs 
    atoms 14-22 entry H          line    34 file /cbio/jclab/home/chayas/anaconda/envs/py35/share/psi4/basis/aug-cc-pvtz.gbs 


         ---------------------------------------------------------
                                   SCF
            by Justin Turney, Rob Parrish, and Andy Simmonett
                              RHF Reference
                        8 Threads,   4768 MiB Core
         ---------------------------------------------------------

  ==> Geometry <==

    Molecular point group: c1
    Full point group: C1

    Geometry (in Angstrom), charge = 0, multiplicity = 1:

       Center              X                  Y                   Z               Mass       
    ------------   -----------------  -----------------  -----------------  -----------------
           C         -1.297408268288     0.733820373160    -0.557518576984    12.000000000000
           C         -0.304408268288     0.117820373160     1.556481423016    12.000000000000
           C         -2.375408268288     1.306820373160     0.115481423016    12.000000000000
           C         -1.382408268288     0.690820373160     2.230481423016    12.000000000000
           C          1.890591731712    -1.049179626840     0.182481423016    12.000000000000
           C          0.901591731712    -0.436179626840    -1.926518576984    12.000000000000
           C          2.951591731712    -1.611179626840    -0.513518576984    12.000000000000
           C          1.987591731712    -1.013179626840    -2.568518576984    12.000000000000
           C         -0.261408268288     0.138820373160     0.162481423016    12.000000000000
           C          0.857591731712    -0.456179626840    -0.535518576984    12.000000000000
           C         -2.418408268288     1.285820373160     1.509481423016    12.000000000000
           N          2.969591731712    -1.578179626840    -1.852518576984    14.003074004780
           O         -3.409408268288     1.811820373160     2.128481423016    15.994914619560
           H         -1.278408268288     0.758820373160    -1.644518576984     1.007825032070
           H          0.495591731712    -0.342179626840     2.131481423016     1.007825032070
           H         -3.171408268288     1.763820373160    -0.470518576984     1.007825032070
           H         -1.391408268288     0.661820373160     3.318481423016     1.007825032070
           H          1.882591731712    -1.080179626840     1.268481423016     1.007825032070
           H          0.109591731712     0.020820373160    -2.512518576984     1.007825032070
           H          3.795591731712    -2.093179626840    -0.039518576984     1.007825032070
           H          2.105591731712    -1.044179626840    -3.643518576984     1.007825032070
           H          3.758591731712    -1.996179626840    -2.344518576984     1.007825032070

  Running in c1 symmetry.

  Rotational constants: A =      0.09651  B =      0.01387  C =      0.01212 [cm^-1]
  Rotational constants: A =   2893.30426  B =    415.69765  C =    363.47511 [MHz]
  Nuclear repulsion =  702.172753615002193

  Charge       = 0
  Multiplicity = 1
  Electrons    = 90
  Nalpha       = 45
  Nbeta        = 45

  ==> Algorithm <==

  SCF Algorithm Type is DF.
  DIIS enabled.
  MOM disabled.
  Fractional occupation disabled.
  Guess Type is SAD.
  Energy threshold   = 1.00e-10
  Density threshold  = 1.00e-10
  Integral threshold = 0.00e+00

  ==> Primary Basis <==

  Basis Set: AUG-CC-PVTZ
    Blend: AUG-CC-PVTZ
    Number of shells: 263
    Number of basis function: 805
    Number of Cartesian functions: 940
    Spherical Harmonics?: true
    Max angular momentum: 3

   => Loading Basis Set <=

    Name: (AUG-CC-PVTZ AUX)
    Role: JKFIT
    Keyword: DF_BASIS_SCF
    atoms 1-11  entry C          line   161 file /cbio/jclab/home/chayas/anaconda/envs/py35/share/psi4/basis/aug-cc-pvtz-jkfit.gbs 
    atoms 12    entry N          line   223 file /cbio/jclab/home/chayas/anaconda/envs/py35/share/psi4/basis/aug-cc-pvtz-jkfit.gbs 
    atoms 13    entry O          line   285 file /cbio/jclab/home/chayas/anaconda/envs/py35/share/psi4/basis/aug-cc-pvtz-jkfit.gbs 
    atoms 14-22 entry H          line    69 file /cbio/jclab/home/chayas/anaconda/envs/py35/share/psi4/basis/aug-cc-pvtz-jkfit.gbs 

  ==> Pre-Iterations <==

   -------------------------------------------------------
    Irrep   Nso     Nmo     Nalpha   Nbeta   Ndocc  Nsocc
   -------------------------------------------------------
     A        805     805       0       0       0       0
   -------------------------------------------------------
    Total     805     805      45      45      45       0
   -------------------------------------------------------

  ==> Integral Setup <==

  ==> DFJK: Density-Fitted J/K Matrices <==

    J tasked:                  Yes
    K tasked:                  Yes
    wK tasked:                  No
    OpenMP threads:              8
    Integrals threads:           8
    Memory (MB):              3576
    Algorithm:                Disk
    Integral Cache:           NONE
    Schwarz Cutoff:          1E-12
    Fitting Condition:       1E-12

   => Auxiliary Basis Set <=

  Basis Set: (AUG-CC-PVTZ AUX)
    Blend: AUG-CC-PVTZ-JKFIT
    Number of shells: 516
    Number of basis function: 1766
    Number of Cartesian functions: 2198
    Spherical Harmonics?: true
    Max angular momentum: 4

  Minimum eigenvalue in the overlap matrix is 2.9094317298E-07.
  Using Symmetric Orthogonalization.

  SCF Guess: Superposition of Atomic Densities via on-the-fly atomic UHF.

  ==> Iterations <==

                           Total Energy        Delta E     RMS |[F,P]|

   @DF-RHF iter   0:  -558.10916108010656   -5.58109e+02   2.36127e-02 
   @DF-RHF iter   1:  -550.71426535639716    7.39490e+00   1.92156e-03 
   @DF-RHF iter   2:  -550.91553847111550   -2.01273e-01   1.80524e-03 DIIS
   @DF-RHF iter   3:  -551.17131730041751   -2.55779e-01   5.07682e-04 DIIS
   @DF-RHF iter   4:  -551.20851364572673   -3.71963e-02   2.53754e-04 DIIS
   @DF-RHF iter   5:  -551.21392122592272   -5.40758e-03   1.12533e-04 DIIS
   @DF-RHF iter   6:  -551.21532352250949   -1.40230e-03   3.74373e-05 DIIS
   @DF-RHF iter   7:  -551.21566614427968   -3.42622e-04   1.43197e-05 DIIS
   @DF-RHF iter   8:  -551.21573398933992   -6.78451e-05   6.87202e-06 DIIS
   @DF-RHF iter   9:  -551.21575015302221   -1.61637e-05   2.80303e-06 DIIS
   @DF-RHF iter  10:  -551.21575339079607   -3.23777e-06   1.31418e-06 DIIS
   @DF-RHF iter  11:  -551.21575385397671   -4.63181e-07   5.31933e-07 DIIS
   @DF-RHF iter  12:  -551.21575390610008   -5.21234e-08   2.11798e-07 DIIS
   @DF-RHF iter  13:  -551.21575391472061   -8.62053e-09   8.41039e-08 DIIS
   @DF-RHF iter  14:  -551.21575391623060   -1.50999e-09   5.01414e-08 DIIS
   @DF-RHF iter  15:  -551.21575391660053   -3.69937e-10   1.26238e-08 DIIS
   @DF-RHF iter  16:  -551.21575391661861   -1.80762e-11   7.15285e-09 DIIS
   @DF-RHF iter  17:  -551.21575391665374   -3.51292e-11   2.93637e-09 DIIS
   @DF-RHF iter  18:  -551.21575391664953    4.20641e-12   1.17646e-09 DIIS
   @DF-RHF iter  19:  -551.21575391666624   -1.67120e-11   3.49470e-10 DIIS
   @DF-RHF iter  20:  -551.21575391666624    0.00000e+00   1.80436e-10 DIIS
   @DF-RHF iter  21:  -551.21575391666011    6.13909e-12   7.38999e-11 DIIS

  ==> Post-Iterations <==

    Orbital Energies (a.u.)
    -----------------------

    Doubly Occupied:                                                      

       1A    -20.439987     2A    -15.689129     3A    -11.350543  
       4A    -11.350471     5A    -11.301688     6A    -11.279530  
       7A    -11.279395     8A    -11.251494     9A    -11.232434  
      10A    -11.232380    11A    -11.217917    12A    -11.193910  
      13A    -11.193865    14A     -1.376445    15A     -1.263275  
      16A     -1.178510    17A     -1.109700    18A     -1.104460  
      19A     -1.001391    20A     -0.991674    21A     -0.934308  
      22A     -0.901227    23A     -0.831115    24A     -0.818105  
      25A     -0.787051    26A     -0.727590    27A     -0.716249  
      28A     -0.700654    29A     -0.667682    30A     -0.648257  
      31A     -0.619474    32A     -0.613647    33A     -0.604359  
      34A     -0.588823    35A     -0.557807    36A     -0.536313  
      37A     -0.524415    38A     -0.485528    39A     -0.483361  
      40A     -0.470806    41A     -0.415410    42A     -0.389954  
      43A     -0.350062    44A     -0.327939    45A     -0.236594  

    Virtual:                                                              

      46A     -0.006107    47A      0.012184    48A      0.024326  
      49A      0.024709    50A      0.037505    51A      0.043408  
      52A      0.049215    53A      0.058037    54A      0.060202  
      55A      0.061643    56A      0.068319    57A      0.072061  
      58A      0.080944    59A      0.083180    60A      0.085899  
      61A      0.086869    62A      0.088221    63A      0.099252  
      64A      0.107953    65A      0.111819    66A      0.114921  
      67A      0.124345    68A      0.124674    69A      0.127416  
      70A      0.130290    71A      0.135391    72A      0.141170  
      73A      0.142212    74A      0.142676    75A      0.146149  
      76A      0.152817    77A      0.159390    78A      0.161064  
      79A      0.168065    80A      0.168270    81A      0.177154  
      82A      0.178389    83A      0.179685    84A      0.186067  
      85A      0.188102    86A      0.192642    87A      0.197413  
      88A      0.197877    89A      0.202556    90A      0.204748  
      91A      0.215959    92A      0.216441    93A      0.219915  
      94A      0.233660    95A      0.241523    96A      0.241791  
      97A      0.249303    98A      0.251044    99A      0.254931  
     100A      0.262946   101A      0.263596   102A      0.265100  
     103A      0.272221   104A      0.272914   105A      0.272975  
     106A      0.274577   107A      0.279396   108A      0.291118  
     109A      0.292813   110A      0.297849   111A      0.298159  
     112A      0.306642   113A      0.307670   114A      0.314225  
     115A      0.315842   116A      0.320989   117A      0.332790  
     118A      0.340441   119A      0.343779   120A      0.346405  
     121A      0.350831   122A      0.351020   123A      0.353644  
     124A      0.359329   125A      0.359941   126A      0.373328  
     127A      0.373630   128A      0.374875   129A      0.378417  
     130A      0.381253   131A      0.388652   132A      0.399441  
     133A      0.403716   134A      0.404194   135A      0.406177  
     136A      0.414393   137A      0.419248   138A      0.420261  
     139A      0.430025   140A      0.434196   141A      0.438144  
     142A      0.440473   143A      0.448502   144A      0.450471  
     145A      0.451731   146A      0.452932   147A      0.454202  
     148A      0.455541   149A      0.465300   150A      0.467799  
     151A      0.469908   152A      0.471780   153A      0.473520  
     154A      0.473791   155A      0.476935   156A      0.482350  
     157A      0.487473   158A      0.497970   159A      0.502741  
     160A      0.504148   161A      0.504747   162A      0.509960  
     163A      0.521486   164A      0.521839   165A      0.524563  
     166A      0.533521   167A      0.536079   168A      0.539647  
     169A      0.542892   170A      0.549827   171A      0.551174  
     172A      0.552952   173A      0.558513   174A      0.559869  
     175A      0.563988   176A      0.565795   177A      0.583456  
     178A      0.583930   179A      0.590834   180A      0.595304  
     181A      0.606873   182A      0.611317   183A      0.624566  
     184A      0.625796   185A      0.640257   186A      0.644021  
     187A      0.647164   188A      0.649569   189A      0.650015  
     190A      0.655619   191A      0.662099   192A      0.663516  
     193A      0.677751   194A      0.681401   195A      0.682974  
     196A      0.689107   197A      0.694239   198A      0.701877  
     199A      0.707145   200A      0.713826   201A      0.720598  
     202A      0.722715   203A      0.723455   204A      0.735093  
     205A      0.736289   206A      0.746846   207A      0.754396  
     208A      0.760084   209A      0.764289   210A      0.771147  
     211A      0.775115   212A      0.776440   213A      0.787695  
     214A      0.789152   215A      0.802592   216A      0.805345  
     217A      0.817332   218A      0.824472   219A      0.829907  
     220A      0.832042   221A      0.837943   222A      0.841513  
     223A      0.852342   224A      0.854908   225A      0.862307  
     226A      0.865167   227A      0.870281   228A      0.873089  
     229A      0.873937   230A      0.874826   231A      0.874942  
     232A      0.902589   233A      0.903306   234A      0.909233  
     235A      0.909909   236A      0.916377   237A      0.919451  
     238A      0.924245   239A      0.928445   240A      0.929771  
     241A      0.931976   242A      0.932129   243A      0.933904  
     244A      0.943708   245A      0.953126   246A      0.953251  
     247A      0.954601   248A      0.955164   249A      0.966099  
     250A      0.967191   251A      0.967702   252A      0.967999  
     253A      0.973316   254A      0.983227   255A      0.991304  
     256A      0.996733   257A      1.000431   258A      1.005388  
     259A      1.009621   260A      1.009734   261A      1.015310  
     262A      1.019987   263A      1.020950   264A      1.031076  
     265A      1.036270   266A      1.037204   267A      1.039468  
     268A      1.047871   269A      1.057738   270A      1.058044  
     271A      1.060216   272A      1.063160   273A      1.073746  
     274A      1.083334   275A      1.088905   276A      1.089295  
     277A      1.090583   278A      1.099211   279A      1.107790  
     280A      1.112865   281A      1.113596   282A      1.118324  
     283A      1.130106   284A      1.135502   285A      1.140693  
     286A      1.141446   287A      1.146256   288A      1.160875  
     289A      1.162976   290A      1.166480   291A      1.174359  
     292A      1.175117   293A      1.182357   294A      1.184113  
     295A      1.189607   296A      1.194686   297A      1.195284  
     298A      1.197797   299A      1.218979   300A      1.220322  
     301A      1.221456   302A      1.234407   303A      1.235099  
     304A      1.237624   305A      1.238008   306A      1.242175  
     307A      1.249019   308A      1.256408   309A      1.260655  
     310A      1.277274   311A      1.283381   312A      1.287898  
     313A      1.288891   314A      1.290300   315A      1.291979  
     316A      1.302448   317A      1.309125   318A      1.315561  
     319A      1.316246   320A      1.317823   321A      1.323822  
     322A      1.336282   323A      1.343908   324A      1.353694  
     325A      1.356091   326A      1.357502   327A      1.366152  
     328A      1.368402   329A      1.371517   330A      1.392844  
     331A      1.393423   332A      1.402199   333A      1.418600  
     334A      1.434557   335A      1.436923   336A      1.445569  
     337A      1.452947   338A      1.453731   339A      1.460270  
     340A      1.465105   341A      1.477148   342A      1.477946  
     343A      1.491739   344A      1.491881   345A      1.493779  
     346A      1.496812   347A      1.510482   348A      1.531298  
     349A      1.532153   350A      1.533335   351A      1.553851  
     352A      1.566023   353A      1.568463   354A      1.582830  
     355A      1.593231   356A      1.593438   357A      1.600006  
     358A      1.608000   359A      1.623337   360A      1.626642  
     361A      1.634421   362A      1.644825   363A      1.649151  
     364A      1.656693   365A      1.663039   366A      1.664226  
     367A      1.677436   368A      1.681554   369A      1.684974  
     370A      1.695705   371A      1.701785   372A      1.718905  
     373A      1.719531   374A      1.727450   375A      1.739190  
     376A      1.745188   377A      1.752565   378A      1.763575  
     379A      1.769009   380A      1.776604   381A      1.786701  
     382A      1.791232   383A      1.799137   384A      1.812248  
     385A      1.823260   386A      1.837578   387A      1.848835  
     388A      1.851887   389A      1.856942   390A      1.866184  
     391A      1.866681   392A      1.883629   393A      1.890779  
     394A      1.896789   395A      1.903095   396A      1.903946  
     397A      1.928369   398A      1.934942   399A      1.947917  
     400A      1.953305   401A      1.962214   402A      1.968462  
     403A      1.980010   404A      1.986032   405A      1.990922  
     406A      1.994554   407A      2.010072   408A      2.010461  
     409A      2.011066   410A      2.022293   411A      2.030568  
     412A      2.039668   413A      2.048247   414A      2.053316  
     415A      2.054090   416A      2.056381   417A      2.057884  
     418A      2.067730   419A      2.077504   420A      2.083590  
     421A      2.090157   422A      2.105965   423A      2.125277  
     424A      2.134388   425A      2.137541   426A      2.152352  
     427A      2.160755   428A      2.165441   429A      2.172670  
     430A      2.186720   431A      2.186973   432A      2.189556  
     433A      2.195248   434A      2.207472   435A      2.213105  
     436A      2.221709   437A      2.227776   438A      2.233504  
     439A      2.239119   440A      2.257273   441A      2.268630  
     442A      2.273316   443A      2.278997   444A      2.298817  
     445A      2.307463   446A      2.321481   447A      2.323696  
     448A      2.341864   449A      2.343989   450A      2.345315  
     451A      2.378897   452A      2.380802   453A      2.381855  
     454A      2.386657   455A      2.407222   456A      2.414593  
     457A      2.423922   458A      2.431808   459A      2.440456  
     460A      2.461395   461A      2.466245   462A      2.466889  
     463A      2.492251   464A      2.501420   465A      2.505548  
     466A      2.507280   467A      2.512320   468A      2.523954  
     469A      2.544343   470A      2.548510   471A      2.568512  
     472A      2.571896   473A      2.581751   474A      2.595352  
     475A      2.605786   476A      2.623907   477A      2.633825  
     478A      2.649275   479A      2.660701   480A      2.661780  
     481A      2.669175   482A      2.695677   483A      2.723012  
     484A      2.730710   485A      2.736919   486A      2.743501  
     487A      2.782001   488A      2.793540   489A      2.805672  
     490A      2.811611   491A      2.832139   492A      2.832331  
     493A      2.839612   494A      2.876885   495A      2.910785  
     496A      2.915823   497A      2.933086   498A      2.959786  
     499A      2.986572   500A      3.021238   501A      3.021820  
     502A      3.047169   503A      3.054749   504A      3.059267  
     505A      3.123683   506A      3.125273   507A      3.140909  
     508A      3.147999   509A      3.158952   510A      3.169162  
     511A      3.179975   512A      3.183016   513A      3.204073  
     514A      3.210063   515A      3.216550   516A      3.260708  
     517A      3.263287   518A      3.295680   519A      3.307369  
     520A      3.314354   521A      3.323575   522A      3.331370  
     523A      3.333413   524A      3.376925   525A      3.380394  
     526A      3.384673   527A      3.387523   528A      3.403454  
     529A      3.406859   530A      3.421485   531A      3.423476  
     532A      3.425060   533A      3.441590   534A      3.445709  
     535A      3.475483   536A      3.477537   537A      3.482599  
     538A      3.505274   539A      3.506614   540A      3.515416  
     541A      3.518455   542A      3.522917   543A      3.539724  
     544A      3.556004   545A      3.565055   546A      3.577347  
     547A      3.580549   548A      3.594879   549A      3.602410  
     550A      3.623383   551A      3.627844   552A      3.631488  
     553A      3.652810   554A      3.657661   555A      3.663958  
     556A      3.678895   557A      3.680380   558A      3.685143  
     559A      3.693028   560A      3.699950   561A      3.708634  
     562A      3.716154   563A      3.725870   564A      3.733498  
     565A      3.751026   566A      3.754365   567A      3.757490  
     568A      3.767854   569A      3.782988   570A      3.798261  
     571A      3.802210   572A      3.809720   573A      3.818097  
     574A      3.838497   575A      3.846226   576A      3.865808  
     577A      3.881827   578A      3.885141   579A      3.888602  
     580A      3.902605   581A      3.917249   582A      3.921538  
     583A      3.923902   584A      3.931401   585A      3.931740  
     586A      3.953972   587A      3.963546   588A      3.972645  
     589A      3.974194   590A      3.975637   591A      3.978498  
     592A      3.986070   593A      3.995614   594A      4.004506  
     595A      4.024853   596A      4.028013   597A      4.037180  
     598A      4.043366   599A      4.046771   600A      4.052728  
     601A      4.080493   602A      4.095745   603A      4.100562  
     604A      4.126551   605A      4.136069   606A      4.142253  
     607A      4.144245   608A      4.147102   609A      4.159759  
     610A      4.173901   611A      4.185926   612A      4.191582  
     613A      4.199625   614A      4.200450   615A      4.201200  
     616A      4.216456   617A      4.222589   618A      4.230853  
     619A      4.261055   620A      4.266622   621A      4.271339  
     622A      4.288863   623A      4.290898   624A      4.291421  
     625A      4.304149   626A      4.306588   627A      4.311770  
     628A      4.321858   629A      4.328172   630A      4.328748  
     631A      4.345829   632A      4.347030   633A      4.357690  
     634A      4.378015   635A      4.381446   636A      4.388178  
     637A      4.396754   638A      4.399971   639A      4.415951  
     640A      4.424099   641A      4.431737   642A      4.441623  
     643A      4.453120   644A      4.457196   645A      4.465423  
     646A      4.485527   647A      4.490150   648A      4.502960  
     649A      4.514303   650A      4.527335   651A      4.530090  
     652A      4.557986   653A      4.558933   654A      4.584343  
     655A      4.586669   656A      4.599428   657A      4.607227  
     658A      4.629411   659A      4.636291   660A      4.644341  
     661A      4.666427   662A      4.669232   663A      4.688800  
     664A      4.694043   665A      4.708608   666A      4.716541  
     667A      4.734468   668A      4.741864   669A      4.745325  
     670A      4.749836   671A      4.761607   672A      4.772854  
     673A      4.774845   674A      4.792490   675A      4.812218  
     676A      4.830149   677A      4.853339   678A      4.892164  
     679A      4.892229   680A      4.902389   681A      4.909680  
     682A      4.912076   683A      4.928540   684A      4.936783  
     685A      4.947000   686A      4.952531   687A      4.988092  
     688A      5.000102   689A      5.001001   690A      5.008388  
     691A      5.037358   692A      5.049653   693A      5.069997  
     694A      5.080535   695A      5.085822   696A      5.093480  
     697A      5.114624   698A      5.130732   699A      5.133788  
     700A      5.139909   701A      5.143479   702A      5.146360  
     703A      5.155106   704A      5.156516   705A      5.187271  
     706A      5.199657   707A      5.211146   708A      5.226120  
     709A      5.230904   710A      5.240559   711A      5.279705  
     712A      5.305749   713A      5.309059   714A      5.330079  
     715A      5.344796   716A      5.368960   717A      5.376738  
     718A      5.398153   719A      5.432570   720A      5.443400  
     721A      5.450429   722A      5.458903   723A      5.514846  
     724A      5.516207   725A      5.526220   726A      5.543875  
     727A      5.568719   728A      5.570307   729A      5.620532  
     730A      5.629362   731A      5.662280   732A      5.691271  
     733A      5.708053   734A      5.735671   735A      5.746599  
     736A      5.746782   737A      5.766720   738A      5.811016  
     739A      5.826049   740A      5.827800   741A      5.840874  
     742A      5.878267   743A      5.903940   744A      5.913716  
     745A      5.948644   746A      5.974672   747A      6.008486  
     748A      6.025350   749A      6.093166   750A      6.104318  
     751A      6.123279   752A      6.202851   753A      6.213162  
     754A      6.247852   755A      6.259598   756A      6.335540  
     757A      6.352440   758A      6.352823   759A      6.438946  
     760A      6.476100   761A      6.485575   762A      6.525918  
     763A      6.598787   764A      6.615542   765A      6.660634  
     766A      6.671740   767A      6.721069   768A      6.751001  
     769A      6.763899   770A      6.786422   771A      6.856916  
     772A      6.862784   773A      6.889420   774A      6.967470  
     775A      6.978896   776A      6.979290   777A      6.994611  
     778A      7.052510   779A      7.124719   780A      7.165449  
     781A      7.213348   782A      7.218547   783A      7.257759  
     784A      7.484862   785A      7.503551   786A      7.612097  
     787A      7.697787   788A      7.787236   789A      7.833579  
     790A      7.900722   791A      8.031326   792A      8.099312  
     793A     16.157819   794A     16.167630   795A     16.385285  
     796A     17.472309   797A     17.724565   798A     18.932637  
     799A     19.870977   800A     20.146544   801A     20.288860  
     802A     20.781096   803A     20.983630   804A     21.332005  
     805A     21.338164  

    Final Occupation by Irrep:
              A 
    DOCC [    45 ]

  Energy converged.

  @DF-RHF Final Energy:  -551.21575391666011

   => Energetics <=

    Nuclear Repulsion Energy =            702.1727536150021933
    One-Electron Energy =               -2140.8271558381743489
    Two-Electron Energy =                 887.4386483065120501
    DFT Exchange-Correlation Energy =       0.0000000000000000
    Empirical Dispersion Energy =           0.0000000000000000
    PCM Polarization Energy =               0.0000000000000000
    EFP Energy =                            0.0000000000000000
    Total Energy =                       -551.2157539166601055



Properties will be evaluated at   0.000000,   0.000000,   0.000000 Bohr

Properties computed using the SCF density matrix

  Nuclear Dipole Moment: (a.u.)
     X:     5.8870      Y:    -3.1278      Z:    -3.6749

  Electronic Dipole Moment: (a.u.)
     X:    -0.4317      Y:     0.2297      Z:     0.2700

  Dipole Moment: (a.u.)
     X:     5.4552      Y:    -2.8981      Z:    -3.4049     Total:     7.0535

  Dipole Moment: (Debye)
     X:    13.8658      Y:    -7.3662      Z:    -8.6544     Total:    17.9282


*** tstop() called on gpu-1-8.local at Sun Nov 12 15:35:09 2017
Module time:
	user time   =    1121.58 seconds =      18.69 minutes
	system time =      54.19 seconds =       0.90 minutes
	total time  =        489 seconds =       8.15 minutes
Total time:
	user time   =    1121.59 seconds =      18.69 minutes
	system time =      54.19 seconds =       0.90 minutes
	total time  =        489 seconds =       8.15 minutes

  //>>>>>>>>>>>>>>>>>>>>>>>>>>>>>>>>>>>//
  //               DFMP2               //
  //<<<<<<<<<<<<<<<<<<<<<<<<<<<<<<<<<<<//

   => Loading Basis Set <=

    Name: (AUG-CC-PVTZ AUX)
    Role: RIFIT
    Keyword: DF_BASIS_MP2
    atoms 1-11  entry C          line   147 file /cbio/jclab/home/chayas/anaconda/envs/py35/share/psi4/basis/aug-cc-pvtz-ri.gbs 
    atoms 12    entry N          line   205 file /cbio/jclab/home/chayas/anaconda/envs/py35/share/psi4/basis/aug-cc-pvtz-ri.gbs 
    atoms 13    entry O          line   263 file /cbio/jclab/home/chayas/anaconda/envs/py35/share/psi4/basis/aug-cc-pvtz-ri.gbs 
    atoms 14-22 entry H          line    29 file /cbio/jclab/home/chayas/anaconda/envs/py35/share/psi4/basis/aug-cc-pvtz-ri.gbs 

	 --------------------------------------------------------
	                          DF-MP2                         
	      2nd-Order Density-Fitted Moller-Plesset Theory     
	              RMP2 Wavefunction,   8 Threads             
	                                                         
	        Rob Parrish, Justin Turney, Andy Simmonett,      
	           Ed Hohenstein, and C. David Sherrill          
	 --------------------------------------------------------

   => Auxiliary Basis Set <=

  Basis Set: (AUG-CC-PVTZ AUX)
    Blend: AUG-CC-PVTZ-RI
    Number of shells: 490
    Number of basis function: 1792
    Number of Cartesian functions: 2263
    Spherical Harmonics?: true
    Max angular momentum: 4

	 --------------------------------------------------------
	                 NBF =   805, NAUX =  1792
	 --------------------------------------------------------
	   CLASS    FOCC     OCC    AOCC    AVIR     VIR    FVIR
	   PAIRS       0      45      45     760     760       0
	 --------------------------------------------------------


         ------------------------------------------------------------
                                     CPHF                           
                                  Rob Parrish                       
         ------------------------------------------------------------

  ==> Geometry <==

    Molecular point group: c1
    Full point group: C1

    Geometry (in Angstrom), charge = 0, multiplicity = 1:

       Center              X                  Y                   Z               Mass       
    ------------   -----------------  -----------------  -----------------  -----------------
           C         -1.297408268288     0.733820373160    -0.557518576984    12.000000000000
           C         -0.304408268288     0.117820373160     1.556481423016    12.000000000000
           C         -2.375408268288     1.306820373160     0.115481423016    12.000000000000
           C         -1.382408268288     0.690820373160     2.230481423016    12.000000000000
           C          1.890591731712    -1.049179626840     0.182481423016    12.000000000000
           C          0.901591731712    -0.436179626840    -1.926518576984    12.000000000000
           C          2.951591731712    -1.611179626840    -0.513518576984    12.000000000000
           C          1.987591731712    -1.013179626840    -2.568518576984    12.000000000000
           C         -0.261408268288     0.138820373160     0.162481423016    12.000000000000
           C          0.857591731712    -0.456179626840    -0.535518576984    12.000000000000
           C         -2.418408268288     1.285820373160     1.509481423016    12.000000000000
           N          2.969591731712    -1.578179626840    -1.852518576984    14.003074004780
           O         -3.409408268288     1.811820373160     2.128481423016    15.994914619560
           H         -1.278408268288     0.758820373160    -1.644518576984     1.007825032070
           H          0.495591731712    -0.342179626840     2.131481423016     1.007825032070
           H         -3.171408268288     1.763820373160    -0.470518576984     1.007825032070
           H         -1.391408268288     0.661820373160     3.318481423016     1.007825032070
           H          1.882591731712    -1.080179626840     1.268481423016     1.007825032070
           H          0.109591731712     0.020820373160    -2.512518576984     1.007825032070
           H          3.795591731712    -2.093179626840    -0.039518576984     1.007825032070
           H          2.105591731712    -1.044179626840    -3.643518576984     1.007825032070
           H          3.758591731712    -1.996179626840    -2.344518576984     1.007825032070

  Nuclear repulsion =  702.172753615002193
  Reference energy  = -551.215753916660105

  ==> Basis Set <==

  Basis Set: AUG-CC-PVTZ
    Blend: AUG-CC-PVTZ
    Number of shells: 263
    Number of basis function: 805
    Number of Cartesian functions: 940
    Spherical Harmonics?: true
    Max angular momentum: 3

  ==> CGRSolver (by Rob Parrish) <==

   Number of roots    =         1
   Preconditioning    =    JACOBI
   Convergence cutoff =     1E-06
   Maximum iterations =       100

  ==> CPHFRHamiltonian (by Rob Parrish) <== 

  ==> DFJK: Density-Fitted J/K Matrices <==

    J tasked:                  Yes
    K tasked:                  Yes
    wK tasked:                  No
    OpenMP threads:              8
    Integrals threads:           8
    Memory (MB):              3576
    Algorithm:                Disk
    Integral Cache:           NONE
    Schwarz Cutoff:          1E-12
    Fitting Condition:       1E-12

   => Auxiliary Basis Set <=

  Basis Set: (AUG-CC-PVTZ AUX)
    Blend: AUG-CC-PVTZ-JKFIT
    Number of shells: 516
    Number of basis function: 1766
    Number of Cartesian functions: 2198
    Spherical Harmonics?: true
    Max angular momentum: 4

  ==> CPHF Iterations <==

  => Iterations <=

             Iter  Converged  Remaining    Residual
  CGR           1          0          1   1.604E-01
  CGR           2          0          1   6.349E-02
  CGR           3          0          1   3.109E-02
  CGR           4          0          1   9.378E-03
  CGR           5          0          1   3.231E-03
  CGR           6          0          1   1.157E-03
  CGR           7          0          1   4.322E-04
  CGR           8          0          1   1.591E-04
  CGR           9          0          1   5.635E-05
  CGR          10          0          1   2.434E-05
  CGR          11          0          1   1.321E-05
  CGR          12          0          1   4.252E-06
  CGR          13          0          1   1.948E-06
  CGR          14          1          0   6.684E-07

    CGRSolver converged.

  ==> DFCorrGrad: Density-Fitted Correlated Gradients <==

    OpenMP threads:              8
    Integrals threads:           8
    Memory (MB):              3576
    Schwarz Cutoff:          0E+00
    Fitting Condition:       1E-12

   => Auxiliary Basis Set <=

  Basis Set: (AUG-CC-PVTZ AUX)
    Blend: AUG-CC-PVTZ-JKFIT
    Number of shells: 516
    Number of basis function: 1766
    Number of Cartesian functions: 2198
    Spherical Harmonics?: true
    Max angular momentum: 4

	-----------------------------------------------------------
	 ==================> DF-MP2 Energies <==================== 
	-----------------------------------------------------------
	 Reference Energy          =    -551.2157539166601055 [Eh]
	 Singles Energy            =      -0.0000000000000001 [Eh]
	 Same-Spin Energy          =      -0.6065644828526389 [Eh]
	 Opposite-Spin Energy      =      -1.8422203271156790 [Eh]
	 Correlation Energy        =      -2.4487848099683180 [Eh]
	 Total Energy              =    -553.6645387266283933 [Eh]
	-----------------------------------------------------------
	 ================> DF-SCS-MP2 Energies <================== 
	-----------------------------------------------------------
	 SCS Same-Spin Scale       =       0.3333333333333333 [-]
	 SCS Opposite-Spin Scale   =       1.2000000000000000 [-]
	 SCS Same-Spin Energy      =      -0.2021881609508796 [Eh]
	 SCS Opposite-Spin Energy  =      -2.2106643925388147 [Eh]
	 SCS Correlation Energy    =      -2.4128525534896945 [Eh]
	 SCS Total Energy          =    -553.6286064701497480 [Eh]
	-----------------------------------------------------------


  -Total Gradient:
     Atom            X                  Y                   Z
    ------   -----------------  -----------------  -----------------
       1        0.035244446904    -0.019295734227    -0.004522384922
       2        0.022941187519    -0.011594141298    -0.031836473947
       3       -0.028864596035     0.014166311160     0.055376210162
       4       -0.056048777256     0.030815755523    -0.001440840722
       5       -0.041391703000     0.022513669799     0.008162912270
       6       -0.028567007388     0.014349719282     0.034220507909
       7        0.014444157843    -0.006653125086    -0.034171818656
       8        0.032158859284    -0.017676317034     0.005150153361
       9       -0.042924619496     0.022778839839     0.026765361241
      10        0.056747212445    -0.030128982481    -0.034592453783
      11        0.066656440482    -0.035238472277    -0.042159903976
      12       -0.022838803949     0.011978029958     0.014822073900
      13       -0.021152382436     0.011167638096     0.013288764885
      14        0.002646993324    -0.001170767742    -0.007770396203
      15        0.007093523162    -0.003970617631     0.001578826744
      16       -0.002487153109     0.001596706869    -0.008896201522
      17        0.005116551460    -0.002983541199     0.006902665974
      18       -0.003365422949     0.001521872472     0.009926448425
      19       -0.008784661083     0.005008304814    -0.002012620027
      20        0.002684456301    -0.001537145126    -0.000534189743
      21        0.001823904501    -0.000976287299    -0.002709152650
      22        0.008867393456    -0.004671716410    -0.005547488719


*** tstop() called on gpu-1-8.local at Sun Nov 12 16:06:49 2017
Module time:
	user time   =    5209.86 seconds =      86.83 minutes
	system time =     127.25 seconds =       2.12 minutes
	total time  =       2389 seconds =      39.82 minutes
Total time:
	user time   =    5209.87 seconds =      86.83 minutes
	system time =     127.25 seconds =       2.12 minutes
	total time  =       2389 seconds =      39.82 minutes

			-----------------------------------------
			 OPTKING 2.0: for geometry optimizations 
			  - R.A. King,  Bethel University        
			-----------------------------------------

	Internal coordinates to be generated automatically.
	Detected frag 1 with atoms:  1 2 3 4 5 6 7 8 9 10 11 12 13 14 15 16 17 18 19 20
	 21 22
	---Fragment 1 Bond Connectivity---
	 1 : 3 9 14
	 2 : 4 9 15
	 3 : 1 11 16
	 4 : 2 11 17
	 5 : 7 10 18
	 6 : 8 10 19
	 7 : 5 12 20
	 8 : 6 12 21
	 9 : 1 2 10
	 10 : 5 6 9
	 11 : 3 4 13
	 12 : 7 8 22
	 13 : 11
	 14 : 1
	 15 : 2
	 16 : 3
	 17 : 4
	 18 : 5
	 19 : 6
	 20 : 7
	 21 : 8
	 22 : 12

	Assuming in current code that numbering for constraints corresponds to unified fragment.
	Fixed dihedral atom list: 
	     1     9    10     5
	---Fragment 1 Geometry and Gradient---
	 C          -2.4517463096        1.3867195360       -1.0535574245
	 C          -0.5752482597        0.2226482381        2.9413236204
	 C          -4.4888710809        2.4695326101        0.2182282629
	 C          -2.6123730309        1.3054613123        4.2149990340
	 C           3.5727006020       -1.9826621589        0.3448399138
	 C           1.7037614566       -0.8242600395       -3.6405925004
	 C           5.5777000290       -3.0446882456       -0.9704094746
	 C           3.7560040369       -1.9146320181       -4.8537966777
	 C          -0.4939900359        0.2623324869        0.3070453912
	 C           1.6206135068       -0.8620545621       -1.0119834496
	 C          -4.5701293046        2.4298483614        2.8525064922
	 N           5.6117150994       -2.9823272832       -3.5007527666
	 O          -6.4428479023        3.4238443073        4.0222469684
	 H          -2.4158415131        1.4339626893       -3.1076897309
	 H           0.9365326467       -0.6466257830        4.0279161468
	 H          -5.9930930826        3.3331374529       -0.8891512509
	 H          -2.6293805661        1.2506592544        6.2710210666
	 H           3.5575827930       -2.0412436691        2.3970824942
	 H           0.2070983594        0.0393448033       -4.7479720143
	 H           7.1726288852       -3.9555362417       -0.0746792877
	 H           3.9789917206       -1.9732135283       -6.8852522706
	 H           7.1027090183       -3.7722328068       -4.4304980240
	             0.0352444469       -0.0192957342       -0.0045223849
	             0.0229411875       -0.0115941413       -0.0318364739
	            -0.0288645960        0.0141663112        0.0553762102
	            -0.0560487773        0.0308157555       -0.0014408407
	            -0.0413917030        0.0225136698        0.0081629123
	            -0.0285670074        0.0143497193        0.0342205079
	             0.0144441578       -0.0066531251       -0.0341718187
	             0.0321588593       -0.0176763170        0.0051501534
	            -0.0429246195        0.0227788398        0.0267653612
	             0.0567472124       -0.0301289825       -0.0345924538
	             0.0666564405       -0.0352384723       -0.0421599040
	            -0.0228388039        0.0119780300        0.0148220739
	            -0.0211523824        0.0111676381        0.0132887649
	             0.0026469933       -0.0011707677       -0.0077703962
	             0.0070935232       -0.0039706176        0.0015788267
	            -0.0024871531        0.0015967069       -0.0088962015
	             0.0051165515       -0.0029835412        0.0069026660
	            -0.0033654229        0.0015218725        0.0099264484
	            -0.0087846611        0.0050083048       -0.0020126200
	             0.0026844563       -0.0015371451       -0.0005341897
	             0.0018239045       -0.0009762873       -0.0027091527
	             0.0088673935       -0.0046717164       -0.0055474887

	Previous optimization step data not found.  Starting new optimization.

	---Fragment 1 Intrafragment Coordinates---
	 - Coordinate -           - BOHR/RAD -       - ANG/DEG -
	 R(1,3)           =         2.634350	       1.394038
	 R(1,9)           =         2.635962	       1.394891
	 R(1,14)          =         2.054989	       1.087453
	 R(2,4)           =         2.635263	       1.394521
	 R(2,9)           =         2.635830	       1.394821
	 R(2,15)          =         2.054702	       1.087302
	 R(3,11)          =         2.635830	       1.394821
	 R(3,16)          =         2.057860	       1.088972
	 R(4,11)          =         2.636938	       1.395407
	 R(4,17)          =         2.056823	       1.088424
	 R(5,7)           =         2.622557	       1.387797
	 R(5,10)          =         2.628189	       1.390777
	 R(5,18)          =         2.053134	       1.086472
	 R(6,8)           =         2.621541	       1.387260
	 R(6,10)          =         2.630195	       1.391839
	 R(6,19)          =         2.052341	       1.086052
	 R(7,12)          =         2.531340	       1.339528
	 R(7,20)          =         2.043471	       1.081358
	 R(8,12)          =         2.532660	       1.340226
	 R(8,21)          =         2.044497	       1.081901
	 R(9,10)          =         2.734160	       1.446855
	 R(11,13)         =         2.421445	       1.281373
	 R(12,22)         =         1.926510	       1.019465
	 B(1,3,11)        =         2.094553	     120.009056
	 B(1,3,16)        =         2.069123	     118.552025
	 B(1,9,2)         =         2.093692	     119.959722
	 B(1,9,10)        =         2.095337	     120.053983
	 B(2,4,11)        =         2.093699	     119.960108
	 B(2,4,17)        =         2.069829	     118.592446
	 B(2,9,10)        =         2.094156	     119.986294
	 B(3,1,9)         =         2.094940	     120.031219
	 B(3,1,14)        =         2.079025	     119.119344
	 B(3,11,4)        =         2.094306	     119.994870
	 B(3,11,13)       =         2.094918	     120.029973
	 B(4,2,9)         =         2.095181	     120.045019
	 B(4,2,15)        =         2.079455	     119.143974
	 B(4,11,13)       =         2.093961	     119.975136
	 B(5,7,12)        =         2.096259	     120.106815
	 B(5,7,20)        =         2.162023	     123.874819
	 B(5,10,6)        =         2.092771	     119.906961
	 B(5,10,9)        =         2.095240	     120.048382
	 B(6,8,12)        =         2.096362	     120.112672
	 B(6,8,21)        =         2.161723	     123.857598
	 B(6,10,9)        =         2.095174	     120.044655
	 B(7,5,10)        =         2.073280	     118.790177
	 B(7,5,18)        =         2.089058	     119.694233
	 B(7,12,8)        =         2.134792	     122.314600
	 B(7,12,22)       =         2.074548	     118.862858
	 B(8,6,10)        =         2.072905	     118.768700
	 B(8,6,19)        =         2.090010	     119.748745
	 B(8,12,22)       =         2.073843	     118.822472
	 B(9,1,14)        =         2.109221	     120.849435
	 B(9,2,15)        =         2.108550	     120.811005
	 B(10,5,18)       =         2.120847	     121.515588
	 B(10,6,19)       =         2.120268	     121.482394
	 B(11,3,16)       =         2.119509	     121.438903
	 B(11,4,17)       =         2.119657	     121.447411
	 B(12,7,20)       =         2.024901	     116.018278
	 B(12,8,21)       =         2.025100	     116.029656
	 D(1,3,11,4)      =        -0.000325	      -0.018609
	 D(1,3,11,13)     =        -3.141004	    -179.966279
	 D(1,9,2,4)       =         0.000325	       0.018608
	 D(1,9,2,15)      =        -3.141527	    -179.996257
	 D(1,9,10,5)      =         3.141389	     179.988347
	 D(1,9,10,6)      =        -0.000473	      -0.027091
	 D(2,4,11,3)      =         0.000301	       0.017261
	 D(2,4,11,13)     =         3.140981	     179.964960
	 D(2,9,1,3)       =        -0.000348	      -0.019945
	 D(2,9,1,14)      =         3.141027	     179.967567
	 D(2,9,10,5)      =         0.000000	       0.000000
	 D(2,9,10,6)      =         3.141337	     179.985349
	 D(3,1,9,10)      =         3.141462	     179.992491
	 D(3,11,4,17)     =         3.140700	     179.948827
	 D(4,2,9,10)      =        -3.141485	    -179.993820
	 D(4,11,3,16)     =         3.140472	     179.935781
	 D(5,7,12,8)      =         0.000969	       0.055539
	 D(5,7,12,22)     =         3.140863	     179.958186
	 D(5,10,6,8)      =        -0.001406	      -0.080585
	 D(5,10,6,19)     =        -3.140443	    -179.934112
	 D(6,8,12,7)      =        -0.001357	      -0.077749
	 D(6,8,12,22)     =        -3.141251	    -179.980433
	 D(6,10,5,7)      =         0.001034	       0.059241
	 D(6,10,5,18)     =        -3.140798	    -179.954482
	 D(7,5,10,9)      =        -3.140828	    -179.956176
	 D(7,12,8,21)     =        -3.141289	    -179.982615
	 D(8,6,10,9)      =         3.140455	     179.934830
	 D(8,12,7,20)     =         3.140753	     179.951878
	 D(9,1,3,11)      =         0.000348	       0.019955
	 D(9,1,3,16)      =        -3.140471	    -179.935743
	 D(9,2,4,11)      =        -0.000301	      -0.017270
	 D(9,2,4,17)      =        -3.140734	    -179.950778
	 D(9,10,5,18)     =         0.000525	       0.030102
	 D(9,10,6,19)     =         0.001419	       0.081304
	 D(10,5,7,12)     =        -0.000793	      -0.045420
	 D(10,5,7,20)     =        -3.140427	    -179.933219
	 D(10,6,8,12)     =         0.001552	       0.088921
	 D(10,6,8,21)     =         3.141348	     179.985981
	 D(10,9,1,14)     =        -0.000349	      -0.019997
	 D(10,9,2,15)     =        -0.000152	      -0.008685
	 D(11,3,1,14)     =        -3.141030	    -179.967773
	 D(11,4,2,15)     =         3.141546	     179.997347
	 D(12,7,5,18)     =         3.141035	     179.968047
	 D(12,8,6,19)     =         3.140634	     179.945047
	 D(13,11,3,16)    =        -0.000207	      -0.011889
	 D(13,11,4,17)    =        -0.001806	      -0.103475
	 D(14,1,3,16)     =         0.001336	       0.076530
	 D(15,2,4,17)     =         0.001114	       0.063839
	 D(18,5,7,20)     =         0.001401	       0.080247
	 D(19,6,8,21)     =        -0.002756	      -0.157893
	 D(20,7,12,22)    =        -0.002539	      -0.145475
	 D(21,8,12,22)    =         0.002002	       0.114700

	Current energy   :      -553.6645387266

	Generating empirical Hessian (Schlegel '84) for each fragment.
	Adding user-defined constraint: Fragment 1; Coordinate 64:
		Value =     3.141389; Fixed value    =    -3.141575
		Force =    -3.141482; Force constant =     0.500000
	Removing off-diagonal coupling between coordinate 64 and others.
	Taking RFO optimization step.
	Going to follow RFO solution 1.
	Using RFO vector 1.

	Determining step-restricting scale parameter for RS-RFO.
	Maximum step size allowed    0.10000

	 Iter      |step|        alpha        rfo_root  
	------------------------------------------------
	    0     0.94851       1.00000           1
	    1     0.57033       2.88885           1
	    2     0.35120       7.80641           1
	    3     0.22554      19.18907           1
	    4     0.15524      40.81237           1
	    5     0.11868      70.10035           1
	    6     0.10351      92.31280           1
	    7     0.10017      98.60591           1
	    8     0.10000      98.94078           1
	------------------------------------------------
	Norm of target step-size    0.10000
	Projected energy change by RFO approximation:        -0.1974935253

	Back-transformation to cartesian coordinates...
	Could not converge backtransformation.
	Using first guess instead.

	--- Internal Coordinate Step in ANG or DEG, aJ/ANG or AJ/DEG ---
	 ---------------------------------------------------------------------------
	   Coordinate                Previous        Force       Change         New 
	   ----------                --------       ------       ------       ------
	    1 R(1,3)          =      1.394038    -0.194639    -0.000533     1.393505
	    2 R(1,9)          =      1.394891     0.183883     0.001092     1.395983
	    3 R(1,14)         =      1.087453    -0.064151    -0.000081     1.087373
	    4 R(2,4)          =      1.394521    -0.197542    -0.000543     1.393978
	    5 R(2,9)          =      1.394821     0.185099     0.000614     1.395435
	    6 R(2,15)         =      1.087302    -0.063717    -0.000018     1.087284
	    7 R(3,11)         =      1.394821     0.261576     0.000933     1.395754
	    8 R(3,16)         =      1.088972    -0.059940     0.000133     1.089105
	    9 R(4,11)         =      1.395407     0.258217     0.001131     1.396538
	   10 R(4,17)         =      1.088424    -0.057153    -0.000135     1.088289
	   11 R(5,7)          =      1.387797    -0.199726    -0.000554     1.387244
	   12 R(5,10)         =      1.390777     0.234158     0.001285     1.392062
	   13 R(5,18)         =      1.086472    -0.081593    -0.000121     1.086351
	   14 R(6,8)          =      1.387260    -0.197080    -0.000532     1.386728
	   15 R(6,10)         =      1.391839     0.227488     0.000754     1.392594
	   16 R(6,19)         =      1.086052    -0.079088    -0.000050     1.086002
	   17 R(7,12)         =      1.339528     0.137528     0.000548     1.340076
	   18 R(7,20)         =      1.081358    -0.020978     0.000276     1.081634
	   19 R(8,12)         =      1.340226     0.132741     0.000746     1.340971
	   20 R(8,21)         =      1.081901    -0.024047    -0.000045     1.081856
	   21 R(9,10)         =      1.446855    -0.125257    -0.000399     1.446456
	   22 R(11,13)        =      1.281373    -0.225434    -0.000619     1.280754
	   23 R(12,22)        =      1.019465    -0.094379    -0.000228     1.019238
	   24 B(1,3,11)       =    120.009056     0.000503     0.005671   120.014727
	   25 B(1,3,16)       =    118.552025     0.000209     0.014242   118.566267
	   26 B(1,9,2)        =    119.959722    -0.000936    -0.036765   119.922957
	   27 B(1,9,10)       =    120.053983     0.000443     0.004324   120.058307
	   28 B(2,4,11)       =    119.960108     0.000519     0.025481   119.985590
	   29 B(2,4,17)       =    118.592446     0.000205    -0.002186   118.590260
	   30 B(2,9,10)       =    119.986294     0.000487     0.017726   120.004020
	   31 B(3,1,9)        =    120.031219     0.000604     0.028233   120.059452
	   32 B(3,1,14)       =    119.119344    -0.000525    -0.036214   119.083130
	   33 B(3,11,4)       =    119.994870    -0.001298    -0.041585   119.953285
	   34 B(3,11,13)      =    120.029973     0.000643     0.010139   120.040112
	   35 B(4,2,9)        =    120.045019     0.000605     0.015526   120.060545
	   36 B(4,2,15)       =    119.143974    -0.000533    -0.014135   119.129839
	   37 B(4,11,13)      =    119.975136     0.000658     0.031351   120.006487
	   38 B(5,7,12)       =    120.106815     0.000061    -0.011718   120.095097
	   39 B(5,7,20)       =    123.874819    -0.000179    -0.002513   123.872306
	   40 B(5,10,6)       =    119.906961    -0.001615    -0.061669   119.845292
	   41 B(5,10,9)       =    120.048382     0.000828     0.018449   120.066830
	   42 B(6,8,12)       =    120.112672     0.000063     0.008971   120.121642
	   43 B(6,8,21)       =    123.857598    -0.000173    -0.016362   123.841236
	   44 B(6,10,9)       =    120.044655     0.000796     0.029065   120.073720
	   45 B(7,5,10)       =    118.790177     0.000861     0.037841   118.828018
	   46 B(7,5,18)       =    119.694233    -0.000725    -0.044654   119.649579
	   47 B(7,12,8)       =    122.314600    -0.000228    -0.000966   122.313635
	   48 B(7,12,22)      =    118.862858     0.000109    -0.010983   118.851874
	   49 B(8,6,10)       =    118.768700     0.000873     0.024815   118.793514
	   50 B(8,6,19)       =    119.748745    -0.000738    -0.021345   119.727400
	   51 B(8,12,22)      =    118.822472     0.000112     0.011501   118.833973
	   52 B(9,1,14)       =    120.849435    -0.000078     0.007944   120.857379
	   53 B(9,2,15)       =    120.811005    -0.000072    -0.001463   120.809541
	   54 B(10,5,18)      =    121.515588    -0.000136     0.006777   121.522365
	   55 B(10,6,19)      =    121.482394    -0.000130    -0.003337   121.479057
	   56 B(11,3,16)      =    121.438903    -0.000710    -0.019909   121.418995
	   57 B(11,4,17)      =    121.447411    -0.000725    -0.023430   121.423982
	   58 B(12,7,20)      =    116.018278     0.000121     0.014319   116.032597
	   59 B(12,8,21)      =    116.029656     0.000114     0.007465   116.037122
	   60 D(1,3,11,4)     =     -0.018609     0.000806     0.133264     0.114655
	   61 D(1,3,11,13)    =   -179.966279    -0.000259    -0.042660  -180.008939
	   62 D(1,9,2,4)      =      0.018608     0.003944     0.645597     0.664205
	   63 D(1,9,2,15)     =   -179.996257     0.003422     0.560066  -179.436191
	   64 D(1,9,10,5)     =    179.988347    -0.022150    -3.634626   176.353721
	   65 D(1,9,10,6)     =     -0.027091    -0.013700    -2.248495    -2.275586
	   66 D(2,4,11,3)     =      0.017261    -0.000806    -0.133516    -0.116254
	   67 D(2,4,11,13)    =    179.964960     0.000258     0.042338   180.007298
	   68 D(2,9,1,3)      =     -0.019945    -0.003944    -0.645887    -0.665832
	   69 D(2,9,1,14)     =    179.967567    -0.003423    -0.561043   179.406524
	   70 D(2,9,10,5)     =      0.000000    -0.013714    -2.249895    -2.249895
	   71 D(2,9,10,6)     =    179.985349    -0.005264    -0.864550   179.120798
	   72 D(3,1,9,10)     =    179.992491     0.004489     0.736922   180.729413
	   73 D(3,11,4,17)    =    179.948827    -0.001321    -0.216572   179.732254
	   74 D(4,2,9,10)     =   -179.993820    -0.004484    -0.736456  -180.730276
	   75 D(4,11,3,16)    =    179.935781     0.001322     0.217992   180.153773
	   76 D(5,7,12,8)     =      0.055539     0.000728     0.119956     0.175495
	   77 D(5,7,12,22)    =    179.958186    -0.000292    -0.047799   179.910387
	   78 D(5,10,6,8)     =     -0.080585     0.003949     0.645734     0.565149
	   79 D(5,10,6,19)    =   -179.934112     0.003431     0.560988  -179.373124
	   80 D(6,8,12,7)     =     -0.077749    -0.000727    -0.119936    -0.197685
	   81 D(6,8,12,22)    =   -179.980433     0.000292     0.047811  -179.932623
	   82 D(6,10,5,7)     =      0.059241    -0.003949    -0.645892    -0.586651
	   83 D(6,10,5,18)    =   -179.954482    -0.003432    -0.561752  -180.516234
	   84 D(7,5,10,9)     =   -179.956176     0.004489     0.737071  -179.219105
	   85 D(7,12,8,21)    =   -179.982615    -0.001311    -0.215150  -180.197765
	   86 D(8,6,10,9)     =    179.934830    -0.004489    -0.737323   179.197507
	   87 D(8,12,7,20)    =    179.951878     0.001312     0.215753   180.167631
	   88 D(9,1,3,11)     =      0.019955     0.001570     0.256709     0.276664
	   89 D(9,1,3,16)     =   -179.935743     0.001069     0.174397  -179.761346
	   90 D(9,2,4,11)     =     -0.017270    -0.001570    -0.256311    -0.273582
	   91 D(9,2,4,17)     =   -179.950778    -0.001070    -0.175579  -180.126357
	   92 D(9,10,5,18)    =      0.030102     0.005006     0.821210     0.851312
	   93 D(9,10,6,19)    =      0.081304    -0.005007    -0.822070    -0.740766
	   94 D(10,5,7,12)    =     -0.045420     0.001626     0.265871     0.220451
	   95 D(10,5,7,20)    =   -179.933219     0.000994     0.162181  -179.771038
	   96 D(10,6,8,12)    =      0.088921    -0.001627    -0.265779    -0.176859
	   97 D(10,6,8,21)    =    179.985981    -0.000995    -0.162753   179.823228
	   98 D(10,9,1,14)    =     -0.019997     0.005011     0.821766     0.801769
	   99 D(10,9,2,15)    =     -0.008685    -0.005006    -0.821987    -0.830672
	  100 D(11,3,1,14)    =   -179.967773     0.001058     0.173362  -179.794411
	  101 D(11,4,2,15)    =    179.997347    -0.001056    -0.172216   179.825131
	  102 D(12,7,5,18)    =    179.968047     0.001119     0.183335   180.151382
	  103 D(12,8,6,19)    =    179.945047    -0.001117    -0.182526   179.762521
	  104 D(13,11,3,16)   =     -0.011889     0.000258     0.042068     0.030180
	  105 D(13,11,4,17)   =     -0.103475    -0.000257    -0.040719    -0.144194
	  106 D(14,1,3,16)    =      0.076530     0.000557     0.091050     0.167579
	  107 D(15,2,4,17)    =      0.063839    -0.000556    -0.091484    -0.027645
	  108 D(18,5,7,20)    =      0.080247     0.000486     0.079645     0.159892
	  109 D(19,6,8,21)    =     -0.157893    -0.000485    -0.079500    -0.237393
	  110 D(20,7,12,22)   =     -0.145475     0.000293     0.047998    -0.097477
	  111 D(21,8,12,22)   =      0.114700    -0.000292    -0.047402     0.067298
	 ---------------------------------------------------------------------------
	Successfully symmetrized geometry.
	 Forces used to impose fixed constraints are not included.
	  Forces zeroed: 64 

  ==> Convergence Check <==

  Measures of convergence in internal coordinates in au.
  Criteria marked as inactive (o), active & met (*), and active & unmet ( ).
  --------------------------------------------------------------------------------------------- ~
   Step     Total Energy     Delta E     MAX Force     RMS Force      MAX Disp      RMS Disp    ~
  --------------------------------------------------------------------------------------------- ~
    Convergence Criteria    1.00e-06 *    3.00e-04 *             o    1.20e-03 *             o  ~
  --------------------------------------------------------------------------------------------- ~
      1    -553.66453873   -5.54e+02      7.86e-01      1.47e-01 o    6.34e-02      9.49e-03 o  ~
  ---------------------------------------------------------------------------------------------

	Writing optimization data to binary file.
	Structure for next step:
	Cartesian Geometry (in Angstrom)
	    C    -1.2920053687   0.7449037784  -0.5571434714
	    C    -0.3212029089   0.0881689901   1.5560804789
	    C    -2.3621951934   1.3310933168   0.1158582041
	    C    -1.3912868803   0.6742814908   2.2302973619
	    C     1.8978527137  -1.0375858340   0.1827780397
	    C     0.8852732565  -0.4667449433  -1.9280227422
	    C     2.9655377851  -1.5863281606  -0.5124737460
	    C     1.9784978248  -1.0293869422  -2.5693560272
	    C    -0.2735887062   0.1165787467   0.1617471737
	    C     0.8452001163  -0.4780839715  -0.5360520789
	    C    -2.4139262775   1.2955605686   1.5102004320
	    N     2.9751598416  -1.5686840747  -1.8523988815
	    O    -3.3972113094   1.8343155853   2.1292517438
	    H    -1.2653051655   0.7843798774  -1.6434712094
	    H     0.4688042533  -0.3892524386   2.1306620577
	    H    -3.1452589391   1.8112821681  -0.4692744086
	    H    -1.4052410179   0.6364108833   3.3178375379
	    H     1.8986896829  -1.0536061149   1.2690103522
	    H     0.0835457860  -0.0283041535  -2.5148818202
	    H     3.8225859160  -2.0444596400  -0.0375883769
	    H     2.0923378170  -1.0675593734  -3.6445286504
	    H     3.7697548713  -1.9759315492  -2.3439406627
			--------------------------
			 OPTKING Finished Execution 
			--------------------------

    Structure for next step:
    Molecular point group: c1
    Full point group: C1

    Geometry (in Angstrom), charge = 0, multiplicity = 1:

    C           -1.291482312821     0.745782187683    -0.557131247279
    C           -0.320679853049     0.089047399403     1.556092702997
    C           -2.361672137516     1.331971726035     0.115870428260
    C           -1.390763824433     0.675159900033     2.230309586035
    C            1.898375769571    -1.036707424758     0.182790263817
    C            0.885796312377    -0.465866534046    -1.928010518067
    C            2.966060840954    -1.585449751334    -0.512461521919
    C            1.979020880615    -1.028508532949    -2.569343803082
    C           -0.273065650319     0.117457155923     0.161759397864
    C            0.845723172121    -0.477205562272    -0.536039854799
    C           -2.413403221634     1.296438977827     1.510212656086
    N            2.975682897485    -1.567805665460    -1.852386657395
    O           -3.396688253586     1.835193994511     2.129263967930
    H           -1.264782109635     0.785258286610    -1.643458985314
    H            0.469327309209    -0.388374029305     2.130674281839
    H           -3.144735883201     1.812160577360    -0.469262184467
    H           -1.404717962045     0.637289292569     3.317849761974
    H            1.899212738736    -1.052727705631     1.269022576300
    H            0.084068841882    -0.027425744260    -2.514869596115
    H            3.823108971884    -2.043581230702    -0.037576152753
    H            2.092860872894    -1.066680964095    -3.644516426291
    H            3.770277927146    -1.975053139932    -2.343928438592

gradient() will perform analytic gradient computation.

*** tstart() called on gpu-1-8.local
*** at Sun Nov 12 16:06:51 2017

    SCF Algorithm Type (re)set to DF.

*** tstart() called on gpu-1-8.local
*** at Sun Nov 12 16:06:51 2017

   => Loading Basis Set <=

    Name: AUG-CC-PVTZ
    Role: ORBITAL
    Keyword: BASIS
    atoms 1-11  entry C          line   221 file /cbio/jclab/home/chayas/anaconda/envs/py35/share/psi4/basis/aug-cc-pvtz.gbs 
    atoms 12    entry N          line   267 file /cbio/jclab/home/chayas/anaconda/envs/py35/share/psi4/basis/aug-cc-pvtz.gbs 
    atoms 13    entry O          line   313 file /cbio/jclab/home/chayas/anaconda/envs/py35/share/psi4/basis/aug-cc-pvtz.gbs 
    atoms 14-22 entry H          line    34 file /cbio/jclab/home/chayas/anaconda/envs/py35/share/psi4/basis/aug-cc-pvtz.gbs 


         ---------------------------------------------------------
                                   SCF
            by Justin Turney, Rob Parrish, and Andy Simmonett
                              RHF Reference
                        8 Threads,   4768 MiB Core
         ---------------------------------------------------------

  ==> Geometry <==

    Molecular point group: c1
    Full point group: C1

    Geometry (in Angstrom), charge = 0, multiplicity = 1:

       Center              X                  Y                   Z               Mass       
    ------------   -----------------  -----------------  -----------------  -----------------
           C         -1.291482312821     0.745782187683    -0.557131247279    12.000000000000
           C         -0.320679853049     0.089047399403     1.556092702997    12.000000000000
           C         -2.361672137516     1.331971726035     0.115870428260    12.000000000000
           C         -1.390763824433     0.675159900033     2.230309586035    12.000000000000
           C          1.898375769571    -1.036707424758     0.182790263817    12.000000000000
           C          0.885796312377    -0.465866534046    -1.928010518067    12.000000000000
           C          2.966060840954    -1.585449751334    -0.512461521919    12.000000000000
           C          1.979020880615    -1.028508532949    -2.569343803082    12.000000000000
           C         -0.273065650319     0.117457155923     0.161759397864    12.000000000000
           C          0.845723172121    -0.477205562272    -0.536039854799    12.000000000000
           C         -2.413403221634     1.296438977827     1.510212656086    12.000000000000
           N          2.975682897485    -1.567805665460    -1.852386657395    14.003074004780
           O         -3.396688253586     1.835193994511     2.129263967930    15.994914619560
           H         -1.264782109635     0.785258286610    -1.643458985314     1.007825032070
           H          0.469327309209    -0.388374029305     2.130674281839     1.007825032070
           H         -3.144735883201     1.812160577360    -0.469262184467     1.007825032070
           H         -1.404717962045     0.637289292569     3.317849761974     1.007825032070
           H          1.899212738736    -1.052727705631     1.269022576300     1.007825032070
           H          0.084068841882    -0.027425744260    -2.514869596115     1.007825032070
           H          3.823108971884    -2.043581230702    -0.037576152753     1.007825032070
           H          2.092860872894    -1.066680964095    -3.644516426291     1.007825032070
           H          3.770277927146    -1.975053139932    -2.343928438592     1.007825032070

  Running in c1 symmetry.

  Rotational constants: A =      0.09641  B =      0.01386  C =      0.01212 [cm^-1]
  Rotational constants: A =   2890.21383  B =    415.58719  C =    363.39551 [MHz]
  Nuclear repulsion =  702.028190936638339

  Charge       = 0
  Multiplicity = 1
  Electrons    = 90
  Nalpha       = 45
  Nbeta        = 45

  ==> Algorithm <==

  SCF Algorithm Type is DF.
  DIIS enabled.
  MOM disabled.
  Fractional occupation disabled.
  Guess Type is READ.
  Energy threshold   = 1.00e-10
  Density threshold  = 1.00e-10
  Integral threshold = 0.00e+00

  ==> Primary Basis <==

  Basis Set: AUG-CC-PVTZ
    Blend: AUG-CC-PVTZ
    Number of shells: 263
    Number of basis function: 805
    Number of Cartesian functions: 940
    Spherical Harmonics?: true
    Max angular momentum: 3

   => Loading Basis Set <=

    Name: (AUG-CC-PVTZ AUX)
    Role: JKFIT
    Keyword: DF_BASIS_SCF
    atoms 1-11  entry C          line   161 file /cbio/jclab/home/chayas/anaconda/envs/py35/share/psi4/basis/aug-cc-pvtz-jkfit.gbs 
    atoms 12    entry N          line   223 file /cbio/jclab/home/chayas/anaconda/envs/py35/share/psi4/basis/aug-cc-pvtz-jkfit.gbs 
    atoms 13    entry O          line   285 file /cbio/jclab/home/chayas/anaconda/envs/py35/share/psi4/basis/aug-cc-pvtz-jkfit.gbs 
    atoms 14-22 entry H          line    69 file /cbio/jclab/home/chayas/anaconda/envs/py35/share/psi4/basis/aug-cc-pvtz-jkfit.gbs 

  Reading orbitals from file 180, no projection.

  ==> Pre-Iterations <==

   -------------------------------------------------------
    Irrep   Nso     Nmo     Nalpha   Nbeta   Ndocc  Nsocc
   -------------------------------------------------------
     A        805     805       0       0       0       0
   -------------------------------------------------------
    Total     805     805      45      45      45       0
   -------------------------------------------------------

  ==> Integral Setup <==

  ==> DFJK: Density-Fitted J/K Matrices <==

    J tasked:                  Yes
    K tasked:                  Yes
    wK tasked:                  No
    OpenMP threads:              8
    Integrals threads:           8
    Memory (MB):              3576
    Algorithm:                Disk
    Integral Cache:           NONE
    Schwarz Cutoff:          1E-12
    Fitting Condition:       1E-12

   => Auxiliary Basis Set <=

  Basis Set: (AUG-CC-PVTZ AUX)
    Blend: AUG-CC-PVTZ-JKFIT
    Number of shells: 516
    Number of basis function: 1766
    Number of Cartesian functions: 2198
    Spherical Harmonics?: true
    Max angular momentum: 4

  Minimum eigenvalue in the overlap matrix is 3.2036227798E-07.
  Using Symmetric Orthogonalization.

  SCF Guess: Orbitals guess was supplied from a previous computation.

  ==> Iterations <==

                           Total Energy        Delta E     RMS |[F,P]|

   @DF-RHF iter   0:  -551.22553852878275   -5.51226e+02   4.63394e-04 
   @DF-RHF iter   1:  -551.21598578323119    9.55275e-03   6.07088e-05 
   @DF-RHF iter   2:  -551.21642837428965   -4.42591e-04   1.73133e-05 DIIS
   @DF-RHF iter   3:  -551.21648258367236   -5.42094e-05   1.06754e-05 DIIS
   @DF-RHF iter   4:  -551.21649762744482   -1.50438e-05   4.72096e-06 DIIS
   @DF-RHF iter   5:  -551.21650036968458   -2.74224e-06   1.92882e-06 DIIS
   @DF-RHF iter   6:  -551.21650121482128   -8.45137e-07   7.45303e-07 DIIS
   @DF-RHF iter   7:  -551.21650136377650   -1.48955e-07   3.64080e-07 DIIS
   @DF-RHF iter   8:  -551.21650139194742   -2.81709e-08   1.83881e-07 DIIS
   @DF-RHF iter   9:  -551.21650139951305   -7.56563e-09   6.04645e-08 DIIS
   @DF-RHF iter  10:  -551.21650140042914   -9.16089e-10   2.77194e-08 DIIS
   @DF-RHF iter  11:  -551.21650140047780   -4.86580e-11   6.97924e-09 DIIS
   @DF-RHF iter  12:  -551.21650140048826   -1.04592e-11   2.09543e-09 DIIS
   @DF-RHF iter  13:  -551.21650140045108    3.71756e-11   1.45598e-09 DIIS
   @DF-RHF iter  14:  -551.21650140049462   -4.35421e-11   4.46683e-10 DIIS
   @DF-RHF iter  15:  -551.21650140048348    1.11413e-11   2.35936e-10 DIIS
   @DF-RHF iter  16:  -551.21650140050826   -2.47837e-11   9.72521e-11 DIIS

  ==> Post-Iterations <==

    Orbital Energies (a.u.)
    -----------------------

    Doubly Occupied:                                                      

       1A    -20.440718     2A    -15.688570     3A    -11.350217  
       4A    -11.350169     5A    -11.301734     6A    -11.279277  
       7A    -11.279165     8A    -11.252124     9A    -11.232655  
      10A    -11.232546    11A    -11.218156    12A    -11.194147  
      13A    -11.194125    14A     -1.375638    15A     -1.264091  
      16A     -1.178066    17A     -1.109553    18A     -1.104132  
      19A     -1.001556    20A     -0.991626    21A     -0.933719  
      22A     -0.900982    23A     -0.830617    24A     -0.817952  
      25A     -0.787179    26A     -0.727149    27A     -0.716205  
      28A     -0.700193    29A     -0.667493    30A     -0.647671  
      31A     -0.619390    32A     -0.613743    33A     -0.604514  
      34A     -0.588588    35A     -0.557946    36A     -0.536586  
      37A     -0.524248    38A     -0.485581    39A     -0.483991  
      40A     -0.470795    41A     -0.415308    42A     -0.390033  
      43A     -0.350576    44A     -0.328268    45A     -0.236755  

    Virtual:                                                              

      46A     -0.005946    47A      0.012288    48A      0.024405  
      49A      0.024749    50A      0.037567    51A      0.043463  
      52A      0.048932    53A      0.058384    54A      0.060244  
      55A      0.061574    56A      0.068393    57A      0.072142  
      58A      0.078992    59A      0.081644    60A      0.083473  
      61A      0.089417    62A      0.090158    63A      0.099346  
      64A      0.108051    65A      0.111793    66A      0.115329  
      67A      0.123558    68A      0.124315    69A      0.127495  
      70A      0.131112    71A      0.134937    72A      0.140928  
      73A      0.141945    74A      0.142915    75A      0.146606  
      76A      0.152699    77A      0.159390    78A      0.161369  
      79A      0.167224    80A      0.169192    81A      0.176772  
      82A      0.178032    83A      0.179683    84A      0.185543  
      85A      0.188562    86A      0.192164    87A      0.197351  
      88A      0.197908    89A      0.202763    90A      0.204656  
      91A      0.216172    92A      0.216465    93A      0.220091  
      94A      0.233620    95A      0.241090    96A      0.241729  
      97A      0.248066    98A      0.251053    99A      0.254126  
     100A      0.261584   101A      0.262949   102A      0.264777  
     103A      0.268357   104A      0.272244   105A      0.275217  
     106A      0.276784   107A      0.279398   108A      0.291032  
     109A      0.292842   110A      0.297775   111A      0.299570  
     112A      0.306709   113A      0.308489   114A      0.314146  
     115A      0.315546   116A      0.320987   117A      0.332781  
     118A      0.339521   119A      0.343178   120A      0.346620  
     121A      0.350306   122A      0.350894   123A      0.353791  
     124A      0.359003   125A      0.359844   126A      0.371839  
     127A      0.372911   128A      0.375239   129A      0.378185  
     130A      0.381448   131A      0.386970   132A      0.398606  
     133A      0.402775   134A      0.405146   135A      0.407095  
     136A      0.414785   137A      0.418668   138A      0.420398  
     139A      0.427347   140A      0.434595   141A      0.436368  
     142A      0.441038   143A      0.448253   144A      0.448893  
     145A      0.451869   146A      0.452930   147A      0.454539  
     148A      0.455127   149A      0.463613   150A      0.468029  
     151A      0.469437   152A      0.472332   153A      0.472933  
     154A      0.474543   155A      0.477019   156A      0.482196  
     157A      0.487770   158A      0.498824   159A      0.502037  
     160A      0.503255   161A      0.505026   162A      0.509260  
     163A      0.520527   164A      0.521111   165A      0.524436  
     166A      0.533248   167A      0.535525   168A      0.539750  
     169A      0.544089   170A      0.549310   171A      0.551063  
     172A      0.553417   173A      0.557806   174A      0.560869  
     175A      0.563046   176A      0.565598   177A      0.582685  
     178A      0.584353   179A      0.590155   180A      0.595797  
     181A      0.606689   182A      0.611502   183A      0.624570  
     184A      0.624887   185A      0.638410   186A      0.642270  
     187A      0.645564   188A      0.649106   189A      0.650944  
     190A      0.656115   191A      0.661914   192A      0.663793  
     193A      0.677785   194A      0.681502   195A      0.682904  
     196A      0.687932   197A      0.691492   198A      0.701865  
     199A      0.705347   200A      0.715092   201A      0.718763  
     202A      0.722474   203A      0.723275   204A      0.732958  
     205A      0.737760   206A      0.746935   207A      0.753910  
     208A      0.759121   209A      0.764416   210A      0.770349  
     211A      0.774702   212A      0.775892   213A      0.786240  
     214A      0.787963   215A      0.801401   216A      0.803929  
     217A      0.815875   218A      0.818801   219A      0.829149  
     220A      0.832713   221A      0.836586   222A      0.841467  
     223A      0.850367   224A      0.854816   225A      0.856223  
     226A      0.861192   227A      0.865114   228A      0.871378  
     229A      0.874633   230A      0.877441   231A      0.882179  
     232A      0.901696   233A      0.902214   234A      0.907855  
     235A      0.908911   236A      0.914427   237A      0.917354  
     238A      0.926408   239A      0.928062   240A      0.928977  
     241A      0.930161   242A      0.931535   243A      0.936068  
     244A      0.944072   245A      0.949980   246A      0.951431  
     247A      0.955579   248A      0.956076   249A      0.963425  
     250A      0.967385   251A      0.970244   252A      0.970534  
     253A      0.973336   254A      0.983199   255A      0.992312  
     256A      0.994001   257A      0.997409   258A      1.005307  
     259A      1.008241   260A      1.011490   261A      1.015221  
     262A      1.019239   263A      1.020737   264A      1.029616  
     265A      1.036290   266A      1.037781   267A      1.039404  
     268A      1.048139   269A      1.056256   270A      1.057021  
     271A      1.059270   272A      1.064194   273A      1.073026  
     274A      1.083166   275A      1.087437   276A      1.090649  
     277A      1.093147   278A      1.101543   279A      1.108462  
     280A      1.111042   281A      1.114426   282A      1.119824  
     283A      1.128904   284A      1.136542   285A      1.140778  
     286A      1.141334   287A      1.145897   288A      1.159027  
     289A      1.163053   290A      1.167101   291A      1.173671  
     292A      1.174681   293A      1.182037   294A      1.183485  
     295A      1.186575   296A      1.194532   297A      1.195562  
     298A      1.197996   299A      1.218482   300A      1.219779  
     301A      1.220940   302A      1.231127   303A      1.234270  
     304A      1.234542   305A      1.237648   306A      1.241261  
     307A      1.250131   308A      1.255182   309A      1.260670  
     310A      1.267915   311A      1.281204   312A      1.283430  
     313A      1.289396   314A      1.292247   315A      1.292893  
     316A      1.301541   317A      1.307641   318A      1.310639  
     319A      1.314711   320A      1.318703   321A      1.329270  
[...]
	 --------------------------------------------------------
	   CLASS    FOCC     OCC    AOCC    AVIR     VIR    FVIR
	   PAIRS       0      45      45     760     760       0
	 --------------------------------------------------------


         ------------------------------------------------------------
                                     CPHF                           
                                  Rob Parrish                       
         ------------------------------------------------------------

  ==> Geometry <==

    Molecular point group: c1
    Full point group: C1

    Geometry (in Angstrom), charge = 0, multiplicity = 1:

       Center              X                  Y                   Z               Mass       
    ------------   -----------------  -----------------  -----------------  -----------------
           C         -1.254190724323     0.801370523821    -0.548308363509    12.000000000000
           C         -0.409866955552    -0.048109466458     1.550932709860    12.000000000000
           C         -2.283371203452     1.451021225193     0.124469536572    12.000000000000
           C         -1.437972878479     0.600276274725     2.227429804813    12.000000000000
           C          1.928580794879    -0.968937470802     0.176514263909    12.000000000000
           C          0.816246543861    -0.617036782694    -1.932180828723    12.000000000000
           C          3.026524993887    -1.451356187274    -0.514897304023    12.000000000000
           C          1.941159220705    -1.107483826946    -2.571821091709    12.000000000000
           C         -0.332630675515     0.012266438169     0.154862787535    12.000000000000
           C          0.787684117623    -0.582269336197    -0.535510826237    12.000000000000
           C         -2.386564096785     1.347406789744     1.516423234870    12.000000000000
           N          3.002075666826    -1.514879805137    -1.855043309003    14.003074004780
           O         -3.328819002525     1.947004581156     2.136428929543    15.994914619560
           H         -1.183102437685     0.910904254521    -1.627409917487     1.007825032070
           H          0.325630977729    -0.607847654983     2.123324689791     1.007825032070
           H         -2.993707028374     2.041711503486    -0.453275182024     1.007825032070
           H         -1.479329563163     0.520105430527     3.311229283070     1.007825032070
           H          1.968307537211    -0.905808668520     1.259678204547     1.007825032070
           H         -0.027158108056    -0.272764532025    -2.522810778507     1.007825032070
           H          3.939752467873    -1.786069541262    -0.038851563443     1.007825032070
           H          2.036603719909    -1.182692132899    -3.646569420867     1.007825032070
           H          3.821553672251    -1.867863461443    -2.345142700499     1.007825032070

  Nuclear repulsion =  701.256192899720304
  Reference energy  = -551.219393602550554

  ==> Basis Set <==

  Basis Set: AUG-CC-PVTZ
    Blend: AUG-CC-PVTZ
    Number of shells: 263
    Number of basis function: 805
    Number of Cartesian functions: 940
    Spherical Harmonics?: true
    Max angular momentum: 3

  ==> CGRSolver (by Rob Parrish) <==

   Number of roots    =         1
   Preconditioning    =    JACOBI
   Convergence cutoff =     1E-06
   Maximum iterations =       100

  ==> CPHFRHamiltonian (by Rob Parrish) <== 

  ==> DFJK: Density-Fitted J/K Matrices <==

    J tasked:                  Yes
    K tasked:                  Yes
    wK tasked:                  No
    OpenMP threads:              8
    Integrals threads:           8
    Memory (MB):              3576
    Algorithm:                Disk
    Integral Cache:           NONE
    Schwarz Cutoff:          1E-12
    Fitting Condition:       1E-12

   => Auxiliary Basis Set <=

  Basis Set: (AUG-CC-PVTZ AUX)
    Blend: AUG-CC-PVTZ-JKFIT
    Number of shells: 516
    Number of basis function: 1766
    Number of Cartesian functions: 2198
    Spherical Harmonics?: true
    Max angular momentum: 4

  ==> CPHF Iterations <==

  => Iterations <=

             Iter  Converged  Remaining    Residual
  CGR           1          0          1   1.604E-01
  CGR           2          0          1   6.336E-02
  CGR           3          0          1   3.098E-02
  CGR           4          0          1   9.250E-03
  CGR           5          0          1   3.179E-03
  CGR           6          0          1   1.140E-03
  CGR           7          0          1   4.244E-04
  CGR           8          0          1   1.584E-04
  CGR           9          0          1   5.885E-05
  CGR          10          0          1   2.579E-05
  CGR          11          0          1   1.347E-05
  CGR          12          0          1   4.218E-06
  CGR          13          0          1   1.936E-06
  CGR          14          1          0   6.536E-07

    CGRSolver converged.

  ==> DFCorrGrad: Density-Fitted Correlated Gradients <==

    OpenMP threads:              8
    Integrals threads:           8
    Memory (MB):              3576
    Schwarz Cutoff:          0E+00
    Fitting Condition:       1E-12

   => Auxiliary Basis Set <=

  Basis Set: (AUG-CC-PVTZ AUX)
    Blend: AUG-CC-PVTZ-JKFIT
    Number of shells: 516
    Number of basis function: 1766
    Number of Cartesian functions: 2198
    Spherical Harmonics?: true
    Max angular momentum: 4

	-----------------------------------------------------------
	 ==================> DF-MP2 Energies <==================== 
	-----------------------------------------------------------
	 Reference Energy          =    -551.2193936025505536 [Eh]
	 Singles Energy            =      -0.0000000000000001 [Eh]
	 Same-Spin Energy          =      -0.6057788628265508 [Eh]
	 Opposite-Spin Energy      =      -1.8408258848370793 [Eh]
	 Correlation Energy        =      -2.4466047476636303 [Eh]
	 Total Energy              =    -553.6659983502141813 [Eh]
	-----------------------------------------------------------
	 ================> DF-SCS-MP2 Energies <================== 
	-----------------------------------------------------------
	 SCS Same-Spin Scale       =       0.3333333333333333 [-]
	 SCS Opposite-Spin Scale   =       1.2000000000000000 [-]
	 SCS Same-Spin Energy      =      -0.2019262876088503 [Eh]
	 SCS Opposite-Spin Energy  =      -2.2089910618044950 [Eh]
	 SCS Correlation Energy    =      -2.4109173494133453 [Eh]
	 SCS Total Energy          =    -553.6303109519639065 [Eh]
	-----------------------------------------------------------


  -Total Gradient:
     Atom            X                  Y                   Z
    ------   -----------------  -----------------  -----------------
       1        0.032828519898    -0.011447902677    -0.003321784147
       2        0.019882039769    -0.010201634040    -0.027360561624
       3       -0.027307059458     0.012808474914     0.049777470412
       4       -0.047264465482     0.032679418764     0.000246336759
       5       -0.032187381816     0.022288503718     0.007499946169
       6       -0.024526587947     0.013139196645     0.028393378621
       7        0.012393376549    -0.005829203600    -0.030277263553
       8        0.028896034127    -0.012414589822     0.004008675967
       9       -0.040791194322     0.014427096255     0.022616323785
      10        0.045188147525    -0.035323240079    -0.030402535406
      11        0.057991438573    -0.036460269152    -0.038970035773
      12       -0.020327228975     0.009643686433     0.013882552251
      13       -0.018154951783     0.012184481340     0.011964459965
      14        0.001240302431    -0.000474919454    -0.006304244233
      15        0.006227053837    -0.001765508419     0.002090953014
      16       -0.003114301018     0.001831219799    -0.009135313861
      17        0.004582357134    -0.003741623539     0.006439458197
      18       -0.002256721779     0.000516168945     0.008446902738
      19       -0.006953643990     0.004795982669    -0.002247569070
      20        0.003516092007    -0.002295935436     0.000161973419
      21        0.001659503971    -0.000795671824    -0.002691026963
      22        0.008478670739    -0.003563731441    -0.004818096671


*** tstop() called on gpu-1-8.local at Sun Nov 12 19:54:51 2017
Module time:
	user time   =    4564.15 seconds =      76.07 minutes
	system time =     102.79 seconds =       1.71 minutes
	total time  =       2073 seconds =      34.55 minutes
Total time:
	user time   =   35529.11 seconds =     592.15 minutes
	system time =     825.17 seconds =      13.75 minutes
	total time  =      16071 seconds =     267.85 minutes

			-----------------------------------------
			 OPTKING 2.0: for geometry optimizations 
			  - R.A. King,  Bethel University        
			-----------------------------------------

	Previous internal coordinate definitions found.
	---Fragment 1 Geometry and Gradient---
	 C          -2.3700769874        1.5143708210       -1.0361526434
	 C          -0.7745362969       -0.0909137160        2.9308380722
	 C          -4.3149462342        2.7420327286        0.2352133360
	 C          -2.7173749268        1.1343577633        4.2092323113
	 C           3.6444895275       -1.8310264597        0.3335636173
	 C           1.5424824248       -1.1660305332       -3.6512926055
	 C           5.7193033728       -2.7426657152       -0.9730148912
	 C           3.6682593075       -2.0928411295       -4.8600375261
	 C          -0.6285808801        0.0231802088        0.2926482566
	 C           1.4885072615       -1.1003295810       -1.0119688028
	 C          -4.5099525415        2.5462298222        2.8656246154
	 N           5.6731008405       -2.8627079559       -3.5055238187
	 O          -6.2905562607        3.6793054379        4.0372655792
	 H          -2.2357395944        1.7213595743       -3.0753590500
	 H           0.6153533683       -1.1486655984        4.0125021549
	 H          -5.6572864057        3.8582755840       -0.8565659569
	 H          -2.7955277347        0.9828568239        6.2573165082
	 H           3.7195621906       -1.7117303123        2.3804468222
	 H          -0.0513213865       -0.5154502643       -4.7674214565
	 H           7.4450531956       -3.3751822873       -0.0734188147
	 H           3.8486232718       -2.2349642307       -6.8910175300
	 H           7.2216898427       -3.5297503958       -4.4316774465
	             0.0328285199       -0.0114479027       -0.0033217841
	             0.0198820398       -0.0102016340       -0.0273605616
	            -0.0273070595        0.0128084749        0.0497774704
	            -0.0472644655        0.0326794188        0.0002463368
	            -0.0321873818        0.0222885037        0.0074999462
	            -0.0245265879        0.0131391966        0.0283933786
	             0.0123933765       -0.0058292036       -0.0302772636
	             0.0288960341       -0.0124145898        0.0040086760
	            -0.0407911943        0.0144270963        0.0226163238
	             0.0451881475       -0.0353232401       -0.0304025354
	             0.0579914386       -0.0364602692       -0.0389700358
	            -0.0203272290        0.0096436864        0.0138825523
	            -0.0181549518        0.0121844813        0.0119644600
	             0.0012403024       -0.0004749195       -0.0063042442
	             0.0062270538       -0.0017655084        0.0020909530
	            -0.0031143010        0.0018312198       -0.0091353139
	             0.0045823571       -0.0037416235        0.0064394582
	            -0.0022567218        0.0005161689        0.0084469027
	            -0.0069536440        0.0047959827       -0.0022475691
	             0.0035160920       -0.0022959354        0.0001619734
	             0.0016595040       -0.0007956718       -0.0026910270
	             0.0084786707       -0.0035637314       -0.0048180967

	---Fragment 1 Intrafragment Coordinates---
	 - Coordinate -           - BOHR/RAD -       - ANG/DEG -
	 R(1,3)           =         2.627935	       1.390643
	 R(1,9)           =         2.649938	       1.402287
	 R(1,14)          =         2.054082	       1.086973
	 R(2,4)           =         2.628727	       1.391062
	 R(2,9)           =         2.644686	       1.399508
	 R(2,15)          =         2.054417	       1.087151
	 R(3,11)          =         2.644887	       1.399614
	 R(3,16)          =         2.059091	       1.089624
	 R(4,11)          =         2.648018	       1.401271
	 R(4,17)          =         2.055166	       1.087547
	 R(5,7)           =         2.615929	       1.384290
	 R(5,10)          =         2.644359	       1.399335
	 R(5,18)          =         2.051731	       1.085729
	 R(6,8)           =         2.615142	       1.383874
	 R(6,10)          =         2.640693	       1.397395
	 R(6,19)          =         2.051636	       1.085679
	 R(7,12)          =         2.535773	       1.341873
	 R(7,20)          =         2.046354	       1.082884
	 R(8,12)          =         2.539053	       1.343609
	 R(8,21)          =         2.043920	       1.081596
	 R(9,10)          =         2.728802	       1.444020
	 R(11,13)         =         2.413950	       1.277407
	 R(12,22)         =         1.923755	       1.018007
	 B(1,3,11)        =         2.095692	     120.074286
	 B(1,3,16)        =         2.070532	     118.632768
	 B(1,9,2)         =         2.080848	     119.223787
	 B(1,9,10)        =         2.096490	     120.120052
	 B(2,4,11)        =         2.096802	     120.137887
	 B(2,4,17)        =         2.069612	     118.580055
	 B(2,9,10)        =         2.096673	     120.130530
	 B(3,1,9)         =         2.102095	     120.441196
	 B(3,1,14)        =         2.073288	     118.790681
	 B(3,11,4)        =         2.087693	     119.615998
	 B(3,11,13)       =         2.097102	     120.155085
	 B(4,2,9)         =         2.101108	     120.384636
	 B(4,2,15)        =         2.075959	     118.943690
	 B(4,11,13)       =         2.098249	     120.220822
	 B(5,7,12)        =         2.095404	     120.057799
	 B(5,7,20)        =         2.161601	     123.850617
	 B(5,10,6)        =         2.077191	     119.014278
	 B(5,10,9)        =         2.097916	     120.201715
	 B(6,8,12)        =         2.097548	     120.180629
	 B(6,8,21)        =         2.159951	     123.756053
	 B(6,10,9)        =         2.098957	     120.261349
	 B(7,5,10)        =         2.081526	     119.262664
	 B(7,5,18)        =         2.082349	     119.309820
	 B(7,12,8)        =         2.132724	     122.196064
	 B(7,12,22)       =         2.074369	     118.852589
	 B(8,6,10)        =         2.079909	     119.170019
	 B(8,6,19)        =         2.085649	     119.498911
	 B(8,12,22)       =         2.075926	     118.941820
	 B(9,1,14)        =         2.107773	     120.766482
	 B(9,2,15)        =         2.106084	     120.669702
	 B(10,5,18)       =         2.119281	     121.425856
	 B(10,6,19)       =         2.117611	     121.330159
	 B(11,3,16)       =         2.116932	     121.291290
	 B(11,4,17)       =         2.116728	     121.279580
	 B(12,7,20)       =         2.026146	     116.089636
	 B(12,8,21)       =         2.025653	     116.061342
	 D(1,3,11,4)      =         0.014114	       0.808680
	 D(1,3,11,13)     =         3.137685	     179.776097
	 D(1,9,2,4)       =         0.068505	       3.925044
	 D(1,9,2,15)      =        -3.082097	    -176.591153
	 D(1,9,10,5)      =         2.760819	     158.183299
	 D(1,9,10,6)      =        -0.234635	     -13.443621
	 D(2,4,11,3)      =        -0.014084	      -0.806934
	 D(2,4,11,13)     =        -3.137642	    -179.773661
	 D(2,9,1,3)       =        -0.068505	      -3.925029
	 D(2,9,1,14)      =         3.081321	     176.546662
	 D(2,9,10,5)      =        -0.234530	     -13.437563
	 D(2,9,10,6)      =         3.053201	     174.935517
	 D(3,1,9,10)      =        -3.065176	    -175.621653
	 D(3,11,4,17)     =         3.117371	     178.612216
	 D(4,2,9,10)      =         3.065161	     175.620780
	 D(4,11,3,16)     =        -3.119193	    -178.716623
	 D(5,7,12,8)      =         0.013939	       0.798639
	 D(5,7,12,22)     =         3.135717	     179.663328
	 D(5,10,6,8)      =         0.066747	       3.824312
	 D(5,10,6,19)     =        -3.080936	    -176.524622
	 D(6,8,12,7)      =        -0.014329	      -0.821014
	 D(6,8,12,22)     =        -3.136090	    -179.684726
	 D(6,10,5,7)      =        -0.067173	      -3.848704
	 D(6,10,5,18)     =         3.082659	     176.623377
	 D(7,5,10,9)      =        -3.064439	    -175.579405
	 D(7,12,8,21)     =         3.118669	     178.686565
	 D(8,6,10,9)      =         3.063925	     175.549961
	 D(8,12,7,20)     =        -3.119130	    -178.712966
	 D(9,1,3,11)      =         0.027477	       1.574330
	 D(9,1,3,16)      =        -3.122182	    -178.887835
	 D(9,2,4,11)      =        -0.027609	      -1.581887
	 D(9,2,4,17)      =         3.123850	     178.983415
	 D(9,10,5,18)     =         0.085393	       4.892677
	 D(9,10,6,19)     =        -0.083758	      -4.798973
	 D(10,5,7,12)     =         0.027493	       1.575230
	 D(10,5,7,20)     =        -3.123318	    -178.952928
	 D(10,6,8,12)     =        -0.026774	      -1.534056
	 D(10,6,8,21)     =         3.124104	     178.997996
	 D(10,9,1,14)     =         0.084649	       4.850038
	 D(10,9,2,15)     =        -0.085441	      -4.895417
	 D(11,3,1,14)     =        -3.122187	    -178.888143
	 D(11,4,2,15)     =         3.122839	     178.925477
	 D(12,7,5,18)     =        -3.122163	    -178.886743
	 D(12,8,6,19)     =         3.120795	     178.808391
	 D(13,11,3,16)    =         0.004377	       0.250794
	 D(13,11,4,17)    =        -0.006187	      -0.354511
	 D(14,1,3,16)     =         0.011339	       0.649692
	 D(15,2,4,17)     =        -0.008888	      -0.509221
	 D(18,5,7,20)     =         0.010212	       0.585099
	 D(19,6,8,21)     =        -0.011511	      -0.659556
	 D(20,7,12,22)    =         0.002648	       0.151722
	 D(21,8,12,22)    =        -0.003092	      -0.177147

	Current energy   :      -553.6659983502

	Energy change for the previous step:
		Projected    :        -0.2348863097
		Actual       :         0.0000807257

	Performing BFGS update.
	Previous computed or guess Hessian on step 1.
	Steps to be used in Hessian update: 6 5
	Adding user-defined constraint: Fragment 1; Coordinate 64:
		Value =     2.760819; Fixed value    =    -3.141580
		Force =    -3.836560; Force constant =     0.650000
	Removing off-diagonal coupling between coordinate 64 and others.
	Taking RFO optimization step.
	Going to follow RFO solution 1.
	Using RFO vector 1.

	Determining step-restricting scale parameter for RS-RFO.
	Maximum step size allowed    0.10000

	 Iter      |step|        alpha        rfo_root  
	------------------------------------------------
	    0    70.95223       1.00000           1
	    1    33.62624       1.89812           1
	    2    15.07410       3.42946           1
	    3     6.01823       5.66364           1
	    4     1.91671       8.08244           1
	    5     0.57123       9.66454           1
	    6     0.31184      10.61907           1
	    7     0.23480      12.48030           1
	    8     0.18025      21.46628           1
	    9     0.13246      44.05222           1
	   10     0.10875      68.72070           1
	   11     0.10096      81.03545           1
	   12     0.10001      82.73673           1
	   13     0.10000      82.76211           1
	------------------------------------------------
	Norm of target step-size    0.10000
	Projected energy change by RFO approximation:        -0.2418592373

	Back-transformation to cartesian coordinates...
	The INTCO_EXCEPTion handler:
	TORS::compute_val: unable to compute torsion value
	Dynamic level is 0.
	exc.g_really_quit() is 0.

  **** Optimization has failed! (in 7 steps) ****
			--------------------------
			 OPTKING Finished Execution 
			--------------------------
	Cleaning optimization helper files.

*** Psi4 exiting successfully. Buy a developer a beer!
