
    -----------------------------------------------------------------------
          Psi4: An Open-Source Ab Initio Electronic Structure Package
                               Psi4 1.1 release

                         Git: Rev {HEAD} add49b9 


    R. M. Parrish, L. A. Burns, D. G. A. Smith, A. C. Simmonett,
    A. E. DePrince III, E. G. Hohenstein, U. Bozkaya, A. Yu. Sokolov,
    R. Di Remigio, R. M. Richard, J. F. Gonthier, A. M. James,
    H. R. McAlexander, A. Kumar, M. Saitow, X. Wang, B. P. Pritchard,
    P. Verma, H. F. Schaefer III, K. Patkowski, R. A. King, E. F. Valeev,
    F. A. Evangelista, J. M. Turney, T. D. Crawford, and C. D. Sherrill,
    J. Chem. Theory Comput. in press (2017).
    (doi: 10.1021/acs.jctc.7b00174)

    -----------------------------------------------------------------------


    Psi4 started on: Saturday, 11 November 2017 06:12PM

    Process ID:  11720
    PSIDATADIR: /cbio/jclab/home/chayas/anaconda/envs/py35/share/psi4
    Memory:     500.0 MiB
    Threads:    8
    
  ==> Input File <==

--------------------------------------------------------------------------

memory 5 Gb

molecule phepyrF {
  symmetry C1
  0 1 
  C      1.885   -1.036   -0.112
  C      0.807   -0.463   0.561
  C      2.921   -1.631   0.608
  C      0.764   -0.484   1.955
  C      5.030   -2.841   2.072
  C      3.920   -2.293   4.135
  C      6.036   -3.418   2.830
  C      4.976   -2.896   4.800
  C      2.878   -1.652   2.002
  C      3.955   -2.270   2.745
  C      1.800   -1.079   2.676
  N      6.037   -3.461   4.181
  F      1.744   -1.089   4.016
  H      1.918   -1.020   -1.198
  H      0.000   -0.000   -0.000
  H      3.755   -2.073   0.068
  H      -0.076   -0.038   2.480
  H      5.093   -2.841   0.989
  H      3.098   -1.858   4.694
  H      6.897   -3.876   2.353
  H      4.996   -2.941   5.884
  units Angstrom
}

dih_string = "3 9 10 5 0.001"
set optking fixed_dihedral = $dih_string

optimize('MP2/aug-cc-PVTZ')
--------------------------------------------------------------------------

  Memory set to   4.657 GiB by Python driver.
gradient() will perform analytic gradient computation.

*** tstart() called on gpu-1-6.local
*** at Sat Nov 11 18:12:59 2017

    SCF Algorithm Type (re)set to DF.

*** tstart() called on gpu-1-6.local
*** at Sat Nov 11 18:12:59 2017

   => Loading Basis Set <=

    Name: AUG-CC-PVTZ
    Role: ORBITAL
    Keyword: BASIS
    atoms 1-11  entry C          line   221 file /cbio/jclab/home/chayas/anaconda/envs/py35/share/psi4/basis/aug-cc-pvtz.gbs 
    atoms 12    entry N          line   267 file /cbio/jclab/home/chayas/anaconda/envs/py35/share/psi4/basis/aug-cc-pvtz.gbs 
    atoms 13    entry F          line   359 file /cbio/jclab/home/chayas/anaconda/envs/py35/share/psi4/basis/aug-cc-pvtz.gbs 
    atoms 14-21 entry H          line    34 file /cbio/jclab/home/chayas/anaconda/envs/py35/share/psi4/basis/aug-cc-pvtz.gbs 


         ---------------------------------------------------------
                                   SCF
            by Justin Turney, Rob Parrish, and Andy Simmonett
                              RHF Reference
                        8 Threads,   4768 MiB Core
         ---------------------------------------------------------

  ==> Geometry <==

    Molecular point group: c1
    Full point group: C1

    Geometry (in Angstrom), charge = 0, multiplicity = 1:

       Center              X                  Y                   Z               Mass       
    ------------   -----------------  -----------------  -----------------  -----------------
           C         -1.369376851752     0.840019091910    -2.663066254860    12.000000000000
           C         -2.447376851752     1.413019091910    -1.990066254860    12.000000000000
           C         -0.333376851752     0.245019091910    -1.943066254860    12.000000000000
           C         -2.490376851752     1.392019091910    -0.596066254860    12.000000000000
           C          1.775623148248    -0.964980908090    -0.479066254860    12.000000000000
           C          0.665623148248    -0.416980908090     1.583933745140    12.000000000000
           C          2.781623148248    -1.541980908090     0.278933745140    12.000000000000
           C          1.721623148248    -1.019980908090     2.248933745140    12.000000000000
           C         -0.376376851752     0.224019091910    -0.549066254860    12.000000000000
           C          0.700623148248    -0.393980908090     0.193933745140    12.000000000000
           C         -1.454376851752     0.797019091910     0.124933745140    12.000000000000
           N          2.782623148248    -1.584980908090     1.629933745140    14.003074004780
           F         -1.510376851752     0.787019091910     1.464933745140    18.998403224000
           H         -1.336376851752     0.856019091910    -3.749066254860     1.007825032070
           H         -3.254376851752     1.876019091910    -2.551066254860     1.007825032070
           H          0.500623148248    -0.196980908090    -2.483066254860     1.007825032070
           H         -3.330376851752     1.838019091910    -0.071066254860     1.007825032070
           H          1.838623148248    -0.964980908090    -1.562066254860     1.007825032070
           H         -0.156376851752     0.018019091910     2.142933745140     1.007825032070
           H          3.642623148248    -1.999980908090    -0.198066254860     1.007825032070
           H          1.741623148248    -1.064980908090     3.332933745140     1.007825032070

  Running in c1 symmetry.

  Rotational constants: A =      0.06386  B =      0.01890  C =      0.01458 [cm^-1]
  Rotational constants: A =   1914.51766  B =    566.58943  C =    437.20225 [MHz]
  Nuclear repulsion =  719.424349387715324

  Charge       = 0
  Multiplicity = 1
  Electrons    = 90
  Nalpha       = 45
  Nbeta        = 45

  ==> Algorithm <==

  SCF Algorithm Type is DF.
  DIIS enabled.
  MOM disabled.
  Fractional occupation disabled.
  Guess Type is SAD.
  Energy threshold   = 1.00e-10
  Density threshold  = 1.00e-10
  Integral threshold = 0.00e+00

  ==> Primary Basis <==

  Basis Set: AUG-CC-PVTZ
    Blend: AUG-CC-PVTZ
    Number of shells: 254
    Number of basis function: 782
    Number of Cartesian functions: 915
    Spherical Harmonics?: true
    Max angular momentum: 3

   => Loading Basis Set <=

    Name: (AUG-CC-PVTZ AUX)
    Role: JKFIT
    Keyword: DF_BASIS_SCF
    atoms 1-11  entry C          line   161 file /cbio/jclab/home/chayas/anaconda/envs/py35/share/psi4/basis/aug-cc-pvtz-jkfit.gbs 
    atoms 12    entry N          line   223 file /cbio/jclab/home/chayas/anaconda/envs/py35/share/psi4/basis/aug-cc-pvtz-jkfit.gbs 
    atoms 13    entry F          line   347 file /cbio/jclab/home/chayas/anaconda/envs/py35/share/psi4/basis/aug-cc-pvtz-jkfit.gbs 
    atoms 14-21 entry H          line    69 file /cbio/jclab/home/chayas/anaconda/envs/py35/share/psi4/basis/aug-cc-pvtz-jkfit.gbs 

  ==> Pre-Iterations <==

   -------------------------------------------------------
    Irrep   Nso     Nmo     Nalpha   Nbeta   Ndocc  Nsocc
   -------------------------------------------------------
     A        782     782       0       0       0       0
   -------------------------------------------------------
    Total     782     782      45      45      45       0
   -------------------------------------------------------

  ==> Integral Setup <==

  ==> DFJK: Density-Fitted J/K Matrices <==

    J tasked:                  Yes
    K tasked:                  Yes
    wK tasked:                  No
    OpenMP threads:              8
    Integrals threads:           8
    Memory (MB):              3576
    Algorithm:                Disk
    Integral Cache:           NONE
    Schwarz Cutoff:          1E-12
    Fitting Condition:       1E-12

   => Auxiliary Basis Set <=

  Basis Set: (AUG-CC-PVTZ AUX)
    Blend: AUG-CC-PVTZ-JKFIT
    Number of shells: 502
    Number of basis function: 1720
    Number of Cartesian functions: 2143
    Spherical Harmonics?: true
    Max angular momentum: 4

  Minimum eigenvalue in the overlap matrix is 3.5961334375E-07.
  Using Symmetric Orthogonalization.

  SCF Guess: Superposition of Atomic Densities via on-the-fly atomic UHF.

  ==> Iterations <==

                           Total Energy        Delta E     RMS |[F,P]|

   @DF-RHF iter   0:  -582.36574622951571   -5.82366e+02   1.44928e-02 
   @DF-RHF iter   1:  -574.90342497226015    7.46232e+00   1.36902e-03 
   @DF-RHF iter   2:  -575.19813147094681   -2.94706e-01   8.26550e-04 DIIS
   @DF-RHF iter   3:  -575.24553909406131   -4.74076e-02   3.59977e-04 DIIS
   @DF-RHF iter   4:  -575.26283070733439   -1.72916e-02   7.72001e-05 DIIS
   @DF-RHF iter   5:  -575.26487514852579   -2.04444e-03   3.78949e-05 DIIS
   @DF-RHF iter   6:  -575.26517527674685   -3.00128e-04   1.73515e-05 DIIS
   @DF-RHF iter   7:  -575.26521462548453   -3.93487e-05   4.55532e-06 DIIS
   @DF-RHF iter   8:  -575.26521974495381   -5.11947e-06   3.21278e-06 DIIS
   @DF-RHF iter   9:  -575.26522121255937   -1.46761e-06   1.14965e-06 DIIS
   @DF-RHF iter  10:  -575.26522181343216   -6.00873e-07   8.05853e-07 DIIS
   @DF-RHF iter  11:  -575.26522196791518   -1.54483e-07   1.57881e-07 DIIS
   @DF-RHF iter  12:  -575.26522198524685   -1.73317e-08   8.15253e-08 DIIS
   @DF-RHF iter  13:  -575.26522198664020   -1.39335e-09   4.11158e-08 DIIS
   @DF-RHF iter  14:  -575.26522198687894   -2.38742e-10   1.29218e-08 DIIS
   @DF-RHF iter  15:  -575.26522198690100   -2.20552e-11   6.89840e-09 DIIS
   @DF-RHF iter  16:  -575.26522198692714   -2.61480e-11   2.03558e-09 DIIS
   @DF-RHF iter  17:  -575.26522198691532    1.18234e-11   1.27000e-09 DIIS
   @DF-RHF iter  18:  -575.26522198690907    6.25278e-12   3.79476e-10 DIIS
   @DF-RHF iter  19:  -575.26522198692851   -1.94404e-11   2.15881e-10 DIIS
   @DF-RHF iter  20:  -575.26522198693101   -2.50111e-12   5.98208e-11 DIIS

  ==> Post-Iterations <==

    Orbital Energies (a.u.)
    -----------------------

    Doubly Occupied:                                                      

       1A    -26.332236     2A    -15.561651     3A    -11.345893  
       4A    -11.272555     5A    -11.269520     6A    -11.264875  
       7A    -11.263579     8A    -11.260929     9A    -11.260043  
      10A    -11.258803    11A    -11.253157    12A    -11.238169  
      13A    -11.225827    14A     -1.657875    15A     -1.247310  
      16A     -1.186140    17A     -1.114091    18A     -1.040241  
      19A     -1.031073    20A     -1.026502    21A     -0.894807  
      22A     -0.878791    23A     -0.846547    24A     -0.824827  
      25A     -0.762458    26A     -0.738813    27A     -0.720625  
      28A     -0.719583    29A     -0.673410    30A     -0.662130  
      31A     -0.650059    32A     -0.626161    33A     -0.608198  
      34A     -0.590122    35A     -0.581467    36A     -0.552217  
      37A     -0.542179    38A     -0.523941    39A     -0.517261  
      40A     -0.497529    41A     -0.417233    42A     -0.414978  
      43A     -0.356002    44A     -0.345670    45A     -0.321907  

    Virtual:                                                              

      46A      0.022637    47A      0.028520    48A      0.033745  
      49A      0.040443    50A      0.043533    51A      0.052703  
      52A      0.058144    53A      0.060318    54A      0.075290  
      55A      0.079856    56A      0.085136    57A      0.085578  
      58A      0.090725    59A      0.091590    60A      0.098824  
      61A      0.102662    62A      0.107444    63A      0.109545  
      64A      0.113651    65A      0.113897    66A      0.116667  
      67A      0.117784    68A      0.129467    69A      0.131481  
      70A      0.133544    71A      0.136334    72A      0.139165  
      73A      0.142962    74A      0.147220    75A      0.147366  
      76A      0.152432    77A      0.153428    78A      0.155624  
      79A      0.166260    80A      0.168974    81A      0.173834  
      82A      0.183494    83A      0.183811    84A      0.188366  
      85A      0.192885    86A      0.196871    87A      0.206079  
      88A      0.209201    89A      0.211717    90A      0.221019  
      91A      0.231701    92A      0.235375    93A      0.237210  
      94A      0.241075    95A      0.246321    96A      0.248963  
      97A      0.251211    98A      0.261787    99A      0.264631  
     100A      0.270679   101A      0.271933   102A      0.278173  
     103A      0.278813   104A      0.283931   105A      0.287540  
     106A      0.288718   107A      0.292108   108A      0.301401  
     109A      0.304856   110A      0.310021   111A      0.311931  
     112A      0.313279   113A      0.317411   114A      0.324416  
     115A      0.324857   116A      0.334712   117A      0.336528  
     118A      0.346255   119A      0.349680   120A      0.356211  
     121A      0.359054   122A      0.368551   123A      0.369479  
     124A      0.371877   125A      0.383110   126A      0.393791  
     127A      0.404282   128A      0.407728   129A      0.409405  
     130A      0.412149   131A      0.413899   132A      0.421838  
     133A      0.427556   134A      0.428918   135A      0.429036  
     136A      0.433025   137A      0.435035   138A      0.437432  
     139A      0.439117   140A      0.442647   141A      0.447647  
     142A      0.451919   143A      0.460658   144A      0.462179  
     145A      0.462335   146A      0.469684   147A      0.470631  
     148A      0.472615   149A      0.478481   150A      0.484036  
     151A      0.490336   152A      0.492487   153A      0.494689  
     154A      0.499316   155A      0.501223   156A      0.502958  
     157A      0.509119   158A      0.510693   159A      0.514095  
     160A      0.523774   161A      0.526100   162A      0.533089  
     163A      0.533232   164A      0.537238   165A      0.541426  
     166A      0.544695   167A      0.547564   168A      0.555409  
     169A      0.557975   170A      0.563220   171A      0.569051  
     172A      0.575755   173A      0.580740   174A      0.584358  
     175A      0.591349   176A      0.592904   177A      0.595111  
     178A      0.604579   179A      0.611563   180A      0.616316  
     181A      0.622779   182A      0.627174   183A      0.646937  
     184A      0.648660   185A      0.652007   186A      0.659347  
     187A      0.670528   188A      0.684133   189A      0.685153  
     190A      0.686487   191A      0.693680   192A      0.696570  
     193A      0.701228   194A      0.710157   195A      0.715090  
     196A      0.718763   197A      0.726559   198A      0.729333  
     199A      0.730245   200A      0.736899   201A      0.747242  
     202A      0.757075   203A      0.759745   204A      0.762815  
     205A      0.771834   206A      0.774862   207A      0.781825  
     208A      0.782970   209A      0.797396   210A      0.805668  
     211A      0.809410   212A      0.815262   213A      0.818654  
     214A      0.823317   215A      0.832046   216A      0.840299  
     217A      0.851650   218A      0.855833   219A      0.858324  
     220A      0.865904   221A      0.867707   222A      0.873067  
     223A      0.883073   224A      0.885364   225A      0.892583  
     226A      0.892717   227A      0.896532   228A      0.901536  
     229A      0.901721   230A      0.912040   231A      0.917853  
     232A      0.918418   233A      0.927925   234A      0.932514  
     235A      0.934476   236A      0.934689   237A      0.938352  
     238A      0.947899   239A      0.949502   240A      0.953943  
     241A      0.962512   242A      0.964838   243A      0.965105  
     244A      0.968427   245A      0.972750   246A      0.980453  
     247A      0.991808   248A      0.999560   249A      1.001194  
     250A      1.005192   251A      1.006533   252A      1.012035  
     253A      1.013873   254A      1.020468   255A      1.021090  
     256A      1.029991   257A      1.034610   258A      1.036703  
     259A      1.039051   260A      1.040091   261A      1.053787  
     262A      1.055161   263A      1.065930   264A      1.068455  
     265A      1.072777   266A      1.072978   267A      1.079022  
     268A      1.083871   269A      1.088520   270A      1.096704  
     271A      1.102847   272A      1.103124   273A      1.114421  
     274A      1.120091   275A      1.121395   276A      1.126439  
     277A      1.128479   278A      1.135293   279A      1.149123  
     280A      1.151130   281A      1.167611   282A      1.170684  
     283A      1.180524   284A      1.180924   285A      1.183692  
     286A      1.194082   287A      1.196795   288A      1.199221  
     289A      1.211151   290A      1.215846   291A      1.216652  
     292A      1.218274   293A      1.223158   294A      1.229053  
     295A      1.235675   296A      1.241100   297A      1.242517  
     298A      1.251050   299A      1.251372   300A      1.255136  
     301A      1.259792   302A      1.265314   303A      1.267319  
     304A      1.285044   305A      1.290780   306A      1.302291  
     307A      1.308013   308A      1.311638   309A      1.320080  
     310A      1.328034   311A      1.333998   312A      1.336403  
     313A      1.347419   314A      1.353864   315A      1.356056  
     316A      1.359770   317A      1.364551   318A      1.375977  
     319A      1.379786   320A      1.390470   321A      1.401232  
     322A      1.404972   323A      1.416078   324A      1.418947  
     325A      1.430699   326A      1.440542   327A      1.454258  
     328A      1.455676   329A      1.471056   330A      1.475833  
     331A      1.493002   332A      1.505390   333A      1.509857  
     334A      1.518607   335A      1.520289   336A      1.522655  
     337A      1.533173   338A      1.538929   339A      1.548482  
     340A      1.552928   341A      1.559354   342A      1.577270  
     343A      1.593507   344A      1.605729   345A      1.613519  
     346A      1.616303   347A      1.617910   348A      1.630223  
     349A      1.643570   350A      1.646538   351A      1.658357  
     352A      1.665505   353A      1.669337   354A      1.677312  
     355A      1.682852   356A      1.687578   357A      1.688839  
     358A      1.702916   359A      1.720387   360A      1.728084  
     361A      1.730183   362A      1.735252   363A      1.742656  
     364A      1.743906   365A      1.746657   366A      1.769585  
     367A      1.772095   368A      1.776369   369A      1.784819  
     370A      1.794721   371A      1.805147   372A      1.812402  
     373A      1.826807   374A      1.827145   375A      1.846702  
     376A      1.846875   377A      1.851542   378A      1.859533  
     379A      1.871901   380A      1.877603   381A      1.896740  
     382A      1.904812   383A      1.907307   384A      1.927583  
     385A      1.928506   386A      1.937364   387A      1.943088  
     388A      1.956246   389A      1.958832   390A      1.968892  
     391A      1.974509   392A      1.981479   393A      1.992024  
     394A      1.993337   395A      2.010690   396A      2.019252  
     397A      2.022518   398A      2.028397   399A      2.036548  
     400A      2.044236   401A      2.049862   402A      2.061323  
     403A      2.068260   404A      2.070381   405A      2.078803  
     406A      2.081172   407A      2.094095   408A      2.094526  
     409A      2.097037   410A      2.113476   411A      2.118173  
     412A      2.126414   413A      2.146387   414A      2.154799  
     415A      2.163541   416A      2.166653   417A      2.177336  
     418A      2.184893   419A      2.186423   420A      2.196205  
     421A      2.202688   422A      2.209542   423A      2.220303  
     424A      2.230743   425A      2.235378   426A      2.239025  
     427A      2.250910   428A      2.255328   429A      2.273162  
     430A      2.280854   431A      2.289498   432A      2.295878  
     433A      2.302924   434A      2.314755   435A      2.315258  
     436A      2.325973   437A      2.341985   438A      2.354206  
     439A      2.369666   440A      2.373720   441A      2.386697  
     442A      2.395889   443A      2.398942   444A      2.415729  
     445A      2.427190   446A      2.443109   447A      2.458462  
     448A      2.465824   449A      2.471681   450A      2.474135  
     451A      2.496514   452A      2.502011   453A      2.503565  
     454A      2.526271   455A      2.548404   456A      2.561488  
     457A      2.566548   458A      2.593764   459A      2.595853  
     460A      2.618262   461A      2.639948   462A      2.649272  
     463A      2.660537   464A      2.687879   465A      2.699191  
     466A      2.713297   467A      2.738345   468A      2.755286  
     469A      2.768543   470A      2.791749   471A      2.809002  
     472A      2.814709   473A      2.829244   474A      2.858127  
     475A      2.858537   476A      2.872149   477A      2.917717  
     478A      2.943295   479A      3.008897   480A      3.029976  
     481A      3.041677   482A      3.066503   483A      3.069604  
     484A      3.078784   485A      3.096501   486A      3.112287  
     487A      3.122576   488A      3.134539   489A      3.151008  
     490A      3.153972   491A      3.179479   492A      3.194769  
     493A      3.199769   494A      3.222332   495A      3.227867  
     496A      3.251542   497A      3.271646   498A      3.288629  
     499A      3.293305   500A      3.309243   501A      3.324473  
     502A      3.326530   503A      3.338081   504A      3.347209  
     505A      3.355284   506A      3.365999   507A      3.375803  
     508A      3.382529   509A      3.393657   510A      3.397464  
     511A      3.427709   512A      3.431031   513A      3.442266  
     514A      3.444639   515A      3.453281   516A      3.468148  
     517A      3.470070   518A      3.481631   519A      3.493603  
     520A      3.507548   521A      3.507733   522A      3.515880  
     523A      3.517894   524A      3.535759   525A      3.538572  
     526A      3.551832   527A      3.554869   528A      3.563946  
     529A      3.572435   530A      3.580734   531A      3.581157  
     532A      3.599636   533A      3.609977   534A      3.633360  
     535A      3.633829   536A      3.640453   537A      3.642568  
     538A      3.663914   539A      3.675199   540A      3.678318  
     541A      3.693245   542A      3.698247   543A      3.710556  
     544A      3.713123   545A      3.722508   546A      3.728066  
     547A      3.732820   548A      3.750516   549A      3.751003  
     550A      3.765433   551A      3.771218   552A      3.791249  
     553A      3.794887   554A      3.803718   555A      3.819444  
     556A      3.825870   557A      3.829595   558A      3.839888  
     559A      3.840060   560A      3.860047   561A      3.866651  
     562A      3.874839   563A      3.889453   564A      3.896349  
     565A      3.901384   566A      3.911968   567A      3.927204  
     568A      3.928270   569A      3.940606   570A      3.942413  
     571A      3.943382   572A      3.951428   573A      3.965441  
     574A      3.971725   575A      3.984342   576A      3.984685  
     577A      3.989658   578A      4.003051   579A      4.004944  
     580A      4.022339   581A      4.026978   582A      4.029526  
     583A      4.037818   584A      4.060363   585A      4.065182  
     586A      4.073978   587A      4.091800   588A      4.107641  
     589A      4.129430   590A      4.133218   591A      4.135369  
     592A      4.149501   593A      4.149793   594A      4.154429  
     595A      4.180453   596A      4.194661   597A      4.198307  
     598A      4.203011   599A      4.210578   600A      4.220869  
     601A      4.227106   602A      4.237903   603A      4.242008  
     604A      4.252954   605A      4.275448   606A      4.278067  
     607A      4.284406   608A      4.298364   609A      4.303898  
     610A      4.305186   611A      4.311111   612A      4.331342  
     613A      4.335069   614A      4.341522   615A      4.350433  
     616A      4.357921   617A      4.364711   618A      4.366318  
     619A      4.385072   620A      4.388862   621A      4.399794  
     622A      4.415953   623A      4.427647   624A      4.440452  
     625A      4.445007   626A      4.457170   627A      4.465778  
     628A      4.469006   629A      4.495811   630A      4.509337  
     631A      4.516483   632A      4.532926   633A      4.552965  
     634A      4.557076   635A      4.570787   636A      4.576570  
     637A      4.580979   638A      4.597315   639A      4.608441  
     640A      4.616436   641A      4.631235   642A      4.635414  
     643A      4.649301   644A      4.673181   645A      4.688564  
     646A      4.690867   647A      4.710294   648A      4.719745  
     649A      4.731858   650A      4.739449   651A      4.755528  
     652A      4.772872   653A      4.781627   654A      4.782537  
     655A      4.808219   656A      4.829365   657A      4.840434  
     658A      4.876275   659A      4.881885   660A      4.887966  
     661A      4.888508   662A      4.932333   663A      4.947841  
     664A      4.953073   665A      4.976223   666A      4.980869  
     667A      4.988581   668A      5.004251   669A      5.025750  
     670A      5.039855   671A      5.047197   672A      5.048120  
     673A      5.072885   674A      5.082314   675A      5.097880  
     676A      5.103081   677A      5.118111   678A      5.120285  
     679A      5.132850   680A      5.133307   681A      5.152746  
     682A      5.162891   683A      5.163103   684A      5.167511  
     685A      5.180506   686A      5.195943   687A      5.204260  
     688A      5.222832   689A      5.232019   690A      5.247600  
     691A      5.278930   692A      5.314555   693A      5.327756  
     694A      5.344250   695A      5.348493   696A      5.354961  
     697A      5.384661   698A      5.390601   699A      5.441112  
     700A      5.450899   701A      5.453086   702A      5.488044  
     703A      5.510256   704A      5.539997   705A      5.550010  
     706A      5.553228   707A      5.587899   708A      5.605330  
     709A      5.621760   710A      5.628944   711A      5.676436  
     712A      5.684669   713A      5.736736   714A      5.754085  
     715A      5.763986   716A      5.793038   717A      5.798902  
     718A      5.812465   719A      5.847690   720A      5.860399  
     721A      5.879878   722A      5.902223   723A      5.905109  
     724A      5.920113   725A      6.002513   726A      6.008646  
     727A      6.083987   728A      6.105883   729A      6.183422  
     730A      6.209014   731A      6.232127   732A      6.236212  
     733A      6.268110   734A      6.344044   735A      6.352496  
     736A      6.421602   737A      6.445257   738A      6.464364  
     739A      6.486017   740A      6.536807   741A      6.605822  
     742A      6.653391   743A      6.679999   744A      6.703596  
     745A      6.751356   746A      6.757217   747A      6.797562  
     748A      6.842831   749A      6.904103   750A      6.974809  
     751A      7.022280   752A      7.033325   753A      7.095756  
     754A      7.113142   755A      7.295833   756A      7.480144  
     757A      7.536033   758A      9.085533   759A      9.234618  
     760A      9.282734   761A      9.404160   762A      9.421195  
     763A      9.522170   764A      9.627248   765A      9.652187  
     766A      9.705017   767A      9.734963   768A     10.123331  
     769A     10.167984   770A     15.601747   771A     16.287424  
     772A     16.825531   773A     16.935745   774A     17.638327  
     775A     18.597862   776A     18.930821   777A     19.539230  
     778A     20.161838   779A     20.785206   780A     20.850270  
     781A     21.123667   782A     21.337331  

    Final Occupation by Irrep:
              A 
    DOCC [    45 ]

  Energy converged.

  @DF-RHF Final Energy:  -575.26522198693101

   => Energetics <=

    Nuclear Repulsion Energy =            719.4243493877153242
    One-Electron Energy =               -2210.6243658184384913
    Two-Electron Energy =                 915.9347944437922706
    DFT Exchange-Correlation Energy =       0.0000000000000000
    Empirical Dispersion Energy =           0.0000000000000000
    PCM Polarization Energy =               0.0000000000000000
    EFP Energy =                            0.0000000000000000
    Total Energy =                       -575.2652219869310102



Properties will be evaluated at   0.000000,   0.000000,   0.000000 Bohr

Properties computed using the SCF density matrix

  Nuclear Dipole Moment: (a.u.)
     X:     1.0849      Y:    -0.3993      Z:    -6.2039

  Electronic Dipole Moment: (a.u.)
     X:    -2.0261      Y:     0.9545      Z:     5.0522

  Dipole Moment: (a.u.)
     X:    -0.9412      Y:     0.5552      Z:    -1.1517     Total:     1.5876

  Dipole Moment: (Debye)
     X:    -2.3923      Y:     1.4112      Z:    -2.9273     Total:     4.0353


*** tstop() called on gpu-1-6.local at Sat Nov 11 18:20:18 2017
Module time:
	user time   =    1082.56 seconds =      18.04 minutes
	system time =      66.16 seconds =       1.10 minutes
	total time  =        439 seconds =       7.32 minutes
Total time:
	user time   =    1082.56 seconds =      18.04 minutes
	system time =      66.16 seconds =       1.10 minutes
	total time  =        439 seconds =       7.32 minutes

  //>>>>>>>>>>>>>>>>>>>>>>>>>>>>>>>>>>>//
  //               DFMP2               //
  //<<<<<<<<<<<<<<<<<<<<<<<<<<<<<<<<<<<//

   => Loading Basis Set <=

    Name: (AUG-CC-PVTZ AUX)
    Role: RIFIT
    Keyword: DF_BASIS_MP2
    atoms 1-11  entry C          line   147 file /cbio/jclab/home/chayas/anaconda/envs/py35/share/psi4/basis/aug-cc-pvtz-ri.gbs 
    atoms 12    entry N          line   205 file /cbio/jclab/home/chayas/anaconda/envs/py35/share/psi4/basis/aug-cc-pvtz-ri.gbs 
    atoms 13    entry F          line   321 file /cbio/jclab/home/chayas/anaconda/envs/py35/share/psi4/basis/aug-cc-pvtz-ri.gbs 
    atoms 14-21 entry H          line    29 file /cbio/jclab/home/chayas/anaconda/envs/py35/share/psi4/basis/aug-cc-pvtz-ri.gbs 

	 --------------------------------------------------------
	                          DF-MP2                         
	      2nd-Order Density-Fitted Moller-Plesset Theory     
	              RMP2 Wavefunction,   8 Threads             
	                                                         
	        Rob Parrish, Justin Turney, Andy Simmonett,      
	           Ed Hohenstein, and C. David Sherrill          
	 --------------------------------------------------------

   => Auxiliary Basis Set <=

  Basis Set: (AUG-CC-PVTZ AUX)
    Blend: AUG-CC-PVTZ-RI
    Number of shells: 476
    Number of basis function: 1746
    Number of Cartesian functions: 2208
    Spherical Harmonics?: true
    Max angular momentum: 4

	 --------------------------------------------------------
	                 NBF =   782, NAUX =  1746
	 --------------------------------------------------------
	   CLASS    FOCC     OCC    AOCC    AVIR     VIR    FVIR
	   PAIRS       0      45      45     737     737       0
	 --------------------------------------------------------


         ------------------------------------------------------------
                                     CPHF                           
                                  Rob Parrish                       
         ------------------------------------------------------------

  ==> Geometry <==

    Molecular point group: c1
    Full point group: C1

    Geometry (in Angstrom), charge = 0, multiplicity = 1:

       Center              X                  Y                   Z               Mass       
    ------------   -----------------  -----------------  -----------------  -----------------
           C         -1.369376851752     0.840019091910    -2.663066254860    12.000000000000
           C         -2.447376851752     1.413019091910    -1.990066254860    12.000000000000
           C         -0.333376851752     0.245019091910    -1.943066254860    12.000000000000
           C         -2.490376851752     1.392019091910    -0.596066254860    12.000000000000
           C          1.775623148248    -0.964980908090    -0.479066254860    12.000000000000
           C          0.665623148248    -0.416980908090     1.583933745140    12.000000000000
           C          2.781623148248    -1.541980908090     0.278933745140    12.000000000000
           C          1.721623148248    -1.019980908090     2.248933745140    12.000000000000
           C         -0.376376851752     0.224019091910    -0.549066254860    12.000000000000
           C          0.700623148248    -0.393980908090     0.193933745140    12.000000000000
           C         -1.454376851752     0.797019091910     0.124933745140    12.000000000000
           N          2.782623148248    -1.584980908090     1.629933745140    14.003074004780
           F         -1.510376851752     0.787019091910     1.464933745140    18.998403224000
           H         -1.336376851752     0.856019091910    -3.749066254860     1.007825032070
           H         -3.254376851752     1.876019091910    -2.551066254860     1.007825032070
           H          0.500623148248    -0.196980908090    -2.483066254860     1.007825032070
           H         -3.330376851752     1.838019091910    -0.071066254860     1.007825032070
           H          1.838623148248    -0.964980908090    -1.562066254860     1.007825032070
           H         -0.156376851752     0.018019091910     2.142933745140     1.007825032070
           H          3.642623148248    -1.999980908090    -0.198066254860     1.007825032070
           H          1.741623148248    -1.064980908090     3.332933745140     1.007825032070

  Nuclear repulsion =  719.424349387715324
  Reference energy  = -575.265221986931010

  ==> Basis Set <==

  Basis Set: AUG-CC-PVTZ
    Blend: AUG-CC-PVTZ
    Number of shells: 254
    Number of basis function: 782
    Number of Cartesian functions: 915
    Spherical Harmonics?: true
    Max angular momentum: 3

  ==> CGRSolver (by Rob Parrish) <==

   Number of roots    =         1
   Preconditioning    =    JACOBI
   Convergence cutoff =     1E-06
   Maximum iterations =       100

  ==> CPHFRHamiltonian (by Rob Parrish) <== 

  ==> DFJK: Density-Fitted J/K Matrices <==

    J tasked:                  Yes
    K tasked:                  Yes
    wK tasked:                  No
    OpenMP threads:              8
    Integrals threads:           8
    Memory (MB):              3576
    Algorithm:                Disk
    Integral Cache:           NONE
    Schwarz Cutoff:          1E-12
    Fitting Condition:       1E-12

   => Auxiliary Basis Set <=

  Basis Set: (AUG-CC-PVTZ AUX)
    Blend: AUG-CC-PVTZ-JKFIT
    Number of shells: 502
    Number of basis function: 1720
    Number of Cartesian functions: 2143
    Spherical Harmonics?: true
    Max angular momentum: 4

  ==> CPHF Iterations <==

  => Iterations <=

             Iter  Converged  Remaining    Residual
  CGR           1          0          1   9.821E-02
  CGR           2          0          1   2.982E-02
  CGR           3          0          1   2.008E-02
  CGR           4          0          1   9.822E-03
  CGR           5          0          1   3.965E-03
  CGR           6          0          1   1.555E-03
  CGR           7          0          1   5.011E-04
  CGR           8          0          1   2.126E-04
  CGR           9          0          1   1.073E-04
  CGR          10          0          1   4.247E-05
  CGR          11          0          1   1.567E-05
  CGR          12          0          1   5.171E-06
  CGR          13          0          1   1.637E-06
  CGR          14          1          0   5.771E-07

    CGRSolver converged.

  ==> DFCorrGrad: Density-Fitted Correlated Gradients <==

    OpenMP threads:              8
    Integrals threads:           8
    Memory (MB):              3576
    Schwarz Cutoff:          0E+00
    Fitting Condition:       1E-12

   => Auxiliary Basis Set <=

  Basis Set: (AUG-CC-PVTZ AUX)
    Blend: AUG-CC-PVTZ-JKFIT
    Number of shells: 502
    Number of basis function: 1720
    Number of Cartesian functions: 2143
    Spherical Harmonics?: true
    Max angular momentum: 4

	-----------------------------------------------------------
	 ==================> DF-MP2 Energies <==================== 
	-----------------------------------------------------------
	 Reference Energy          =    -575.2652219869310102 [Eh]
	 Singles Energy            =      -0.0000000000000003 [Eh]
	 Same-Spin Energy          =      -0.6103362205654708 [Eh]
	 Opposite-Spin Energy      =      -1.8357793066501502 [Eh]
	 Correlation Energy        =      -2.4461155272156216 [Eh]
	 Total Energy              =    -577.7113375141466349 [Eh]
	-----------------------------------------------------------
	 ================> DF-SCS-MP2 Energies <================== 
	-----------------------------------------------------------
	 SCS Same-Spin Scale       =       0.3333333333333333 [-]
	 SCS Opposite-Spin Scale   =       1.2000000000000000 [-]
	 SCS Same-Spin Energy      =      -0.2034454068551569 [Eh]
	 SCS Opposite-Spin Energy  =      -2.2029351679801801 [Eh]
	 SCS Correlation Energy    =      -2.4063805748353375 [Eh]
	 SCS Total Energy          =    -577.6716025617663490 [Eh]
	-----------------------------------------------------------


  -Total Gradient:
     Atom            X                  Y                   Z
    ------   -----------------  -----------------  -----------------
       1       -0.003636058810     0.002094217715     0.000215315189
       2       -0.002906260935     0.001713484742    -0.002771978436
       3        0.016637523648    -0.009537291388     0.008500833717
       4        0.000825778186    -0.000190276039    -0.005391103944
       5       -0.007435874390     0.004294657778    -0.008565812326
       6       -0.014421283398     0.008609927659    -0.012987217391
       7       -0.003193208239     0.002078968936    -0.010085766778
       8       -0.013692574723     0.007340839471     0.005324694960
       9       -0.004734653498     0.002947017356    -0.005464815156
      10        0.004044724216    -0.002556803116     0.002029518083
      11        0.011900478739    -0.007793569432     0.031204924835
      12        0.011492196564    -0.006543220941     0.006287131719
      13        0.024096211496    -0.013405247298     0.006988116730
      14        0.000192546423     0.000007973489    -0.005146164321
      15       -0.003364949762     0.001971427985    -0.003778163792
      16        0.007724740628    -0.004051679129    -0.004708479065
      17       -0.004701575957     0.002520370830     0.000857761923
      18       -0.001981776295     0.001391400113    -0.007990138721
      19       -0.020232098589     0.011002003800     0.003141342949
      20        0.002677592192    -0.001411338199    -0.000551951151
      21        0.000708522503    -0.000482864332     0.002891950964


*** tstop() called on gpu-1-6.local at Sat Nov 11 18:49:43 2017
Module time:
	user time   =    5931.16 seconds =      98.85 minutes
	system time =     123.34 seconds =       2.06 minutes
	total time  =       2204 seconds =      36.73 minutes
Total time:
	user time   =    5931.16 seconds =      98.85 minutes
	system time =     123.34 seconds =       2.06 minutes
	total time  =       2204 seconds =      36.73 minutes

			-----------------------------------------
			 OPTKING 2.0: for geometry optimizations 
			  - R.A. King,  Bethel University        
			-----------------------------------------

	Internal coordinates to be generated automatically.
	Detected frag 1 with atoms:  1 2 3 4 5 6 7 8 9 10 11 12 13 14 15 16 17 18 19 20
	 21
	---Fragment 1 Bond Connectivity---
	 1 : 2 3 14
	 2 : 1 4 15
	 3 : 1 9 16
	 4 : 2 11 17
	 5 : 7 10 18
	 6 : 8 10 19
	 7 : 5 12 20
	 8 : 6 12 21
	 9 : 3 10 11
	 10 : 5 6 9
	 11 : 4 9 13
	 12 : 7 8
	 13 : 11
	 14 : 1
	 15 : 2
	 16 : 3
	 17 : 4
	 18 : 5
	 19 : 6
	 20 : 7
	 21 : 8

	Assuming in current code that numbering for constraints corresponds to unified fragment.
	Fixed dihedral atom list: 
	     3     9    10     5
	---Fragment 1 Geometry and Gradient---
	 C          -2.5877472225        1.5874060301       -5.0324658954
	 C          -4.6248719938        2.6702191042       -3.7606802080
	 C          -0.6299909489        0.4630189810       -3.6718630797
	 C          -4.7061302175        2.6305348555       -1.1264019787
	 C           3.3554414654       -1.8235496398       -0.9053040212
	 C           1.2578454579       -0.7879797189        2.9932009910
	 C           5.2565059551       -2.9139216184        0.5271083875
	 C           3.2533962542       -1.9274845771        4.2498688693
	 C          -0.7112491726        0.4233347322       -1.0375848505
	 C           1.3239858725       -0.7445160179        0.3664816662
	 C          -2.7483739438        1.5061478064        0.2360905631
	 N           5.2583956812       -2.9951798421        3.0801283931
	 F          -2.8541986073        1.4872505451        2.7683235811
	 H          -2.5253862601        1.6176416482       -7.0847084757
	 H          -6.1498809830        3.5451623038       -4.8208165685
	 H           0.9460406460       -0.3722399697       -4.6923151915
	 H          -6.2935001691        3.4733527107       -0.1342957590
	 H           3.4744942118       -1.8235496398       -2.9518774231
	 H          -0.2955094233        0.0340511489        4.0495578992
	 H           6.8835601555       -3.7794161873       -0.3742909779
	 H           3.2911907769       -2.0125222530        6.2983319974
	            -0.0036360588        0.0020942177        0.0002153152
	            -0.0029062609        0.0017134847       -0.0027719784
	             0.0166375236       -0.0095372914        0.0085008337
	             0.0008257782       -0.0001902760       -0.0053911039
	            -0.0074358744        0.0042946578       -0.0085658123
	            -0.0144212834        0.0086099277       -0.0129872174
	            -0.0031932082        0.0020789689       -0.0100857668
	            -0.0136925747        0.0073408395        0.0053246950
	            -0.0047346535        0.0029470174       -0.0054648152
	             0.0040447242       -0.0025568031        0.0020295181
	             0.0119004787       -0.0077935694        0.0312049248
	             0.0114921966       -0.0065432209        0.0062871317
	             0.0240962115       -0.0134052473        0.0069881167
	             0.0001925464        0.0000079735       -0.0051461643
	            -0.0033649498        0.0019714280       -0.0037781638
	             0.0077247406       -0.0040516791       -0.0047084791
	            -0.0047015760        0.0025203708        0.0008577619
	            -0.0019817763        0.0013914001       -0.0079901387
	            -0.0202320986        0.0110020038        0.0031413429
	             0.0026775922       -0.0014113382       -0.0005519512
	             0.0007085225       -0.0004828643        0.0028919510

	Previous optimization step data not found.  Starting new optimization.

	---Fragment 1 Intrafragment Coordinates---
	 - Coordinate -           - BOHR/RAD -       - ANG/DEG -
	 R(1,2)           =         2.634350	       1.394038
	 R(1,3)           =         2.635962	       1.394891
	 R(1,14)          =         2.053412	       1.086619
	 R(2,4)           =         2.635830	       1.394821
	 R(2,15)          =         2.053063	       1.086434
	 R(3,9)           =         2.635830	       1.394821
	 R(3,16)          =         2.054959	       1.087437
	 R(4,11)          =         2.636938	       1.395407
	 R(4,17)          =         2.052891	       1.086343
	 R(5,7)           =         2.618160	       1.385471
	 R(5,10)          =         2.628415	       1.390897
	 R(5,18)          =         2.050033	       1.084831
	 R(6,8)           =         2.619143	       1.385991
	 R(6,10)          =         2.627911	       1.390631
	 R(6,19)          =         2.050497	       1.085076
	 R(7,12)          =         2.554314	       1.351685
	 R(7,20)          =         2.051562	       1.085640
	 R(8,12)          =         2.555052	       1.352075
	 R(8,21)          =         2.050576	       1.085118
	 R(9,10)          =         2.734494	       1.447032
	 R(9,11)          =         2.635263	       1.394521
	 R(11,13)         =         2.534514	       1.341207
	 B(1,2,4)         =         2.094553	     120.009056
	 B(1,2,15)        =         2.094721	     120.018646
	 B(1,3,9)         =         2.093692	     119.959722
	 B(1,3,16)        =         2.079074	     119.122177
	 B(2,1,3)         =         2.094940	     120.031219
	 B(2,1,14)        =         2.094311	     119.995189
	 B(2,4,11)        =         2.094306	     119.994870
	 B(2,4,17)        =         2.095140	     120.042665
	 B(3,1,14)        =         2.093934	     119.973570
	 B(3,9,10)        =         2.090528	     119.778448
	 B(3,9,11)        =         2.095181	     120.045019
	 B(4,2,15)        =         2.093912	     119.972298
	 B(4,11,9)        =         2.093699	     119.960108
	 B(4,11,13)       =         2.081063	     119.236128
	 B(5,7,12)        =         2.165925	     124.098358
	 B(5,7,20)        =         2.107345	     120.741964
	 B(5,10,6)        =         2.090132	     119.755729
	 B(5,10,9)        =         2.096851	     120.140709
	 B(6,8,12)        =         2.165219	     124.057883
	 B(6,8,21)        =         2.107600	     120.756603
	 B(6,10,9)        =         2.096201	     120.103464
	 B(7,5,10)        =         2.057191	     117.868385
	 B(7,5,18)        =         2.099038	     120.266022
	 B(7,12,8)        =         2.030529	     116.340763
	 B(8,6,10)        =         2.057374	     117.878828
	 B(8,6,19)        =         2.099508	     120.292952
	 B(9,3,16)        =         2.110419	     120.918077
	 B(9,11,13)       =         2.108422	     120.803676
	 B(10,5,18)       =         2.126955	     121.865550
	 B(10,6,19)       =         2.126303	     121.828162
	 B(10,9,11)       =         2.097476	     120.176533
	 B(11,4,17)       =         2.093740	     119.962450
	 B(12,7,20)       =         2.009915	     115.159674
	 B(12,8,21)       =         2.010366	     115.185510
	 D(1,2,4,11)      =        -0.000325	      -0.018609
	 D(1,2,4,17)      =        -3.141151	    -179.974682
	 D(1,3,9,10)      =        -3.141334	    -179.985190
	 D(1,3,9,11)      =         0.000325	       0.018608
	 D(2,1,3,9)       =        -0.000348	      -0.019945
	 D(2,1,3,16)      =        -3.140969	    -179.964243
	 D(2,4,11,9)      =         0.000301	       0.017261
	 D(2,4,11,13)     =         3.140029	     179.910408
	 D(3,1,2,4)       =         0.000348	       0.019955
	 D(3,1,2,15)      =        -3.141142	    -179.974167
	 D(3,9,10,5)      =         0.000341	       0.019530
	 D(3,9,10,6)      =         3.139930	     179.904747
	 D(3,9,11,4)      =        -0.000301	      -0.017270
	 D(3,9,11,13)     =        -3.139999	    -179.908714
	 D(4,2,1,14)      =         3.141002	     179.966134
	 D(4,11,9,10)     =         3.141358	     179.986543
	 D(5,7,12,8)      =        -0.000740	      -0.042392
	 D(5,10,6,8)      =        -0.001271	      -0.072815
	 D(5,10,6,19)     =        -3.141340	    -179.985503
	 D(5,10,9,11)     =        -3.141318	    -179.984273
	 D(6,8,12,7)      =        -0.000313	      -0.017924
	 D(6,10,5,7)      =         0.000329	       0.018855
	 D(6,10,5,18)     =        -3.139940	    -179.905314
	 D(6,10,9,11)     =        -0.001729	      -0.099055
	 D(7,5,10,9)      =         3.139925	     179.904473
	 D(7,12,8,21)     =        -3.141524	    -179.996075
	 D(8,6,10,9)      =        -3.140868	    -179.958476
	 D(8,12,7,20)     =         3.140441	     179.934030
	 D(9,3,1,14)      =        -3.141002	    -179.966136
	 D(9,10,5,18)     =        -0.000344	      -0.019696
	 D(9,10,6,19)     =         0.002249	       0.128836
	 D(9,11,4,17)     =         3.141128	     179.973370
	 D(10,5,7,12)     =         0.000728	       0.041708
	 D(10,5,7,20)     =        -3.140431	    -179.933461
	 D(10,6,8,12)     =         0.001306	       0.074821
	 D(10,6,8,21)     =        -3.140688	    -179.948187
	 D(10,9,3,16)     =        -0.000731	      -0.041910
	 D(10,9,11,13)    =         0.001660	       0.095099
	 D(11,4,2,15)     =         3.141165	     179.975516
	 D(11,9,3,16)     =         3.140927	     179.961888
	 D(12,7,5,18)     =         3.141019	     179.967142
	 D(12,8,6,19)     =         3.141399	     179.988906
	 D(13,11,4,17)    =        -0.002330	      -0.133484
	 D(14,1,2,15)     =        -0.000488	      -0.027988
	 D(14,1,3,16)     =         0.001563	       0.089566
	 D(15,2,4,17)     =         0.000339	       0.019443
	 D(18,5,7,20)     =        -0.000140	      -0.008027
	 D(19,6,8,21)     =        -0.000595	      -0.034102
	 R(6,13)          =         4.704907	       2.489730

	Current energy   :      -577.7113375141

	Generating empirical Hessian (Schlegel '84) for each fragment.
	Adding user-defined constraint: Fragment 1; Coordinate 67:
		Value =     0.000341; Fixed value    =     0.000017
		Force =    -0.000162; Force constant =     0.500000
	Removing off-diagonal coupling between coordinate 67 and others.
	Taking RFO optimization step.
	Going to follow RFO solution 1.
	Using RFO vector 1.

	Determining step-restricting scale parameter for RS-RFO.
	Maximum step size allowed    0.10000

	 Iter      |step|        alpha        rfo_root  
	------------------------------------------------
	    0     0.46530       1.00000           1
	    1     0.30067       4.14412           1
	    2     0.20280      12.00575           1
	    3     0.14561      27.82081           1
	    4     0.11504      49.41465           1
	    5     0.10259      64.91761           1
	    6     0.10010      68.78550           1
	    7     0.10000      68.94856           1
	------------------------------------------------
	Norm of target step-size    0.10000
	Projected energy change by RFO approximation:        -0.0073110093

	Back-transformation to cartesian coordinates...
	Successfully converged to displaced geometry.

	--- Internal Coordinate Step in ANG or DEG, aJ/ANG or AJ/DEG ---
	 ---------------------------------------------------------------------------
	   Coordinate                Previous        Force       Change         New 
	   ----------                --------       ------       ------       ------
	    1 R(1,2)          =      1.394038    -0.054816    -0.003733     1.390305
	    2 R(1,3)          =      1.394891    -0.065646    -0.004283     1.390608
	    3 R(1,14)         =      1.086619    -0.042422    -0.003128     1.083491
	    4 R(2,4)          =      1.394821    -0.091429    -0.006131     1.388690
	    5 R(2,15)         =      1.086434    -0.043587    -0.003213     1.083221
	    6 R(3,9)          =      1.394821     0.025373     0.001819     1.396640
	    7 R(3,16)         =      1.087437    -0.081640    -0.006026     1.081411
	    8 R(4,11)         =      1.395407    -0.114193    -0.007465     1.387943
	    9 R(4,17)         =      1.086343    -0.041892    -0.003088     1.083255
	   10 R(5,7)          =      1.385471    -0.020741    -0.001409     1.384061
	   11 R(5,10)         =      1.390897     0.046235     0.003295     1.394192
	   12 R(5,18)         =      1.084831    -0.064770    -0.004764     1.080067
	   13 R(6,8)          =      1.385991     0.017727     0.001187     1.387178
	   14 R(6,10)         =      1.390631     0.087813     0.006066     1.396697
	   15 R(6,19)         =      1.085076    -0.175944    -0.012946     1.072130
	   16 R(7,12)         =      1.351685    -0.139431    -0.008736     1.342948
	   17 R(7,20)         =      1.085640    -0.024399    -0.001797     1.083843
	   18 R(8,12)         =      1.352075    -0.139417    -0.008680     1.343395
	   19 R(8,21)         =      1.085118    -0.024073    -0.001771     1.083347
	   20 R(9,10)         =      1.447032     0.204295     0.014911     1.461943
	   21 R(9,11)         =      1.394521    -0.053072    -0.002932     1.391589
	   22 R(11,13)        =      1.341207    -0.046284    -0.002737     1.338470
	   23 B(1,2,4)        =    120.009056    -0.000115    -0.142597   119.866459
	   24 B(1,2,15)       =    120.018646     0.000153     0.177151   120.195797
	   25 B(1,3,9)        =    119.959722     0.000601     0.657125   120.616847
	   26 B(1,3,16)       =    119.122177    -0.000319    -0.349645   118.772532
	   27 B(2,1,3)        =    120.031219     0.000028     0.027355   120.058574
	   28 B(2,1,14)       =    119.995189    -0.000019    -0.019248   119.975941
	   29 B(2,4,11)       =    119.994870    -0.000280    -0.289042   119.705829
	   30 B(2,4,17)       =    120.042665     0.000283     0.302723   120.345388
	   31 B(3,1,14)       =    119.973570    -0.000009    -0.008106   119.965464
	   32 B(3,9,10)       =    119.778448     0.001329     1.190269   120.968717
	   33 B(3,9,11)       =    120.045019    -0.001572    -1.553292   118.491727
	   34 B(4,2,15)       =    119.972298    -0.000038    -0.034554   119.937744
	   35 B(4,11,9)       =    119.960108     0.001338     1.300452   121.260560
	   36 B(4,11,13)      =    119.236128    -0.000379    -0.443324   118.792804
	   37 B(5,7,12)       =    124.098358     0.000100     0.047164   124.145522
	   38 B(5,7,20)       =    120.741964    -0.000115    -0.095692   120.646272
	   39 B(5,10,6)       =    119.755729    -0.001496    -1.419463   118.336265
	   40 B(5,10,9)       =    120.140709     0.000527     0.414186   120.554894
	   41 B(6,8,12)       =    124.057883     0.000439     0.419505   124.477388
	   42 B(6,8,21)       =    120.756603    -0.000278    -0.274513   120.482090
	   43 B(6,10,9)       =    120.103464     0.000969     1.005292   121.108755
	   44 B(7,5,10)       =    117.868385     0.000777     0.831266   118.699651
	   45 B(7,5,18)       =    120.266022    -0.000608    -0.658729   119.607293
	   46 B(7,12,8)       =    116.340763    -0.000032    -0.161937   116.178826
	   47 B(8,6,10)       =    117.878828     0.000211     0.283472   118.162300
	   48 B(8,6,19)       =    120.292952    -0.000821    -0.935430   119.357522
	   49 B(9,3,16)       =    120.918077    -0.000281    -0.307477   120.610600
	   50 B(9,11,13)      =    120.803676    -0.000959    -0.857116   119.946561
	   51 B(10,5,18)      =    121.865550    -0.000169    -0.172532   121.693018
	   52 B(10,6,19)      =    121.828162     0.000610     0.651963   122.480125
	   53 B(10,9,11)      =    120.176533     0.000242     0.363023   120.539556
	   54 B(11,4,17)      =    119.962450    -0.000002    -0.013681   119.948769
	   55 B(12,7,20)      =    115.159674     0.000015     0.048528   115.208202
	   56 B(12,8,21)      =    115.185510    -0.000161    -0.144991   115.040519
	   57 D(1,2,4,11)     =     -0.018609     0.000000     0.000709    -0.017899
	   58 D(1,2,4,17)     =   -179.974682    -0.000000    -0.000741  -179.975422
	   59 D(1,3,9,10)     =   -179.985190    -0.000000    -0.000381  -179.985571
	   60 D(1,3,9,11)     =      0.018608    -0.000000    -0.002483     0.016125
	   61 D(2,1,3,9)      =     -0.019945     0.000000     0.000956    -0.018988
	   62 D(2,1,3,16)     =   -179.964243    -0.000000    -0.001958  -179.966201
	   63 D(2,4,11,9)     =      0.017261    -0.000000    -0.001772     0.015489
	   64 D(2,4,11,13)    =    179.910408     0.000001     0.004818   179.915226
	   65 D(3,1,2,4)      =      0.019955    -0.000000    -0.000232     0.019723
	   66 D(3,1,2,15)     =   -179.974167    -0.000000    -0.000835  -179.975002
	   67 D(3,9,10,5)     =      0.019530    -0.000001    -0.005821     0.013709
	   68 D(3,9,10,6)     =    179.904747    -0.000000     0.001068   179.905815
	   69 D(3,9,11,4)     =     -0.017270     0.000001     0.002825    -0.014445
	   70 D(3,9,11,13)    =   -179.908714    -0.000001    -0.004325  -179.913039
	   71 D(4,2,1,14)     =    179.966134     0.000000     0.001776   179.967910
	   72 D(4,11,9,10)    =    179.986543     0.000000     0.000700   179.987243
	   73 D(5,7,12,8)     =     -0.042392     0.000000     0.002540    -0.039852
	   74 D(5,10,6,8)     =     -0.072815     0.000001     0.005790    -0.067025
	   75 D(5,10,6,19)    =   -179.985503     0.000001     0.002524  -179.982979
	   76 D(5,10,9,11)    =   -179.984273    -0.000001    -0.003748  -179.988021
	   77 D(6,8,12,7)     =     -0.017924     0.000000     0.000773    -0.017151
	   78 D(6,10,5,7)     =      0.018855    -0.000000    -0.002590     0.016266
	   79 D(6,10,5,18)    =   -179.905314    -0.000001    -0.006845  -179.912159
	   80 D(6,10,9,11)    =     -0.099055     0.000000     0.003141    -0.095915
	   81 D(7,5,10,9)     =    179.904473     0.000001     0.006840   179.911313
	   82 D(7,12,8,21)    =   -179.996075    -0.000000    -0.000594  -179.996669
	   83 D(8,6,10,9)     =   -179.958476    -0.000001    -0.002989  -179.961465
	   84 D(8,12,7,20)    =    179.934030     0.000001     0.004394   179.938424
	   85 D(9,3,1,14)     =   -179.966136    -0.000000    -0.001045  -179.967181
	   86 D(9,10,5,18)    =     -0.019696     0.000001     0.002585    -0.017112
	   87 D(9,10,6,19)    =      0.128836    -0.000001    -0.006255     0.122582
	   88 D(9,11,4,17)    =    179.973370    -0.000000    -0.000187   179.973182
	   89 D(10,5,7,12)    =      0.041708    -0.000000    -0.001683     0.040025
	   90 D(10,5,7,20)    =   -179.933461    -0.000001    -0.003668  -179.937129
	   91 D(10,6,8,12)    =      0.074821    -0.000001    -0.004144     0.070676
	   92 D(10,6,8,21)    =   -179.948187    -0.000000    -0.002669  -179.950856
	   93 D(10,9,3,16)    =     -0.041910     0.000000     0.002577    -0.039333
	   94 D(10,9,11,13)   =      0.095099    -0.000001    -0.006450     0.088649
	   95 D(11,4,2,15)    =    179.975516     0.000000     0.001323   179.976839
	   96 D(11,9,3,16)    =    179.961888     0.000000     0.000475   179.962362
	   97 D(12,7,5,18)    =    179.967142     0.000001     0.002835   179.969977
	   98 D(12,8,6,19)    =    179.988906     0.000000     0.000424   179.989329
	   99 D(13,11,4,17)   =     -0.133484     0.000001     0.006403    -0.127081
	  100 D(14,1,2,15)    =     -0.027988     0.000000     0.001173    -0.026814
	  101 D(14,1,3,16)    =      0.089566    -0.000001    -0.003959     0.085606
	  102 D(15,2,4,17)    =      0.019443    -0.000000    -0.000127     0.019316
	  103 D(18,5,7,20)    =     -0.008027     0.000000     0.000850    -0.007177
	  104 D(19,6,8,21)    =     -0.034102     0.000000     0.001899    -0.032203
	  105 R(6,13)         =      2.489730     0.253723     0.028556     2.518286
	 ---------------------------------------------------------------------------
	Successfully symmetrized geometry.
	 Forces used to impose fixed constraints are not included.
	  Forces zeroed: 67 

  ==> Convergence Check <==

  Measures of convergence in internal coordinates in au.
  Criteria marked as inactive (o), active & met (*), and active & unmet ( ).
  --------------------------------------------------------------------------------------------- ~
   Step     Total Energy     Delta E     MAX Force     RMS Force      MAX Disp      RMS Disp    ~
  --------------------------------------------------------------------------------------------- ~
    Convergence Criteria    1.00e-06 *    3.00e-04 *             o    1.20e-03 *             o  ~
  --------------------------------------------------------------------------------------------- ~
      1    -577.71133751   -5.78e+02      3.08e-02      7.49e-03 o    5.40e-02      9.76e-03 o  ~
  ---------------------------------------------------------------------------------------------

	Writing optimization data to binary file.
	Structure for next step:
	Cartesian Geometry (in Angstrom)
	    C    -1.3882542391   0.8507175810  -2.6719413187
	    C    -2.4625330104   1.4215986655  -1.9989122990
	    C    -0.3541267211   0.2569721241  -1.9565136894
	    C    -2.5004865559   1.3980111496  -0.6109410786
	    C     1.7881787265  -0.9725393565  -0.4574174501
	    C     0.6797347090  -0.4250756307   1.5955536488
	    C     2.7930787768  -1.5490264881   0.2998568120
	    C     1.7397700665  -1.0301555947   2.2546936537
	    C    -0.3807437901   0.2268492275  -0.5604526088
	    C     0.7024141894  -0.3950224580   0.1993643255
	    C    -1.4642104371   0.8034140262   0.0954381295
	    N     2.7949961975  -1.5922466858   1.6421080814
	    F    -1.5186139045   0.7925137360   1.4327573432
	    H    -1.3570834062   0.8676604484  -3.7548514016
	    H    -3.2694663562   1.8843305748  -2.5539847635
	    H     0.4715308312  -0.1802652592  -2.5010895466
	    H    -3.3339420130   1.8401337409  -0.0786615999
	    H     1.8617677681  -0.9786018310  -1.5349571204
	    H    -0.1220550277  -0.0015629683   2.1675962419
	    H     3.6519337530  -2.0059652099  -0.1779414912
	    H     1.7601965567  -1.0753388617   3.3369047796
			--------------------------
			 OPTKING Finished Execution 
			--------------------------

    Structure for next step:
    Molecular point group: c1
    Full point group: C1

    Geometry (in Angstrom), charge = 0, multiplicity = 1:

    C           -1.386991146336     0.849895927216    -2.668142328375
    C           -2.461269917674     1.420777011732    -1.995113308705
    C           -0.352863628370     0.256150470413    -1.952714699093
    C           -2.499223463142     1.397189495878    -0.607142088280
    C            1.789441819238    -0.973361010206    -0.453618459761
    C            0.680997801800    -0.425897284413     1.599352639139
    C            2.794341869538    -1.549848141814     0.303655802358
    C            1.741033159254    -1.030977248476     2.258492643996
    C           -0.379480697345     0.226027573755    -0.556653618455
    C            0.703677282113    -0.395844111691     0.203163315841
    C           -1.462947344370     0.802592372418     0.099237119828
    N            2.796259290263    -1.593068339506     1.645907071765
    F           -1.517350811763     0.791692082300     1.436556333558
    H           -1.355820313394     0.866838794621    -3.751052411326
    H           -3.268203263440     1.883508921073    -2.550185773217
    H            0.472793923943    -0.181086912936    -2.497290556257
    H           -3.332678920207     1.839312087133    -0.074862609548
    H            1.863030860831    -0.979423484732    -1.531158130091
    H           -0.120791934989    -0.002384622077     2.171395232184
    H            3.653196845799    -2.006786863635    -0.174142500931
    H            1.761459649428    -1.076160515429     3.340703769965

gradient() will perform analytic gradient computation.

*** tstart() called on gpu-1-6.local
*** at Sat Nov 11 18:49:44 2017

    SCF Algorithm Type (re)set to DF.

*** tstart() called on gpu-1-6.local
*** at Sat Nov 11 18:49:44 2017

   => Loading Basis Set <=

    Name: AUG-CC-PVTZ
    Role: ORBITAL
    Keyword: BASIS
    atoms 1-11  entry C          line   221 file /cbio/jclab/home/chayas/anaconda/envs/py35/share/psi4/basis/aug-cc-pvtz.gbs 
    atoms 12    entry N          line   267 file /cbio/jclab/home/chayas/anaconda/envs/py35/share/psi4/basis/aug-cc-pvtz.gbs 
    atoms 13    entry F          line   359 file /cbio/jclab/home/chayas/anaconda/envs/py35/share/psi4/basis/aug-cc-pvtz.gbs 
    atoms 14-21 entry H          line    34 file /cbio/jclab/home/chayas/anaconda/envs/py35/share/psi4/basis/aug-cc-pvtz.gbs 


         ---------------------------------------------------------
                                   SCF
            by Justin Turney, Rob Parrish, and Andy Simmonett
                              RHF Reference
                        8 Threads,   4768 MiB Core
         ---------------------------------------------------------

  ==> Geometry <==

    Molecular point group: c1
    Full point group: C1

    Geometry (in Angstrom), charge = 0, multiplicity = 1:

       Center              X                  Y                   Z               Mass       
    ------------   -----------------  -----------------  -----------------  -----------------
           C         -1.386991146336     0.849895927216    -2.668142328375    12.000000000000
           C         -2.461269917674     1.420777011732    -1.995113308705    12.000000000000
           C         -0.352863628370     0.256150470413    -1.952714699093    12.000000000000
           C         -2.499223463142     1.397189495878    -0.607142088280    12.000000000000
           C          1.789441819238    -0.973361010206    -0.453618459761    12.000000000000
           C          0.680997801800    -0.425897284413     1.599352639139    12.000000000000
           C          2.794341869538    -1.549848141814     0.303655802358    12.000000000000
           C          1.741033159254    -1.030977248476     2.258492643996    12.000000000000
           C         -0.379480697345     0.226027573755    -0.556653618455    12.000000000000
           C          0.703677282113    -0.395844111691     0.203163315841    12.000000000000
           C         -1.462947344370     0.802592372418     0.099237119828    12.000000000000
           N          2.796259290263    -1.593068339506     1.645907071765    14.003074004780
           F         -1.517350811763     0.791692082300     1.436556333558    18.998403224000
           H         -1.355820313394     0.866838794621    -3.751052411326     1.007825032070
           H         -3.268203263440     1.883508921073    -2.550185773217     1.007825032070
           H          0.472793923943    -0.181086912936    -2.497290556257     1.007825032070
           H         -3.332678920207     1.839312087133    -0.074862609548     1.007825032070
           H          1.863030860831    -0.979423484732    -1.531158130091     1.007825032070
           H         -0.120791934989    -0.002384622077     2.171395232184     1.007825032070
           H          3.653196845799    -2.006786863635    -0.174142500931     1.007825032070
           H          1.761459649428    -1.076160515429     3.340703769965     1.007825032070

  Running in c1 symmetry.

  Rotational constants: A =      0.06472  B =      0.01860  C =      0.01445 [cm^-1]
  Rotational constants: A =   1940.32830  B =    557.71843  C =    433.20126 [MHz]
  Nuclear repulsion =  718.460232347116516

  Charge       = 0
  Multiplicity = 1
  Electrons    = 90
  Nalpha       = 45
  Nbeta        = 45

  ==> Algorithm <==

  SCF Algorithm Type is DF.
  DIIS enabled.
  MOM disabled.
  Fractional occupation disabled.
  Guess Type is READ.
  Energy threshold   = 1.00e-10
  Density threshold  = 1.00e-10
  Integral threshold = 0.00e+00

  ==> Primary Basis <==

  Basis Set: AUG-CC-PVTZ
    Blend: AUG-CC-PVTZ
    Number of shells: 254
    Number of basis function: 782
    Number of Cartesian functions: 915
    Spherical Harmonics?: true
    Max angular momentum: 3

   => Loading Basis Set <=

    Name: (AUG-CC-PVTZ AUX)
    Role: JKFIT
    Keyword: DF_BASIS_SCF
    atoms 1-11  entry C          line   161 file /cbio/jclab/home/chayas/anaconda/envs/py35/share/psi4/basis/aug-cc-pvtz-jkfit.gbs 
    atoms 12    entry N          line   223 file /cbio/jclab/home/chayas/anaconda/envs/py35/share/psi4/basis/aug-cc-pvtz-jkfit.gbs 
    atoms 13    entry F          line   347 file /cbio/jclab/home/chayas/anaconda/envs/py35/share/psi4/basis/aug-cc-pvtz-jkfit.gbs 
    atoms 14-21 entry H          line    69 file /cbio/jclab/home/chayas/anaconda/envs/py35/share/psi4/basis/aug-cc-pvtz-jkfit.gbs 

  Reading orbitals from file 180, no projection.

  ==> Pre-Iterations <==

   -------------------------------------------------------
    Irrep   Nso     Nmo     Nalpha   Nbeta   Ndocc  Nsocc
   -------------------------------------------------------
     A        782     782       0       0       0       0
   -------------------------------------------------------
    Total     782     782      45      45      45       0
   -------------------------------------------------------

  ==> Integral Setup <==

  ==> DFJK: Density-Fitted J/K Matrices <==

    J tasked:                  Yes
    K tasked:                  Yes
    wK tasked:                  No
    OpenMP threads:              8
    Integrals threads:           8
    Memory (MB):              3576
    Algorithm:                Disk
    Integral Cache:           NONE
    Schwarz Cutoff:          1E-12
    Fitting Condition:       1E-12

   => Auxiliary Basis Set <=

  Basis Set: (AUG-CC-PVTZ AUX)
    Blend: AUG-CC-PVTZ-JKFIT
    Number of shells: 502
    Number of basis function: 1720
    Number of Cartesian functions: 2143
    Spherical Harmonics?: true
    Max angular momentum: 4

  Minimum eigenvalue in the overlap matrix is 3.6345064824E-07.
  Using Symmetric Orthogonalization.

  SCF Guess: Orbitals guess was supplied from a previous computation.

  ==> Iterations <==

                           Total Energy        Delta E     RMS |[F,P]|

   @DF-RHF iter   0:  -575.41409620550212   -5.75414e+02   3.65305e-04 
   @DF-RHF iter   1:  -575.27268431354730    1.41412e-01   1.40413e-04 
   @DF-RHF iter   2:  -575.27362681450870   -9.42501e-04   8.48306e-05 DIIS
   @DF-RHF iter   3:  -575.27442466395030   -7.97849e-04   1.31761e-05 DIIS
   @DF-RHF iter   4:  -575.27443763793110   -1.29740e-05   2.91576e-06 DIIS
   @DF-RHF iter   5:  -575.27443902996333   -1.39203e-06   7.37494e-07 DIIS
   @DF-RHF iter   6:  -575.27443923986550   -2.09902e-07   6.72795e-07 DIIS
   @DF-RHF iter   7:  -575.27443932541701   -8.55515e-08   3.72172e-07 DIIS
   @DF-RHF iter   8:  -575.27443936042118   -3.50042e-08   9.22528e-08 DIIS
   @DF-RHF iter   9:  -575.27443936458985   -4.16867e-09   4.95729e-08 DIIS
   @DF-RHF iter  10:  -575.27443936493785   -3.47995e-10   2.04445e-08 DIIS
   @DF-RHF iter  11:  -575.27443936501243   -7.45786e-11   8.82726e-09 DIIS
   @DF-RHF iter  12:  -575.27443936500970    2.72848e-12   3.06402e-09 DIIS
   @DF-RHF iter  13:  -575.27443936500549    4.20641e-12   2.13583e-09 DIIS
   @DF-RHF iter  14:  -575.27443936501140   -5.91172e-12   7.92748e-10 DIIS
   @DF-RHF iter  15:  -575.27443936502573   -1.43245e-11   1.37799e-10 DIIS
   @DF-RHF iter  16:  -575.27443936501538    1.03455e-11   5.92841e-11 DIIS

  ==> Post-Iterations <==

    Orbital Energies (a.u.)
    -----------------------

    Doubly Occupied:                                                      

       1A    -26.329085     2A    -15.560800     3A    -11.343566  
       4A    -11.271369     5A    -11.269049     6A    -11.268624  
       7A    -11.264870     8A    -11.259475     9A    -11.259352  
      10A    -11.255713    11A    -11.251029    12A    -11.238358  
      13A    -11.227743    14A     -1.655430    15A     -1.252105  
      16A     -1.186606    17A     -1.113638    18A     -1.040337  
      19A     -1.031913    20A     -1.028840    21A     -0.894748  
      22A     -0.877676    23A     -0.847461    24A     -0.826889  
      25A     -0.762061    26A     -0.735251    27A     -0.720215  
      28A     -0.718336    29A     -0.674447    30A     -0.662943  
      31A     -0.649112    32A     -0.626499    33A     -0.609937  
      34A     -0.592716    35A     -0.584089    36A     -0.552134  
      37A     -0.542491    38A     -0.525366    39A     -0.519372  
      40A     -0.499926    41A     -0.417797    42A     -0.415940  
      43A     -0.356032    44A     -0.345814    45A     -0.323837  

    Virtual:                                                              

      46A      0.022703    47A      0.028619    48A      0.033741  
      49A      0.040420    50A      0.043489    51A      0.053259  
      52A      0.058074    53A      0.060318    54A      0.075474  
      55A      0.079824    56A      0.085243    57A      0.085343  
      58A      0.091471    59A      0.092143    60A      0.098802  
      61A      0.102778    62A      0.107318    63A      0.109610  
      64A      0.113166    65A      0.113820    66A      0.116686  
      67A      0.117771    68A      0.129592    69A      0.130944  
      70A      0.133541    71A      0.136263    72A      0.139106  
      73A      0.142938    74A      0.147154    75A      0.147247  
      76A      0.152162    77A      0.153854    78A      0.155455  
      79A      0.166398    80A      0.168806    81A      0.173769  
      82A      0.182938    83A      0.183254    84A      0.188076  
      85A      0.192773    86A      0.196663    87A      0.206233  
      88A      0.209272    89A      0.211885    90A      0.220763  
      91A      0.230509    92A      0.234705    93A      0.237396  
      94A      0.241538    95A      0.246211    96A      0.249819  
      97A      0.251473    98A      0.262063    99A      0.264632  
     100A      0.270630   101A      0.272038   102A      0.278642  
     103A      0.279185   104A      0.284179   105A      0.288408  
     106A      0.289373   107A      0.292360   108A      0.301335  
     109A      0.305623   110A      0.310330   111A      0.311751  
     112A      0.312632   113A      0.317194   114A      0.324242  
     115A      0.324618   116A      0.335121   117A      0.336913  
     118A      0.345962   119A      0.349383   120A      0.356733  
     121A      0.359113   122A      0.368376   123A      0.369349  
     124A      0.371508   125A      0.382607   126A      0.395053  
     127A      0.404907   128A      0.407987   129A      0.409601  
     130A      0.411968   131A      0.413285   132A      0.421813  
     133A      0.428906   134A      0.429178   135A      0.429728  
     136A      0.432610   137A      0.432760   138A      0.437007  
     139A      0.440196   140A      0.442292   141A      0.445642  
     142A      0.450937   143A      0.460506   144A      0.460665  
     145A      0.462195   146A      0.469235   147A      0.470341  
     148A      0.471106   149A      0.478958   150A      0.484354  
     151A      0.489192   152A      0.492855   153A      0.494716  
     154A      0.499259   155A      0.500975   156A      0.503265  
     157A      0.509214   158A      0.510075   159A      0.515706  
     160A      0.523545   161A      0.526516   162A      0.531830  
     163A      0.533346   164A      0.537794   165A      0.539749  
     166A      0.544609   167A      0.547397   168A      0.555677  
     169A      0.556073   170A      0.563444   171A      0.569274  
     172A      0.576420   173A      0.579890   174A      0.582995  
     175A      0.591134   176A      0.591950   177A      0.593088  
     178A      0.605090   179A      0.607268   180A      0.614921  
     181A      0.623242   182A      0.626123   183A      0.646001  
     184A      0.647959   185A      0.651916   186A      0.661353  
     187A      0.670813   188A      0.684166   189A      0.685065  
     190A      0.687986   191A      0.694964   192A      0.695211  
     193A      0.701484   194A      0.711752   195A      0.714980  
     196A      0.716695   197A      0.725547   198A      0.727385  
     199A      0.728811   200A      0.735082   201A      0.744793  
     202A      0.755640   203A      0.759903   204A      0.763341  
     205A      0.770660   206A      0.774569   207A      0.780851  
     208A      0.780874   209A      0.800648   210A      0.803208  
     211A      0.809848   212A      0.813827   213A      0.815632  
     214A      0.824952   215A      0.831611   216A      0.841017  
     217A      0.852008   218A      0.857294   219A      0.858380  
     220A      0.866783   221A      0.867271   222A      0.874954  
     223A      0.882884   224A      0.883766   225A      0.891708  
     226A      0.894643   227A      0.895612   228A      0.902229  
     229A      0.902337   230A      0.912415   231A      0.917968  
     232A      0.918311   233A      0.926850   234A      0.930679  
     235A      0.933080   236A      0.933789   237A      0.938696  
     238A      0.947710   239A      0.948249   240A      0.953782  
     241A      0.961355   242A      0.963208   243A      0.964407  
     244A      0.968343   245A      0.970506   246A      0.979678  
     247A      0.992343   248A      0.997748   249A      1.000947  
     250A      1.001512   251A      1.004145   252A      1.011562  
     253A      1.012841   254A      1.019421   255A      1.020221  
     256A      1.029452   257A      1.033653   258A      1.035848  
     259A      1.039554   260A      1.039714   261A      1.053862  
     262A      1.055044   263A      1.065582   264A      1.067022  
     265A      1.070540   266A      1.072702   267A      1.079149  
     268A      1.081957   269A      1.087341   270A      1.096503  
     271A      1.101914   272A      1.102053   273A      1.113615  
     274A      1.119537   275A      1.120409   276A      1.125934  
     277A      1.129631   278A      1.135926   279A      1.149641  
     280A      1.149912   281A      1.169435   282A      1.170854  
     283A      1.176957   284A      1.180611   285A      1.182711  
     286A      1.194494   287A      1.194844   288A      1.197072  
     289A      1.212409   290A      1.213741   291A      1.214513  
     292A      1.215829   293A      1.220852   294A      1.226380  
     295A      1.233011   296A      1.239010   297A      1.242449  
     298A      1.249628   299A      1.251264   300A      1.254793  
     301A      1.262400   302A      1.265452   303A      1.265926  
     304A      1.281358   305A      1.291098   306A      1.299927  
     307A      1.304761   308A      1.311472   309A      1.319465  
     310A      1.326713   311A      1.333296   312A      1.335407  
     313A      1.348195   314A      1.352786   315A      1.355832  
     316A      1.359755   317A      1.364050   318A      1.373177  
     319A      1.377094   320A      1.385550   321A      1.398098  
     322A      1.404717   323A      1.414079   324A      1.416020  
     325A      1.431253   326A      1.439755   327A      1.454474  
     328A      1.456060   329A      1.469397   330A      1.473244  
     331A      1.493537   332A      1.501135   333A      1.507491  
     334A      1.517249   335A      1.517502   336A      1.519264  
     337A      1.529380   338A      1.538308   339A      1.547916  
     340A      1.551528   341A      1.559092   342A      1.572281  
     343A      1.591698   344A      1.602993   345A      1.608826  
     346A      1.611651   347A      1.617095   348A      1.634305  
     349A      1.637136   350A      1.643836   351A      1.659712  
     352A      1.661249   353A      1.669598   354A      1.678592  
     355A      1.678640   356A      1.688522   357A      1.689871  
     358A      1.698770   359A      1.718746   360A      1.725893  
     361A      1.729290   362A      1.740419   363A      1.742508  
     364A      1.743853   365A      1.748428   366A      1.767507  
     367A      1.771150   368A      1.776016   369A      1.784462  
     370A      1.791425   371A      1.800158   372A      1.815173  
     373A      1.826151   374A      1.826750   375A      1.846564  
     376A      1.847507   377A      1.848546   378A      1.861487  
     379A      1.873500   380A      1.881555   381A      1.894837  
     382A      1.899930   383A      1.908987   384A      1.924110  
     385A      1.930482   386A      1.938803   387A      1.943570  
     388A      1.948712   389A      1.964064   390A      1.971084  
     391A      1.975486   392A      1.975843   393A      1.992434  
     394A      1.997858   395A      2.011674   396A      2.022141  
     397A      2.022759   398A      2.025468   399A      2.036048  
     400A      2.041182   401A      2.053405   402A      2.057416  
     403A      2.068346   404A      2.068801   405A      2.075865  
     406A      2.080013   407A      2.089782   408A      2.092531  
     409A      2.097954   410A      2.113289   411A      2.115421  
     412A      2.130763   413A      2.139948   414A      2.150725  
[...]
	 R(7,12)          =         2.522804	       1.335010
	 R(7,20)          =         2.043404	       1.081323
	 R(8,12)          =         2.518720	       1.332849
	 R(8,21)          =         2.042943	       1.081079
	 R(9,10)          =         2.781593	       1.471955
	 R(9,11)          =         2.638242	       1.396098
	 R(11,13)         =         2.549191	       1.348974
	 B(1,2,4)         =         2.075188	     118.899488
	 B(1,2,15)        =         2.111437	     120.976432
	 B(1,3,9)         =         2.146495	     122.985125
	 B(1,3,16)        =         2.055890	     117.793844
	 B(2,1,3)         =         2.095463	     120.061184
	 B(2,1,14)        =         2.101813	     120.425000
	 B(2,4,11)        =         2.090274	     119.763874
	 B(2,4,17)        =         2.128674	     121.964044
	 B(3,1,14)        =         2.085910	     119.513816
	 B(3,9,10)        =         2.105111	     120.613995
	 B(3,9,11)        =         2.001291	     114.665506
	 B(4,2,15)        =         2.096561	     120.124080
	 B(4,11,9)        =         2.157660	     123.624824
	 B(4,11,13)       =         2.018279	     115.638856
	 B(5,7,12)        =         2.163996	     123.987840
	 B(5,7,20)        =         2.088851	     119.682320
	 B(5,10,6)        =         2.011787	     115.266880
	 B(5,10,9)        =         2.107878	     120.772500
	 B(6,8,12)        =         2.171049	     124.391950
	 B(6,8,21)        =         2.083032	     119.348925
	 B(6,10,9)        =         2.163521	     123.960620
	 B(7,5,10)        =         2.103523	     120.522977
	 B(7,5,18)        =         2.054426	     117.709960
	 B(7,12,8)        =         2.020797	     115.783157
	 B(8,6,10)        =         2.095219	     120.047196
	 B(8,6,19)        =         2.069070	     118.548959
	 B(9,3,16)        =         2.080800	     119.221032
	 B(9,11,13)       =         2.107246	     120.736321
	 B(10,5,18)       =         2.125236	     121.767064
	 B(10,6,19)       =         2.118897	     121.403845
	 B(10,9,11)       =         2.176783	     124.720499
	 B(11,4,17)       =         2.064237	     118.272082
	 B(12,7,20)       =         2.030339	     116.329839
	 B(12,8,21)       =         2.029105	     116.259126
	 D(1,2,4,11)      =        -0.000016	      -0.000933
	 D(1,2,4,17)      =         3.141575	     179.999015
	 D(1,3,9,10)      =         3.141593	     180.000000
	 D(1,3,9,11)      =        -0.000025	      -0.001406
	 D(2,1,3,9)       =         0.000018	       0.001034
	 D(2,1,3,16)      =         3.141593	     180.000000
	 D(2,4,11,9)      =         0.000000	       0.000000
	 D(2,4,11,13)     =         3.141577	     179.999118
	 D(3,1,2,4)       =         0.000000	       0.000000
	 D(3,1,2,15)      =         3.141593	     180.000000
	 D(3,9,10,5)      =         0.000000	       0.000000
	 D(3,9,10,6)      =         3.141549	     179.997502
	 D(3,9,11,4)      =         0.000000	       0.000000
	 D(3,9,11,13)     =        -3.141556	    -179.997907
	 D(4,2,1,14)      =         3.141593	     180.000000
	 D(4,11,9,10)     =         3.141567	     179.998533
	 D(5,7,12,8)      =        -0.000000	      -0.000000
	 D(5,10,6,8)      =        -0.000034	      -0.001974
	 D(5,10,6,19)     =         3.141538	     179.996866
	 D(5,10,9,11)     =        -3.141544	    -179.997231
	 D(6,8,12,7)      =         0.000000	       0.000000
	 D(6,10,5,7)      =         0.000036	       0.002076
	 D(6,10,5,18)     =        -3.141560	    -179.998113
	 D(6,10,9,11)     =        -0.000000	      -0.000000
	 D(7,5,10,9)      =         3.141593	     180.000000
	 D(7,12,8,21)     =        -3.141562	    -179.998218
	 D(8,6,10,9)      =        -3.141577	    -179.999083
	 D(8,12,7,20)     =         3.141593	     180.000000
	 D(9,3,1,14)      =        -3.141578	    -179.999182
	 D(9,10,5,18)     =        -0.000016	      -0.000905
	 D(9,10,6,19)     =        -0.000000	      -0.000000
	 D(9,11,4,17)     =         3.141593	     180.000000
	 D(10,5,7,12)     =        -0.000017	      -0.000975
	 D(10,5,7,20)     =         3.141593	     180.000000
	 D(10,6,8,12)     =         0.000000	       0.000000
	 D(10,6,8,21)     =         3.141593	     180.000000
	 D(10,9,3,16)     =         0.000020	       0.001126
	 D(10,9,11,13)    =        -0.000000	      -0.000000
	 D(11,4,2,15)     =         3.141593	     180.000000
	 D(11,9,3,16)     =         3.141577	     179.999116
	 D(12,7,5,18)     =         3.141593	     180.000000
	 D(12,8,6,19)     =        -3.141560	    -179.998103
	 D(13,11,4,17)    =        -0.000015	      -0.000831
	 D(14,1,2,15)     =        -0.000000	      -0.000000
	 D(14,1,3,16)     =         0.000000	       0.000000
	 D(15,2,4,17)     =        -0.000000	      -0.000000
	 D(18,5,7,20)     =        -0.000000	      -0.000000
	 D(19,6,8,21)     =         0.000000	       0.000000
	 R(6,13)          =         5.231703	       2.768498

	Current energy   :      -577.7244484728

	Energy change for the previous step:
		Projected    :        -0.0000003786
		Actual       :        -0.0000007854

	Performing BFGS update.
	Previous computed or guess Hessian on step 1.
	Steps to be used in Hessian update: 8 7
	Adding user-defined constraint: Fragment 1; Coordinate 67:
		Value =     0.000000; Fixed value    =     0.000020
		Force =     0.000014; Force constant =     0.700000
	Removing off-diagonal coupling between coordinate 67 and others.
	Taking RFO optimization step.
	Going to follow RFO solution 1.
	Using RFO vector 1.
	Norm of target step-size    0.00091
	Projected energy change by RFO approximation:        -0.0000001571

	Back-transformation to cartesian coordinates...
	Could not converge backtransformation.
	Using first guess instead.

	--- Internal Coordinate Step in ANG or DEG, aJ/ANG or AJ/DEG ---
	 ---------------------------------------------------------------------------
	   Coordinate                Previous        Force       Change         New 
	   ----------                --------       ------       ------       ------
	    1 R(1,2)          =      1.387240     0.000037     0.000011     1.387251
	    2 R(1,3)          =      1.382902    -0.000052    -0.000007     1.382895
	    3 R(1,14)         =      1.078761    -0.000029    -0.000004     1.078758
	    4 R(2,4)          =      1.383102    -0.000082    -0.000016     1.383085
	    5 R(2,15)         =      1.078818    -0.000020    -0.000001     1.078816
	    6 R(3,9)          =      1.401436    -0.000081    -0.000009     1.401427
	    7 R(3,16)         =      1.075886    -0.000002    -0.000000     1.075885
	    8 R(4,11)         =      1.380930     0.000046     0.000022     1.380951
	    9 R(4,17)         =      1.078156     0.000007     0.000006     1.078162
	   10 R(5,7)          =      1.383378     0.000261     0.000049     1.383427
	   11 R(5,10)         =      1.397547    -0.000383    -0.000075     1.397472
	   12 R(5,18)         =      1.076235     0.000006     0.000000     1.076236
	   13 R(6,8)          =      1.386637    -0.000170    -0.000035     1.386602
	   14 R(6,10)         =      1.397031     0.000248     0.000048     1.397079
	   15 R(6,19)         =      1.072675    -0.000196    -0.000034     1.072642
	   16 R(7,12)         =      1.335010    -0.000365    -0.000058     1.334952
	   17 R(7,20)         =      1.081323     0.000003     0.000004     1.081327
	   18 R(8,12)         =      1.332849     0.000303     0.000056     1.332905
	   19 R(8,21)         =      1.081079    -0.000030    -0.000006     1.081073
	   20 R(9,10)         =      1.471955     0.000414     0.000111     1.472067
	   21 R(9,11)         =      1.396098    -0.000085    -0.000006     1.396092
	   22 R(11,13)        =      1.348974    -0.001053    -0.000170     1.348804
	   23 B(1,2,4)        =    118.899488     0.000001     0.002286   118.901774
	   24 B(1,2,15)       =    120.976432     0.000000     0.002936   120.979368
	   25 B(1,3,9)        =    122.985125     0.000000     0.000664   122.985789
	   26 B(1,3,16)       =    117.793844     0.000001     0.004139   117.797983
	   27 B(2,1,3)        =    120.061184    -0.000001    -0.005846   120.055338
	   28 B(2,1,14)       =    120.425000     0.000000     0.001306   120.426306
	   29 B(2,4,11)       =    119.763874     0.000001     0.007055   119.770929
	   30 B(2,4,17)       =    121.964044    -0.000002    -0.011503   121.952541
	   31 B(3,1,14)       =    119.513816     0.000001     0.004540   119.518356
	   32 B(3,9,10)       =    120.613995    -0.000002    -0.011600   120.602395
	   33 B(3,9,11)       =    114.665506     0.000002     0.009083   114.674590
	   34 B(4,2,15)       =    120.124080    -0.000001    -0.005222   120.118858
	   35 B(4,11,9)       =    123.624824    -0.000002    -0.013243   123.611581
	   36 B(4,11,13)      =    115.638856     0.000002     0.008152   115.647008
	   37 B(5,7,12)       =    123.987840    -0.000000    -0.000123   123.987717
	   38 B(5,7,20)       =    119.682320    -0.000001    -0.003354   119.678967
	   39 B(5,10,6)       =    115.266880     0.000001     0.004503   115.271384
	   40 B(5,10,9)       =    120.772500    -0.000001    -0.001768   120.770732
	   41 B(6,8,12)       =    124.391950    -0.000000    -0.001397   124.390553
	   42 B(6,8,21)       =    119.348925     0.000001     0.007292   119.356217
	   43 B(6,10,9)       =    123.960620    -0.000000    -0.002736   123.957884
	   44 B(7,5,10)       =    120.522977    -0.000000    -0.002100   120.520877
	   45 B(7,5,18)       =    117.709960    -0.000000    -0.001002   117.708958
	   46 B(7,12,8)       =    115.783157     0.000000     0.002054   115.785211
	   47 B(8,6,10)       =    120.047196    -0.000001    -0.002938   120.044259
	   48 B(8,6,19)       =    118.548959    -0.000000    -0.000594   118.548365
	   49 B(9,3,16)       =    119.221032    -0.000001    -0.004803   119.216228
	   50 B(9,11,13)      =    120.736321     0.000000     0.005091   120.741412
	   51 B(10,5,18)      =    121.767064     0.000000     0.003102   121.770165
	   52 B(10,6,19)      =    121.403845     0.000001     0.003532   121.407377
	   53 B(10,9,11)      =    124.720499    -0.000000     0.002517   124.723015
	   54 B(11,4,17)      =    118.272082     0.000001     0.004448   118.276530
	   55 B(12,7,20)      =    116.329839     0.000001     0.003477   116.333316
	   56 B(12,8,21)      =    116.259126    -0.000001    -0.005896   116.253230
	   57 D(1,2,4,11)     =     -0.000933     0.000000     0.000933     0.000000
	   58 D(1,2,4,17)     =    179.999015     0.000000     0.000985   180.000000
	   59 D(1,3,9,10)     =    180.000000    -0.000000    -0.001229   179.998771
	   60 D(1,3,9,11)     =     -0.001406     0.000000     0.002834     0.001427
	   61 D(2,1,3,9)      =      0.001034    -0.000000    -0.002457    -0.001423
	   62 D(2,1,3,16)     =    180.000000    -0.000000     0.000000   180.000000
	   63 D(2,4,11,9)     =      0.000000     0.000000     0.000000     0.000000
	   64 D(2,4,11,13)    =    179.999118     0.000000     0.001728   180.000847
	   65 D(3,1,2,4)      =      0.000000    -0.000000     0.000000     0.000000
	   66 D(3,1,2,15)     =    180.000000     0.000000     0.000903   180.000903
	   67 D(3,9,10,5)     =      0.000000     0.000000     0.001287     0.001287
	   68 D(3,9,10,6)     =    179.997502     0.000000     0.007193   180.004695
	   69 D(3,9,11,4)     =      0.000000    -0.000000     0.000000     0.000000
	   70 D(3,9,11,13)    =   -179.997907    -0.000000    -0.003944  -180.001851
	   71 D(4,2,1,14)     =    180.000000    -0.000000     0.000000   180.000000
	   72 D(4,11,9,10)    =    179.998533     0.000000     0.003758   180.002290
	   73 D(5,7,12,8)     =      0.000000    -0.000000     0.000000     0.000000
	   74 D(5,10,6,8)     =     -0.001974    -0.000000     0.003300     0.001326
	   75 D(5,10,6,19)    =    179.996866     0.000000     0.005914   180.002780
	   76 D(5,10,9,11)    =   -179.997231     0.000000    -0.004419  -180.001650
	   77 D(6,8,12,7)     =      0.000000     0.000000     0.000000     0.000000
	   78 D(6,10,5,7)     =      0.002076    -0.000000    -0.003512    -0.001436
	   79 D(6,10,5,18)    =   -179.998113    -0.000000    -0.003477  -180.001590
	   80 D(6,10,9,11)    =      0.000000     0.000000     0.001758     0.001758
	   81 D(7,5,10,9)     =    180.000000    -0.000000     0.001691   180.001691
	   82 D(7,12,8,21)    =   -179.998218    -0.000000    -0.003880  -180.002099
	   83 D(8,6,10,9)     =   -179.999083     0.000000    -0.002831  -180.001913
	   84 D(8,12,7,20)    =    180.000000     0.000000     0.000000   180.000000
	   85 D(9,3,1,14)     =   -179.999182    -0.000000    -0.001704  -180.000886
	   86 D(9,10,5,18)    =     -0.000905    -0.000000     0.002441     0.001536
	   87 D(9,10,6,19)    =      0.000000     0.000000     0.000000     0.000000
	   88 D(9,11,4,17)    =    180.000000    -0.000000     0.000000   180.000000
	   89 D(10,5,7,12)    =     -0.000975     0.000000     0.001840     0.000865
	   90 D(10,5,7,20)    =    180.000000    -0.000000     0.000000   180.000000
	   91 D(10,6,8,12)    =      0.000000    -0.000000     0.000000     0.000000
	   92 D(10,6,8,21)    =    180.000000     0.000000     0.001487   180.001487
	   93 D(10,9,3,16)    =      0.001126    -0.000000    -0.002978    -0.001851
	   94 D(10,9,11,13)   =      0.000000     0.000000     0.000931     0.000931
	   95 D(11,4,2,15)    =    180.000000    -0.000000     0.000000   180.000000
	   96 D(11,9,3,16)    =    179.999116     0.000000     0.000884   180.000000
	   97 D(12,7,5,18)    =    180.000000     0.000000     0.001014   180.001014
	   98 D(12,8,6,19)    =   -179.998103    -0.000000    -0.003948  -180.002051
	   99 D(13,11,4,17)   =     -0.000831     0.000000     0.000831     0.000000
	  100 D(14,1,2,15)    =      0.000000     0.000000     0.000000     0.000000
	  101 D(14,1,3,16)    =      0.000000    -0.000000     0.000000     0.000000
	  102 D(15,2,4,17)    =      0.000000     0.000000     0.000000     0.000000
	  103 D(18,5,7,20)    =      0.000000     0.000000     0.000000     0.000000
	  104 D(19,6,8,21)    =      0.000000     0.000000     0.000000     0.000000
	  105 R(6,13)         =      2.768498     0.000153     0.000240     2.768738
	 ---------------------------------------------------------------------------
	Successfully symmetrized geometry.
	 Forces used to impose fixed constraints are not included.
	  Forces zeroed: 67 

  ==> Convergence Check <==

  Measures of convergence in internal coordinates in au.
  Criteria marked as inactive (o), active & met (*), and active & unmet ( ).
  ---------------------------------------------------------------------------------------------
   Step     Total Energy     Delta E     MAX Force     RMS Force      MAX Disp      RMS Disp   
  ---------------------------------------------------------------------------------------------
    Convergence Criteria    1.00e-06 *    3.00e-04 *             o    1.20e-03 *             o
  ---------------------------------------------------------------------------------------------
      9    -577.72444847   -7.85e-07 *    1.28e-04 *    1.80e-05 o    4.53e-04 *    8.81e-05 o  ~
  ---------------------------------------------------------------------------------------------


  **** Optimization is complete! (in 9 steps) ****

  ==> Optimization Summary <==

  Measures of convergence in internal coordinates in au.
  --------------------------------------------------------------------------------------------------------------- ~
   Step         Total Energy             Delta E       MAX Force       RMS Force        MAX Disp        RMS Disp  ~
  --------------------------------------------------------------------------------------------------------------- ~
      1    -577.711337514147   -577.711337514147      0.03079643      0.00748821      0.05396349      0.00975897  ~
      2    -577.717265998148     -0.005928484002      0.02438276      0.00431311      0.07577141      0.00975926  ~
      3    -577.720553209730     -0.003287211582      0.01755465      0.00243232      0.08850790      0.00975900  ~
      4    -577.722419341426     -0.001866131696      0.01208857      0.00142761      0.09313201      0.00975907  ~
      5    -577.723533433714     -0.001114092288      0.00775871      0.00084121      0.09485588      0.00976132  ~
      6    -577.724167063600     -0.000633629886      0.00401399      0.00046881      0.09415736      0.00976007  ~
      7    -577.724432328832     -0.000265265233      0.00085862      0.00015779      0.02323229      0.00242117  ~
      8    -577.724447687431     -0.000015358598      0.00036643      0.00006034      0.00317590      0.00036678  ~
      9    -577.724448472807     -0.000000785376      0.00012780      0.00001801      0.00045308      0.00008810  ~
  --------------------------------------------------------------------------------------------------------------- ~

	Writing optimization data to binary file.
	Final energy is   -577.7244484728071
	Final (previous) structure:
	Cartesian Geometry (in Angstrom)
	    C    -1.3691996684   0.8393770853  -2.6671712822
	    C    -2.4623942474   1.4222408774  -2.0429674618
	    C    -0.3658137517   0.2622319964  -1.9105094889
	    C    -2.5262976078   1.4136599379  -0.6613696064
	    C     1.7934514664  -0.9753377776  -0.4205796730
	    C     0.7564926519  -0.4689981681   1.6385195848
	    C     2.8216324664  -1.5647528111   0.2929811707
	    C     1.8310207640  -1.0812206629   2.2656833984
	    C    -0.3889206684   0.2305200452  -0.5096232244
	    C     0.7080468701  -0.3981062143   0.2441301734
	    C    -1.5095191203   0.8299697233   0.0683108741
	    N     2.8633820133  -1.6300289997   1.6257407512
	    F    -1.6565442452   0.8685422891   1.4086935542
	    H    -1.2942539194   0.8321920665  -3.7433020862
	    H    -3.2534956653   1.8766342430  -2.6187564608
	    H     0.4650934539  -0.1792775256  -2.4322305468
	    H    -3.3526684000   1.8522474840  -0.1254850583
	    H     1.8630136841  -0.9796134630  -1.4945562198
	    H    -0.0253677888  -0.0572346435   2.2466127644
	    H     3.6549234178  -2.0073492963  -0.2352175089
	    H     1.8569818297  -1.1297337082   3.3453610069
	Saving final (previous) structure.
			--------------------------
			 OPTKING Finished Execution 
			--------------------------

    Final optimized geometry and variables:
    Molecular point group: c1
    Full point group: C1

    Geometry (in Angstrom), charge = 0, multiplicity = 1:

    C           -1.369199668367     0.839377085266    -2.667171282156
    C           -2.462394247387     1.422240877449    -2.042967461839
    C           -0.365813751733     0.262231996415    -1.910509488907
    C           -2.526297607801     1.413659937896    -0.661369606407
    C            1.793451466399    -0.975337777599    -0.420579673044
    C            0.756492651937    -0.468998168105     1.638519584815
    C            2.821632466446    -1.564752811084     0.292981170721
    C            1.831020764050    -1.081220662943     2.265683398433
    C           -0.388920668378     0.230520045166    -0.509623224401
    C            0.708046870132    -0.398106214269     0.244130173362
    C           -1.509519120317     0.829969723328     0.068310874051
    N            2.863382013282    -1.630028999687     1.625740751206
    F           -1.656544245173     0.868542289121     1.408693554201
    H           -1.294253919433     0.832192066529    -3.743302086179
    H           -3.253495665275     1.876634242953    -2.618756460786
    H            0.465093453873    -0.179277525636    -2.432230546810
    H           -3.352668400017     1.852247484016    -0.125485058289
    H            1.863013684068    -0.979613462994    -1.494556219755
    H           -0.025367788795    -0.057234643485     2.246612764354
    H            3.654923417835    -2.007349296271    -0.235217508855
    H            1.856981829744    -1.129733708161     3.345361006899

	Cleaning optimization helper files.

*** Psi4 exiting successfully. Buy a developer a beer!
