
    -----------------------------------------------------------------------
          Psi4: An Open-Source Ab Initio Electronic Structure Package
                               Psi4 1.1 release

                         Git: Rev {HEAD} add49b9 


    R. M. Parrish, L. A. Burns, D. G. A. Smith, A. C. Simmonett,
    A. E. DePrince III, E. G. Hohenstein, U. Bozkaya, A. Yu. Sokolov,
    R. Di Remigio, R. M. Richard, J. F. Gonthier, A. M. James,
    H. R. McAlexander, A. Kumar, M. Saitow, X. Wang, B. P. Pritchard,
    P. Verma, H. F. Schaefer III, K. Patkowski, R. A. King, E. F. Valeev,
    F. A. Evangelista, J. M. Turney, T. D. Crawford, and C. D. Sherrill,
    J. Chem. Theory Comput. in press (2017).
    (doi: 10.1021/acs.jctc.7b00174)

    -----------------------------------------------------------------------


    Psi4 started on: Sunday, 12 November 2017 09:14AM

    Process ID:   7938
    PSIDATADIR: /cbio/jclab/home/chayas/anaconda/envs/py35/share/psi4
    Memory:     500.0 MiB
    Threads:    8
    
  ==> Input File <==

--------------------------------------------------------------------------

memory 5 Gb

molecule phepyrOH_cation {
  symmetry C1
  1 1 
  C      1.885   -1.036   -0.112
  C      2.878   -1.652   2.002
  C      0.807   -0.463   0.561
  C      1.800   -1.079   2.676
  C      4.440   -1.719   -1.322
  C      4.716   -3.305   0.469
  C      5.516   -2.309   -1.970
  C      5.786   -3.855   -0.224
  C      2.921   -1.631   0.608
  C      4.040   -2.225   -0.090
  C      0.764   -0.484   1.955
  N      6.150   -3.348   -1.409
  O      -0.288   0.076   2.612
  H      1.904   -1.012   -1.199
  H      3.678   -2.112   2.578
  H      0.003   -0.001   -0.006
  H      1.772   -1.098   3.762
  H      3.931   -0.877   -1.782
  H      4.425   -3.721   1.429
  H      5.897   -1.982   -2.928
  H      6.368   -4.693   0.134
  H      6.938   -3.767   -1.902
  H      -0.220   1.044   2.593
  units Angstrom
}

dih_string = "3 11 13 23 285"
set optking fixed_dihedral = $dih_string

optimize('MP2/aug-cc-PVTZ')
--------------------------------------------------------------------------

  Memory set to   4.657 GiB by Python driver.
gradient() will perform analytic gradient computation.

*** tstart() called on gpu-2-10.local
*** at Sun Nov 12 09:14:20 2017

    SCF Algorithm Type (re)set to DF.

*** tstart() called on gpu-2-10.local
*** at Sun Nov 12 09:14:20 2017

   => Loading Basis Set <=

    Name: AUG-CC-PVTZ
    Role: ORBITAL
    Keyword: BASIS
    atoms 1-11  entry C          line   221 file /cbio/jclab/home/chayas/anaconda/envs/py35/share/psi4/basis/aug-cc-pvtz.gbs 
    atoms 12    entry N          line   267 file /cbio/jclab/home/chayas/anaconda/envs/py35/share/psi4/basis/aug-cc-pvtz.gbs 
    atoms 13    entry O          line   313 file /cbio/jclab/home/chayas/anaconda/envs/py35/share/psi4/basis/aug-cc-pvtz.gbs 
    atoms 14-23 entry H          line    34 file /cbio/jclab/home/chayas/anaconda/envs/py35/share/psi4/basis/aug-cc-pvtz.gbs 


         ---------------------------------------------------------
                                   SCF
            by Justin Turney, Rob Parrish, and Andy Simmonett
                              RHF Reference
                        8 Threads,   4768 MiB Core
         ---------------------------------------------------------

  ==> Geometry <==

    Molecular point group: c1
    Full point group: C1

    Geometry (in Angstrom), charge = 1, multiplicity = 1:

       Center              X                  Y                   Z               Mass       
    ------------   -----------------  -----------------  -----------------  -----------------
           C         -1.271251382302     0.713946676905    -0.573332427191    12.000000000000
           C         -0.278251382302     0.097946676905     1.540667572809    12.000000000000
           C         -2.349251382302     1.286946676905     0.099667572809    12.000000000000
           C         -1.356251382302     0.670946676905     2.214667572809    12.000000000000
           C          1.283748617698     0.030946676905    -1.783332427191    12.000000000000
           C          1.559748617698    -1.555053323095     0.007667572809    12.000000000000
           C          2.359748617698    -0.559053323095    -2.431332427191    12.000000000000
           C          2.629748617698    -2.105053323095    -0.685332427191    12.000000000000
           C         -0.235251382302     0.118946676905     0.146667572809    12.000000000000
           C          0.883748617698    -0.475053323095    -0.551332427191    12.000000000000
           C         -2.392251382302     1.265946676905     1.493667572809    12.000000000000
           N          2.993748617698    -1.598053323095    -1.870332427191    14.003074004780
           O         -3.444251382302     1.825946676905     2.150667572809    15.994914619560
           H         -1.252251382302     0.737946676905    -1.660332427191     1.007825032070
           H          0.521748617698    -0.362053323095     2.116667572809     1.007825032070
           H         -3.153251382302     1.748946676905    -0.467332427191     1.007825032070
           H         -1.384251382302     0.651946676905     3.300667572809     1.007825032070
           H          0.774748617698     0.872946676905    -2.243332427191     1.007825032070
           H          1.268748617698    -1.971053323095     0.967667572809     1.007825032070
           H          2.740748617698    -0.232053323095    -3.389332427191     1.007825032070
           H          3.211748617698    -2.943053323095    -0.327332427191     1.007825032070
           H          3.781748617698    -2.017053323095    -2.363332427191     1.007825032070
           H         -3.376251382302     2.793946676905     2.131667572809     1.007825032070

  Running in c1 symmetry.

  Rotational constants: A =      0.09612  B =      0.01335  C =      0.01193 [cm^-1]
  Rotational constants: A =   2881.69399  B =    400.24581  C =    357.55390 [MHz]
  Nuclear repulsion =  713.148683920050189

  Charge       = 1
  Multiplicity = 1
  Electrons    = 90
  Nalpha       = 45
  Nbeta        = 45

  ==> Algorithm <==

  SCF Algorithm Type is DF.
  DIIS enabled.
  MOM disabled.
  Fractional occupation disabled.
  Guess Type is SAD.
  Energy threshold   = 1.00e-10
  Density threshold  = 1.00e-10
  Integral threshold = 0.00e+00

  ==> Primary Basis <==

  Basis Set: AUG-CC-PVTZ
    Blend: AUG-CC-PVTZ
    Number of shells: 272
    Number of basis function: 828
    Number of Cartesian functions: 965
    Spherical Harmonics?: true
    Max angular momentum: 3

   => Loading Basis Set <=

    Name: (AUG-CC-PVTZ AUX)
    Role: JKFIT
    Keyword: DF_BASIS_SCF
    atoms 1-11  entry C          line   161 file /cbio/jclab/home/chayas/anaconda/envs/py35/share/psi4/basis/aug-cc-pvtz-jkfit.gbs 
    atoms 12    entry N          line   223 file /cbio/jclab/home/chayas/anaconda/envs/py35/share/psi4/basis/aug-cc-pvtz-jkfit.gbs 
    atoms 13    entry O          line   285 file /cbio/jclab/home/chayas/anaconda/envs/py35/share/psi4/basis/aug-cc-pvtz-jkfit.gbs 
    atoms 14-23 entry H          line    69 file /cbio/jclab/home/chayas/anaconda/envs/py35/share/psi4/basis/aug-cc-pvtz-jkfit.gbs 

  ==> Pre-Iterations <==

   -------------------------------------------------------
    Irrep   Nso     Nmo     Nalpha   Nbeta   Ndocc  Nsocc
   -------------------------------------------------------
     A        828     828       0       0       0       0
   -------------------------------------------------------
    Total     828     828      45      45      45       0
   -------------------------------------------------------

  ==> Integral Setup <==

  ==> DFJK: Density-Fitted J/K Matrices <==

    J tasked:                  Yes
    K tasked:                  Yes
    wK tasked:                  No
    OpenMP threads:              8
    Integrals threads:           8
    Memory (MB):              3576
    Algorithm:                Disk
    Integral Cache:           NONE
    Schwarz Cutoff:          1E-12
    Fitting Condition:       1E-12

   => Auxiliary Basis Set <=

  Basis Set: (AUG-CC-PVTZ AUX)
    Blend: AUG-CC-PVTZ-JKFIT
    Number of shells: 530
    Number of basis function: 1812
    Number of Cartesian functions: 2253
    Spherical Harmonics?: true
    Max angular momentum: 4

  Minimum eigenvalue in the overlap matrix is 6.0344430723E-07.
  Using Symmetric Orthogonalization.

  SCF Guess: Superposition of Atomic Densities via on-the-fly atomic UHF.

  ==> Iterations <==

                           Total Energy        Delta E     RMS |[F,P]|

   @DF-RHF iter   0:  -552.78828947426166   -5.52788e+02   2.23880e-02 
   @DF-RHF iter   1:  -551.22926357516201    1.55903e+00   2.61476e-03 
   @DF-RHF iter   2:  -551.58039257352959   -3.51129e-01   1.24674e-03 DIIS
   @DF-RHF iter   3:  -551.65332898015231   -7.29364e-02   4.15689e-04 DIIS
   @DF-RHF iter   4:  -551.66813582180623   -1.48068e-02   1.58200e-04 DIIS
   @DF-RHF iter   5:  -551.67020812665749   -2.07230e-03   4.38722e-05 DIIS
   @DF-RHF iter   6:  -551.67053872588201   -3.30599e-04   1.83065e-05 DIIS
   @DF-RHF iter   7:  -551.67060670006913   -6.79742e-05   7.75264e-06 DIIS
   @DF-RHF iter   8:  -551.67061840495853   -1.17049e-05   2.88264e-06 DIIS
   @DF-RHF iter   9:  -551.67062101434931   -2.60939e-06   1.48119e-06 DIIS
   @DF-RHF iter  10:  -551.67062174337900   -7.29030e-07   6.33116e-07 DIIS
   @DF-RHF iter  11:  -551.67062186852786   -1.25149e-07   1.94108e-07 DIIS
   @DF-RHF iter  12:  -551.67062187892031   -1.03925e-08   7.83076e-08 DIIS
   @DF-RHF iter  13:  -551.67062188055638   -1.63607e-09   4.16482e-08 DIIS
   @DF-RHF iter  14:  -551.67062188098589   -4.29509e-10   1.59336e-08 DIIS
   @DF-RHF iter  15:  -551.67062188106365   -7.77618e-11   6.64798e-09 DIIS
   @DF-RHF iter  16:  -551.67062188107275   -9.09495e-12   3.10506e-09 DIIS
   @DF-RHF iter  17:  -551.67062188107741   -4.66116e-12   1.24164e-09 DIIS
   @DF-RHF iter  18:  -551.67062188109526   -1.78488e-11   4.63098e-10 DIIS
   @DF-RHF iter  19:  -551.67062188107889    1.63709e-11   1.61389e-10 DIIS
   @DF-RHF iter  20:  -551.67062188107400    4.88853e-12   5.38994e-11 DIIS

  ==> Post-Iterations <==

    Orbital Energies (a.u.)
    -----------------------

    Doubly Occupied:                                                      

       1A    -20.687396     2A    -15.835384     3A    -11.485670  
       4A    -11.485577     5A    -11.447311     6A    -11.424591  
       7A    -11.416229     8A    -11.416113     9A    -11.377096  
      10A    -11.376578    11A    -11.375065    12A    -11.355713  
      13A    -11.355176    14A     -1.512942    15A     -1.507092  
      16A     -1.322214    17A     -1.263558    18A     -1.238625  
      19A     -1.153805    20A     -1.149921    21A     -1.069810  
      22A     -1.054476    23A     -0.969477    24A     -0.963684  
      25A     -0.949834    26A     -0.868446    27A     -0.859321  
      28A     -0.853475    29A     -0.820590    30A     -0.800227  
      31A     -0.780897    32A     -0.770848    33A     -0.756251  
      34A     -0.746753    35A     -0.725268    36A     -0.706406  
      37A     -0.705743    38A     -0.655311    39A     -0.650915  
      40A     -0.641176    41A     -0.591693    42A     -0.575731  
      43A     -0.538626    44A     -0.467223    45A     -0.448561  

    Virtual:                                                              

      46A     -0.107953    47A     -0.085341    48A     -0.065107  
      49A     -0.063373    50A     -0.059979    51A     -0.049751  
      52A     -0.043206    53A     -0.040152    54A     -0.035029  
      55A     -0.029776    56A     -0.026408    57A     -0.023947  
      58A     -0.017417    59A     -0.009652    60A     -0.007693  
      61A     -0.005692    62A      0.004276    63A      0.005441  
      64A      0.008326    65A      0.013107    66A      0.016053  
      67A      0.018374    68A      0.023709    69A      0.025658  
      70A      0.028189    71A      0.032921    72A      0.037227  
      73A      0.037544    74A      0.042850    75A      0.046436  
      76A      0.051118    77A      0.054529    78A      0.056906  
      79A      0.059903    80A      0.062768    81A      0.068148  
      82A      0.070263    83A      0.073364    84A      0.077690  
      85A      0.082887    86A      0.086722    87A      0.088417  
      88A      0.094477    89A      0.096983    90A      0.108726  
      91A      0.109279    92A      0.113694    93A      0.116457  
      94A      0.122868    95A      0.126343    96A      0.128801  
      97A      0.132866    98A      0.136845    99A      0.138866  
     100A      0.143689   101A      0.152074   102A      0.156214  
     103A      0.159115   104A      0.163373   105A      0.166501  
     106A      0.167931   107A      0.170674   108A      0.174188  
     109A      0.180091   110A      0.183152   111A      0.188080  
     112A      0.191671   113A      0.195374   114A      0.197716  
     115A      0.201931   116A      0.205747   117A      0.211129  
     118A      0.213298   119A      0.215563   120A      0.221526  
     121A      0.225871   122A      0.227197   123A      0.229400  
     124A      0.232424   125A      0.233798   126A      0.237091  
     127A      0.240977   128A      0.246517   129A      0.251997  
     130A      0.257771   131A      0.259053   132A      0.271004  
     133A      0.273503   134A      0.276854   135A      0.280205  
     136A      0.283015   137A      0.287773   138A      0.291145  
     139A      0.294373   140A      0.300360   141A      0.304221  
     142A      0.311328   143A      0.311737   144A      0.319776  
     145A      0.322995   146A      0.325943   147A      0.327139  
     148A      0.333493   149A      0.336186   150A      0.338295  
     151A      0.340153   152A      0.346118   153A      0.351740  
     154A      0.354468   155A      0.358140   156A      0.361553  
     157A      0.363895   158A      0.368006   159A      0.371293  
     160A      0.375436   161A      0.376549   162A      0.379532  
     163A      0.385122   164A      0.386477   165A      0.394273  
     166A      0.396949   167A      0.398896   168A      0.404699  
     169A      0.405403   170A      0.406791   171A      0.407917  
     172A      0.414423   173A      0.417290   174A      0.421000  
     175A      0.425864   176A      0.427887   177A      0.431592  
     178A      0.433476   179A      0.438909   180A      0.446318  
     181A      0.448321   182A      0.450171   183A      0.459694  
     184A      0.463414   185A      0.471306   186A      0.473690  
     187A      0.483781   188A      0.488624   189A      0.497658  
     190A      0.503511   191A      0.508394   192A      0.512771  
     193A      0.514090   194A      0.523497   195A      0.530815  
     196A      0.534362   197A      0.537067   198A      0.546347  
     199A      0.553360   200A      0.559671   201A      0.566452  
     202A      0.571033   203A      0.575051   204A      0.579597  
     205A      0.585587   206A      0.586731   207A      0.588565  
     208A      0.599794   209A      0.607489   210A      0.611380  
     211A      0.617310   212A      0.620749   213A      0.623742  
     214A      0.626849   215A      0.631357   216A      0.639273  
     217A      0.648266   218A      0.651413   219A      0.655770  
     220A      0.660521   221A      0.664015   222A      0.669233  
     223A      0.674210   224A      0.677431   225A      0.697594  
     226A      0.702064   227A      0.711036   228A      0.712038  
     229A      0.716990   230A      0.718127   231A      0.719218  
     232A      0.732059   233A      0.736572   234A      0.743026  
     235A      0.746530   236A      0.751088   237A      0.755847  
     238A      0.756589   239A      0.762507   240A      0.770609  
     241A      0.777120   242A      0.778749   243A      0.787392  
     244A      0.790243   245A      0.793607   246A      0.796862  
     247A      0.802518   248A      0.804121   249A      0.809005  
     250A      0.810647   251A      0.815516   252A      0.823653  
     253A      0.827054   254A      0.840609   255A      0.843145  
     256A      0.847227   257A      0.849108   258A      0.856968  
     259A      0.858656   260A      0.861222   261A      0.867091  
     262A      0.870104   263A      0.872883   264A      0.879435  
     265A      0.885921   266A      0.889303   267A      0.894336  
     268A      0.896956   269A      0.900250   270A      0.906889  
     271A      0.913803   272A      0.916476   273A      0.919341  
     274A      0.920527   275A      0.927240   276A      0.932248  
     277A      0.933595   278A      0.941370   279A      0.953480  
     280A      0.954471   281A      0.958905   282A      0.962079  
     283A      0.965713   284A      0.968310   285A      0.972327  
     286A      0.973354   287A      0.981384   288A      0.985496  
     289A      0.991810   290A      0.995535   291A      1.000292  
     292A      1.001094   293A      1.006956   294A      1.010916  
     295A      1.013452   296A      1.016503   297A      1.023572  
     298A      1.028167   299A      1.034679   300A      1.041096  
     301A      1.050208   302A      1.053739   303A      1.054877  
     304A      1.059864   305A      1.065078   306A      1.069121  
     307A      1.072914   308A      1.077996   309A      1.080627  
     310A      1.083237   311A      1.087664   312A      1.093494  
     313A      1.097668   314A      1.104471   315A      1.107724  
     316A      1.110961   317A      1.118298   318A      1.124116  
     319A      1.133058   320A      1.138635   321A      1.142863  
     322A      1.149084   323A      1.156469   324A      1.159747  
     325A      1.164789   326A      1.172955   327A      1.175788  
     328A      1.179742   329A      1.191906   330A      1.195198  
     331A      1.204808   332A      1.211883   333A      1.216394  
     334A      1.226064   335A      1.231391   336A      1.235643  
     337A      1.237945   338A      1.241566   339A      1.253016  
     340A      1.259742   341A      1.267668   342A      1.275576  
     343A      1.285893   344A      1.289492   345A      1.296767  
     346A      1.298335   347A      1.303155   348A      1.317167  
     349A      1.326510   350A      1.326697   351A      1.334172  
     352A      1.340244   353A      1.355736   354A      1.357370  
     355A      1.363249   356A      1.373083   357A      1.383470  
     358A      1.386790   359A      1.395013   360A      1.397514  
     361A      1.406605   362A      1.408105   363A      1.418807  
     364A      1.421008   365A      1.431933   366A      1.435973  
     367A      1.447567   368A      1.452750   369A      1.459163  
     370A      1.474633   371A      1.487991   372A      1.489686  
     373A      1.497599   374A      1.500475   375A      1.511121  
     376A      1.518286   377A      1.521977   378A      1.537900  
     379A      1.544156   380A      1.550546   381A      1.557713  
     382A      1.564387   383A      1.566797   384A      1.575132  
     385A      1.581554   386A      1.593207   387A      1.599235  
     388A      1.604470   389A      1.615195   390A      1.632426  
     391A      1.643748   392A      1.646563   393A      1.657261  
     394A      1.665330   395A      1.670344   396A      1.672955  
     397A      1.691921   398A      1.696984   399A      1.699730  
     400A      1.707025   401A      1.710393   402A      1.718412  
     403A      1.730040   404A      1.733461   405A      1.737482  
     406A      1.753799   407A      1.756684   408A      1.771676  
     409A      1.780145   410A      1.782597   411A      1.788718  
     412A      1.792637   413A      1.801693   414A      1.806111  
     415A      1.821209   416A      1.823671   417A      1.836160  
     418A      1.848341   419A      1.858304   420A      1.858875  
     421A      1.865280   422A      1.879310   423A      1.882670  
     424A      1.889431   425A      1.901661   426A      1.902265  
     427A      1.906456   428A      1.909382   429A      1.915968  
     430A      1.930033   431A      1.931422   432A      1.939535  
     433A      1.944254   434A      1.950075   435A      1.960378  
     436A      1.964350   437A      1.967208   438A      1.977074  
     439A      1.991093   440A      1.996830   441A      2.004167  
     442A      2.007682   443A      2.013383   444A      2.025704  
     445A      2.032653   446A      2.042793   447A      2.060798  
     448A      2.064954   449A      2.066689   450A      2.075876  
     451A      2.083587   452A      2.085300   453A      2.096031  
     454A      2.107590   455A      2.119572   456A      2.132255  
     457A      2.147067   458A      2.160963   459A      2.188459  
     460A      2.197900   461A      2.199348   462A      2.204602  
     463A      2.212519   464A      2.216445   465A      2.229759  
     466A      2.239932   467A      2.243694   468A      2.253625  
     469A      2.255622   470A      2.272122   471A      2.281387  
     472A      2.291688   473A      2.298795   474A      2.306158  
     475A      2.321804   476A      2.335463   477A      2.339634  
     478A      2.354862   479A      2.364659   480A      2.379696  
     481A      2.395734   482A      2.398548   483A      2.410062  
     484A      2.411304   485A      2.418866   486A      2.430292  
     487A      2.430675   488A      2.446825   489A      2.465444  
     490A      2.475657   491A      2.480627   492A      2.502401  
     493A      2.520915   494A      2.548048   495A      2.556570  
     496A      2.568968   497A      2.580850   498A      2.587109  
     499A      2.601855   500A      2.604367   501A      2.634997  
     502A      2.637457   503A      2.660774   504A      2.663855  
     505A      2.681284   506A      2.705702   507A      2.735063  
     508A      2.737239   509A      2.740375   510A      2.751825  
     511A      2.794278   512A      2.800535   513A      2.818738  
     514A      2.852675   515A      2.872774   516A      2.881385  
     517A      2.899156   518A      2.931148   519A      2.942348  
     520A      2.955210   521A      2.987092   522A      2.995064  
     523A      3.002802   524A      3.024168   525A      3.033573  
     526A      3.039035   527A      3.051740   528A      3.071893  
     529A      3.084101   530A      3.100700   531A      3.123680  
     532A      3.140335   533A      3.161462   534A      3.167138  
     535A      3.190779   536A      3.194383   537A      3.212868  
     538A      3.220594   539A      3.223318   540A      3.237577  
     541A      3.244503   542A      3.258929   543A      3.263955  
     544A      3.266005   545A      3.280538   546A      3.284627  
     547A      3.295340   548A      3.316199   549A      3.330424  
     550A      3.346619   551A      3.353564   552A      3.362995  
     553A      3.377190   554A      3.381976   555A      3.386840  
     556A      3.391948   557A      3.394630   558A      3.410385  
     559A      3.410775   560A      3.415466   561A      3.427609  
     562A      3.435584   563A      3.446126   564A      3.460516  
     565A      3.462023   566A      3.467180   567A      3.470300  
     568A      3.490443   569A      3.501952   570A      3.507555  
     571A      3.510148   572A      3.533249   573A      3.545462  
     574A      3.558130   575A      3.561894   576A      3.567918  
     577A      3.574129   578A      3.597529   579A      3.601314  
     580A      3.611499   581A      3.625071   582A      3.630766  
     583A      3.634393   584A      3.652192   585A      3.658370  
     586A      3.660548   587A      3.663994   588A      3.682939  
     589A      3.698222   590A      3.703887   591A      3.709543  
     592A      3.719849   593A      3.734810   594A      3.741438  
     595A      3.744657   596A      3.757962   597A      3.768813  
     598A      3.774056   599A      3.782523   600A      3.788599  
     601A      3.793561   602A      3.814502   603A      3.815903  
     604A      3.824304   605A      3.830719   606A      3.845822  
     607A      3.849665   608A      3.857501   609A      3.867062  
     610A      3.873611   611A      3.880134   612A      3.883465  
     613A      3.887347   614A      3.892491   615A      3.897394  
     616A      3.914328   617A      3.933861   618A      3.942595  
     619A      3.945788   620A      3.958156   621A      3.964443  
     622A      3.984650   623A      3.988642   624A      3.996894  
     625A      4.022365   626A      4.026186   627A      4.033275  
     628A      4.046917   629A      4.050743   630A      4.057341  
     631A      4.058932   632A      4.066535   633A      4.082521  
     634A      4.085927   635A      4.101103   636A      4.107820  
     637A      4.115178   638A      4.120441   639A      4.136762  
     640A      4.142179   641A      4.143538   642A      4.163295  
     643A      4.172907   644A      4.177263   645A      4.187026  
     646A      4.193923   647A      4.202787   648A      4.210324  
     649A      4.222521   650A      4.227370   651A      4.229528  
     652A      4.245040   653A      4.252547   654A      4.257163  
     655A      4.265377   656A      4.271840   657A      4.275610  
     658A      4.293755   659A      4.303760   660A      4.309391  
     661A      4.321880   662A      4.325961   663A      4.335910  
     664A      4.350219   665A      4.365900   666A      4.369374  
     667A      4.370177   668A      4.380807   669A      4.387133  
     670A      4.403979   671A      4.413487   672A      4.424002  
     673A      4.438361   674A      4.444736   675A      4.451434  
     676A      4.458807   677A      4.488724   678A      4.508045  
     679A      4.523101   680A      4.528477   681A      4.542487  
     682A      4.545130   683A      4.563316   684A      4.581733  
     685A      4.594443   686A      4.608487   687A      4.609470  
     688A      4.627281   689A      4.641873   690A      4.650270  
     691A      4.661122   692A      4.662543   693A      4.679486  
     694A      4.701373   695A      4.709210   696A      4.735617  
     697A      4.747771   698A      4.754700   699A      4.765717  
     700A      4.773916   701A      4.791040   702A      4.798933  
     703A      4.820182   704A      4.829554   705A      4.833257  
     706A      4.848037   707A      4.860524   708A      4.876637  
     709A      4.893418   710A      4.906447   711A      4.911215  
     712A      4.926753   713A      4.939102   714A      4.952816  
     715A      4.953867   716A      4.962678   717A      4.965251  
     718A      4.984836   719A      4.992204   720A      5.003826  
     721A      5.008687   722A      5.020809   723A      5.030467  
     724A      5.044311   725A      5.052556   726A      5.060760  
     727A      5.069635   728A      5.088518   729A      5.103709  
     730A      5.130323   731A      5.143845   732A      5.154056  
     733A      5.163163   734A      5.195582   735A      5.201787  
     736A      5.207877   737A      5.210019   738A      5.242920  
     739A      5.254030   740A      5.265890   741A      5.281321  
     742A      5.294706   743A      5.314622   744A      5.328399  
     745A      5.352174   746A      5.364146   747A      5.371622  
     748A      5.387446   749A      5.415543   750A      5.438650  
     751A      5.448200   752A      5.510343   753A      5.518649  
     754A      5.546223   755A      5.560130   756A      5.571914  
     757A      5.590608   758A      5.604335   759A      5.615135  
     760A      5.627980   761A      5.647837   762A      5.672829  
     763A      5.692420   764A      5.697456   765A      5.719341  
     766A      5.732805   767A      5.778651   768A      5.824204  
     769A      5.841892   770A      5.860817   771A      5.936781  
     772A      5.940287   773A      5.982450   774A      5.993255  
     775A      6.012739   776A      6.049062   777A      6.105164  
     778A      6.128147   779A      6.138798   780A      6.190406  
     781A      6.256049   782A      6.274019   783A      6.295182  
     784A      6.346987   785A      6.387548   786A      6.397405  
     787A      6.417670   788A      6.478497   789A      6.486796  
     790A      6.546137   791A      6.579278   792A      6.649629  
     793A      6.669365   794A      6.750227   795A      6.774642  
     796A      6.783654   797A      6.798467   798A      6.817038  
     799A      6.832800   800A      6.845899   801A      6.969160  
     802A      6.979645   803A      7.034656   804A      7.194874  
     805A      7.259856   806A      7.312057   807A      7.432477  
     808A      7.458267   809A      7.515284   810A      7.542185  
     811A      7.560481   812A      7.768576   813A      7.856956  
     814A      8.073585   815A      8.507179   816A     16.019341  
     817A     16.253866   818A     16.660548   819A     16.864099  
     820A     17.033253   821A     18.791129   822A     19.110113  
     823A     19.597779   824A     19.896054   825A     20.008969  
     826A     20.180535   827A     20.533628   828A     21.743230  

    Final Occupation by Irrep:
              A 
    DOCC [    45 ]

  Energy converged.

  @DF-RHF Final Energy:  -551.67062188107400

   => Energetics <=

    Nuclear Repulsion Energy =            713.1486839200501890
    One-Electron Energy =               -2149.3250124693959151
    Two-Electron Energy =                 884.5057066682717277
    DFT Exchange-Correlation Energy =       0.0000000000000000
    Empirical Dispersion Energy =           0.0000000000000000
    PCM Polarization Energy =               0.0000000000000000
    EFP Energy =                            0.0000000000000000
    Total Energy =                       -551.6706218810739983



Properties will be evaluated at   0.000000,   0.000000,   0.000000 Bohr

Properties computed using the SCF density matrix

  Nuclear Dipole Moment: (a.u.)
     X:     2.9123      Y:    -0.6611      Z:    -1.7976

  Electronic Dipole Moment: (a.u.)
     X:     0.4716      Y:    -0.4963      Z:    -0.2876

  Dipole Moment: (a.u.)
     X:     3.3839      Y:    -1.1574      Z:    -2.0853     Total:     4.1399

  Dipole Moment: (Debye)
     X:     8.6010      Y:    -2.9419      Z:    -5.3002     Total:    10.5225


*** tstop() called on gpu-2-10.local at Sun Nov 12 09:21:41 2017
Module time:
	user time   =    1080.66 seconds =      18.01 minutes
	system time =      48.69 seconds =       0.81 minutes
	total time  =        441 seconds =       7.35 minutes
Total time:
	user time   =    1080.67 seconds =      18.01 minutes
	system time =      48.69 seconds =       0.81 minutes
	total time  =        441 seconds =       7.35 minutes

  //>>>>>>>>>>>>>>>>>>>>>>>>>>>>>>>>>>>//
  //               DFMP2               //
  //<<<<<<<<<<<<<<<<<<<<<<<<<<<<<<<<<<<//

   => Loading Basis Set <=

    Name: (AUG-CC-PVTZ AUX)
    Role: RIFIT
    Keyword: DF_BASIS_MP2
    atoms 1-11  entry C          line   147 file /cbio/jclab/home/chayas/anaconda/envs/py35/share/psi4/basis/aug-cc-pvtz-ri.gbs 
    atoms 12    entry N          line   205 file /cbio/jclab/home/chayas/anaconda/envs/py35/share/psi4/basis/aug-cc-pvtz-ri.gbs 
    atoms 13    entry O          line   263 file /cbio/jclab/home/chayas/anaconda/envs/py35/share/psi4/basis/aug-cc-pvtz-ri.gbs 
    atoms 14-23 entry H          line    29 file /cbio/jclab/home/chayas/anaconda/envs/py35/share/psi4/basis/aug-cc-pvtz-ri.gbs 

	 --------------------------------------------------------
	                          DF-MP2                         
	      2nd-Order Density-Fitted Moller-Plesset Theory     
	              RMP2 Wavefunction,   8 Threads             
	                                                         
	        Rob Parrish, Justin Turney, Andy Simmonett,      
	           Ed Hohenstein, and C. David Sherrill          
	 --------------------------------------------------------

   => Auxiliary Basis Set <=

  Basis Set: (AUG-CC-PVTZ AUX)
    Blend: AUG-CC-PVTZ-RI
    Number of shells: 504
    Number of basis function: 1838
    Number of Cartesian functions: 2318
    Spherical Harmonics?: true
    Max angular momentum: 4

	 --------------------------------------------------------
	                 NBF =   828, NAUX =  1838
	 --------------------------------------------------------
	   CLASS    FOCC     OCC    AOCC    AVIR     VIR    FVIR
	   PAIRS       0      45      45     783     783       0
	 --------------------------------------------------------


         ------------------------------------------------------------
                                     CPHF                           
                                  Rob Parrish                       
         ------------------------------------------------------------

  ==> Geometry <==

    Molecular point group: c1
    Full point group: C1

    Geometry (in Angstrom), charge = 1, multiplicity = 1:

       Center              X                  Y                   Z               Mass       
    ------------   -----------------  -----------------  -----------------  -----------------
           C         -1.271251382302     0.713946676905    -0.573332427191    12.000000000000
           C         -0.278251382302     0.097946676905     1.540667572809    12.000000000000
           C         -2.349251382302     1.286946676905     0.099667572809    12.000000000000
           C         -1.356251382302     0.670946676905     2.214667572809    12.000000000000
           C          1.283748617698     0.030946676905    -1.783332427191    12.000000000000
           C          1.559748617698    -1.555053323095     0.007667572809    12.000000000000
           C          2.359748617698    -0.559053323095    -2.431332427191    12.000000000000
           C          2.629748617698    -2.105053323095    -0.685332427191    12.000000000000
           C         -0.235251382302     0.118946676905     0.146667572809    12.000000000000
           C          0.883748617698    -0.475053323095    -0.551332427191    12.000000000000
           C         -2.392251382302     1.265946676905     1.493667572809    12.000000000000
           N          2.993748617698    -1.598053323095    -1.870332427191    14.003074004780
           O         -3.444251382302     1.825946676905     2.150667572809    15.994914619560
           H         -1.252251382302     0.737946676905    -1.660332427191     1.007825032070
           H          0.521748617698    -0.362053323095     2.116667572809     1.007825032070
           H         -3.153251382302     1.748946676905    -0.467332427191     1.007825032070
           H         -1.384251382302     0.651946676905     3.300667572809     1.007825032070
           H          0.774748617698     0.872946676905    -2.243332427191     1.007825032070
           H          1.268748617698    -1.971053323095     0.967667572809     1.007825032070
           H          2.740748617698    -0.232053323095    -3.389332427191     1.007825032070
           H          3.211748617698    -2.943053323095    -0.327332427191     1.007825032070
           H          3.781748617698    -2.017053323095    -2.363332427191     1.007825032070
           H         -3.376251382302     2.793946676905     2.131667572809     1.007825032070

  Nuclear repulsion =  713.148683920050189
  Reference energy  = -551.670621881073998

  ==> Basis Set <==

  Basis Set: AUG-CC-PVTZ
    Blend: AUG-CC-PVTZ
    Number of shells: 272
    Number of basis function: 828
    Number of Cartesian functions: 965
    Spherical Harmonics?: true
    Max angular momentum: 3

  ==> CGRSolver (by Rob Parrish) <==

   Number of roots    =         1
   Preconditioning    =    JACOBI
   Convergence cutoff =     1E-06
   Maximum iterations =       100

  ==> CPHFRHamiltonian (by Rob Parrish) <== 

  ==> DFJK: Density-Fitted J/K Matrices <==

    J tasked:                  Yes
    K tasked:                  Yes
    wK tasked:                  No
    OpenMP threads:              8
    Integrals threads:           8
    Memory (MB):              3576
    Algorithm:                Disk
    Integral Cache:           NONE
    Schwarz Cutoff:          1E-12
    Fitting Condition:       1E-12

   => Auxiliary Basis Set <=

  Basis Set: (AUG-CC-PVTZ AUX)
    Blend: AUG-CC-PVTZ-JKFIT
    Number of shells: 530
    Number of basis function: 1812
    Number of Cartesian functions: 2253
    Spherical Harmonics?: true
    Max angular momentum: 4

  ==> CPHF Iterations <==

  => Iterations <=

             Iter  Converged  Remaining    Residual
  CGR           1          0          1   1.037E-01
  CGR           2          0          1   4.840E-02
  CGR           3          0          1   2.758E-02
  CGR           4          0          1   8.923E-03
  CGR           5          0          1   3.912E-03
  CGR           6          0          1   1.999E-03
  CGR           7          0          1   7.002E-04
  CGR           8          0          1   2.745E-04
  CGR           9          0          1   1.175E-04
  CGR          10          0          1   3.968E-05
  CGR          11          0          1   1.061E-05
  CGR          12          0          1   4.229E-06
  CGR          13          0          1   1.355E-06
  CGR          14          1          0   4.587E-07

    CGRSolver converged.

  ==> DFCorrGrad: Density-Fitted Correlated Gradients <==

    OpenMP threads:              8
    Integrals threads:           8
    Memory (MB):              3576
    Schwarz Cutoff:          0E+00
    Fitting Condition:       1E-12

   => Auxiliary Basis Set <=

  Basis Set: (AUG-CC-PVTZ AUX)
    Blend: AUG-CC-PVTZ-JKFIT
    Number of shells: 530
    Number of basis function: 1812
    Number of Cartesian functions: 2253
    Spherical Harmonics?: true
    Max angular momentum: 4

	-----------------------------------------------------------
	 ==================> DF-MP2 Energies <==================== 
	-----------------------------------------------------------
	 Reference Energy          =    -551.6706218810739983 [Eh]
	 Singles Energy            =      -0.0000000000000002 [Eh]
	 Same-Spin Energy          =      -0.5961228448700175 [Eh]
	 Opposite-Spin Energy      =      -1.8246292222558709 [Eh]
	 Correlation Energy        =      -2.4207520671258882 [Eh]
	 Total Energy              =    -554.0913739481999301 [Eh]
	-----------------------------------------------------------
	 ================> DF-SCS-MP2 Energies <================== 
	-----------------------------------------------------------
	 SCS Same-Spin Scale       =       0.3333333333333333 [-]
	 SCS Opposite-Spin Scale   =       1.2000000000000000 [-]
	 SCS Same-Spin Energy      =      -0.1987076149566725 [Eh]
	 SCS Opposite-Spin Energy  =      -2.1895550667070451 [Eh]
	 SCS Correlation Energy    =      -2.3882626816637176 [Eh]
	 SCS Total Energy          =    -554.0588845627377168 [Eh]
	-----------------------------------------------------------


  -Total Gradient:
     Atom            X                  Y                   Z
    ------   -----------------  -----------------  -----------------
       1        0.007675496028    -0.008394404413    -0.003139801181
       2        0.010534460709     0.000458978936    -0.007393374158
       3       -0.005671346921     0.003841358464     0.007327146858
       4       -0.005511435476     0.005461377611     0.000829293977
       5       -0.015119919085     0.008988044030     0.012980038461
       6       -0.018423653906     0.008048694690     0.008314337564
       7        0.008003801609    -0.010023287952     0.004823781497
       8        0.005119704303     0.003456012231    -0.013351576680
       9       -0.000626859610     0.000169455579     0.000121685910
      10        0.012716378551    -0.006183648858    -0.007997614655
      11       -0.006911251947    -0.005370442710     0.004257738030
      12       -0.001210011932     0.000248360378     0.001076412824
      13        0.000848609244    -0.005153596878    -0.005503348725
      14        0.001429359701     0.001590683793    -0.005694100391
      15        0.003661695362    -0.004570792321     0.002752007210
      16       -0.002690357777     0.002513610013    -0.004885901268
      17        0.001861478593    -0.001921607806     0.005553491576
      18       -0.005011923286     0.004357027507    -0.002917073277
      19       -0.001538548351    -0.000718141609     0.006985617474
      20        0.001883312690    -0.000423608658    -0.002559599091
      21        0.002390665624    -0.001685078140    -0.000100008967
      22        0.005021066322    -0.002662205519    -0.003163092828
      23        0.001569279537     0.007973211636     0.001683939840


*** tstop() called on gpu-2-10.local at Sun Nov 12 09:56:19 2017
Module time:
	user time   =    5362.80 seconds =      89.38 minutes
	system time =     109.69 seconds =       1.83 minutes
	total time  =       2519 seconds =      41.98 minutes
Total time:
	user time   =    5362.81 seconds =      89.38 minutes
	system time =     109.69 seconds =       1.83 minutes
	total time  =       2519 seconds =      41.98 minutes

			-----------------------------------------
			 OPTKING 2.0: for geometry optimizations 
			  - R.A. King,  Bethel University        
			-----------------------------------------

	Internal coordinates to be generated automatically.
	Detected frag 1 with atoms:  1 2 3 4 5 6 7 8 9 10 11 12 13 14 15 16 17 18 19 20
	 21 22 23
	---Fragment 1 Bond Connectivity---
	 1 : 3 9 14
	 2 : 4 9 15
	 3 : 1 11 16
	 4 : 2 11 17
	 5 : 7 10 18
	 6 : 8 10 19
	 7 : 5 12 20
	 8 : 6 12 21
	 9 : 1 2 10
	 10 : 5 6 9
	 11 : 3 4 13
	 12 : 7 8 22
	 13 : 11 23
	 14 : 1
	 15 : 2
	 16 : 3
	 17 : 4
	 18 : 5
	 19 : 6
	 20 : 7
	 21 : 8
	 22 : 12
	 23 : 13

	Assuming in current code that numbering for constraints corresponds to unified fragment.
	Fixed dihedral atom list: 
	     3    11    13    23
	---Fragment 1 Geometry and Gradient---
	 C          -2.4023169586        1.3491636928       -1.0834412705
	 C          -0.5258189086        0.1850923950        2.9114397744
	 C          -4.4394417299        2.4319767670        0.1883444169
	 C          -2.5629436799        1.2679054691        4.1851151880
	 C           2.4259333109        0.0584807441       -3.3700098913
	 C           2.9474977236       -2.9386249027        0.0144896127
	 C           4.4592786299       -1.0564576743       -4.5945524254
	 C           4.9695046858       -3.9779742758       -1.2950905974
	 C          -0.4445606849        0.2247766438        0.2771615452
	 C           1.6700428578       -0.8977206792       -1.0418672956
	 C          -4.5206999536        2.3922925182        2.8226226462
	 N           5.6573649982       -3.0198831264       -3.5344160648
	 O          -6.5086918454        3.4505391526        4.0641727155
	 H          -2.3664121621        1.3945171200       -3.1375735769
	 H           0.9859619977       -0.6841816262        3.9999220270
	 H          -5.9587815407        3.3050302404       -0.8831303004
	 H          -2.6158560116        1.2320006726        6.2373577683
	 H           1.4640627093        1.6496301480       -4.2392839124
	 H           2.3975874189       -3.7247509740        1.8286267003
	 H           5.1792642865       -0.4385172289       -6.4049100607
	 H           6.0693252951       -5.5615647751       -0.6185686418
	 H           7.1464691909       -3.8116783761       -4.4660510484
	 H          -6.3801904683        5.2797940492        4.0282679190
	             0.0076754960       -0.0083944044       -0.0031398012
	             0.0105344607        0.0004589789       -0.0073933742
	            -0.0056713469        0.0038413585        0.0073271469
	            -0.0055114355        0.0054613776        0.0008292940
	            -0.0151199191        0.0089880440        0.0129800385
	            -0.0184236539        0.0080486947        0.0083143376
	             0.0080038016       -0.0100232880        0.0048237815
	             0.0051197043        0.0034560122       -0.0133515767
	            -0.0006268596        0.0001694556        0.0001216859
	             0.0127163786       -0.0061836489       -0.0079976147
	            -0.0069112519       -0.0053704427        0.0042577380
	            -0.0012100119        0.0002483604        0.0010764128
	             0.0008486092       -0.0051535969       -0.0055033487
	             0.0014293597        0.0015906838       -0.0056941004
	             0.0036616954       -0.0045707923        0.0027520072
	            -0.0026903578        0.0025136100       -0.0048859013
	             0.0018614786       -0.0019216078        0.0055534916
	            -0.0050119233        0.0043570275       -0.0029170733
	            -0.0015385484       -0.0007181416        0.0069856175
	             0.0018833127       -0.0004236087       -0.0025595991
	             0.0023906656       -0.0016850781       -0.0001000090
	             0.0050210663       -0.0026622055       -0.0031630928
	             0.0015692795        0.0079732116        0.0016839398

	Previous optimization step data not found.  Starting new optimization.

	---Fragment 1 Intrafragment Coordinates---
	 - Coordinate -           - BOHR/RAD -       - ANG/DEG -
	 R(1,3)           =         2.634350	       1.394038
	 R(1,9)           =         2.635962	       1.394891
	 R(1,14)          =         2.054947	       1.087431
	 R(2,4)           =         2.635263	       1.394521
	 R(2,9)           =         2.635830	       1.394821
	 R(2,15)          =         2.055702	       1.087831
	 R(3,11)          =         2.635830	       1.394821
	 R(3,16)          =         2.053941	       1.086899
	 R(4,11)          =         2.636938	       1.395407
	 R(4,17)          =         2.053239	       1.086527
	 R(5,7)           =         2.622420	       1.387725
	 R(5,10)          =         2.627915	       1.390633
	 R(5,18)          =         2.052459	       1.086115
	 R(6,8)           =         2.623692	       1.388398
	 R(6,10)          =         2.629272	       1.391351
	 R(6,19)          =         2.052191	       1.085973
	 R(7,12)          =         2.532655	       1.340223
	 R(7,20)          =         2.043924	       1.081598
	 R(8,12)          =         2.530942	       1.339317
	 R(8,21)          =         2.043293	       1.081264
	 R(9,10)          =         2.733384	       1.446444
	 R(11,13)         =         2.571662	       1.360865
	 R(12,22)         =         1.926737	       1.019585
	 R(13,23)         =         1.834114	       0.970571
	 B(1,3,11)        =         2.094553	     120.009056
	 B(1,3,16)        =         2.088505	     119.662516
	 B(1,9,2)         =         2.093692	     119.959722
	 B(1,9,10)        =         2.095161	     120.043881
	 B(2,4,11)        =         2.093699	     119.960108
	 B(2,4,17)        =         2.089577	     119.723926
	 B(2,9,10)        =         2.094332	     119.996376
	 B(3,1,9)         =         2.094940	     120.031219
	 B(3,1,14)        =         2.079469	     119.144799
	 B(3,11,4)        =         2.094306	     119.994870
	 B(3,11,13)       =         2.094549	     120.008801
	 B(4,2,9)         =         2.095181	     120.045019
	 B(4,2,15)        =         2.078675	     119.099297
	 B(4,11,13)       =         2.094331	     119.996326
	 B(5,7,12)        =         2.095473	     120.061759
	 B(5,7,20)        =         2.162990	     123.930212
	 B(5,10,6)        =         2.092808	     119.909049
	 B(5,10,9)        =         2.095104	     120.040644
	 B(6,8,12)        =         2.095689	     120.074121
	 B(6,8,21)        =         2.161055	     123.819347
	 B(6,10,9)        =         2.095271	     120.050189
	 B(7,5,10)        =         2.073747	     118.816947
	 B(7,5,18)        =         2.088865	     119.683141
	 B(7,12,8)        =         2.135611	     122.361511
	 B(7,12,22)       =         2.073499	     118.802740
	 B(8,6,10)        =         2.073041	     118.776513
	 B(8,6,19)        =         2.089782	     119.735704
	 B(8,12,22)       =         2.074075	     118.835741
	 B(9,1,14)        =         2.108776	     120.823969
	 B(9,2,15)        =         2.109330	     120.855683
	 B(10,5,18)       =         2.120573	     121.499869
	 B(10,6,19)       =         2.120361	     121.487761
	 B(11,3,16)       =         2.100127	     120.328425
	 B(11,4,17)       =         2.099910	     120.315955
	 B(11,13,23)      =         1.924955	     110.291797
	 B(12,7,20)       =         2.024722	     116.007998
	 B(12,8,21)       =         2.026441	     116.106509
	 D(1,3,11,4)      =        -0.000325	      -0.018609
	 D(1,3,11,13)     =         3.140978	     179.964785
	 D(1,9,2,4)       =         0.000325	       0.018608
	 D(1,9,2,15)      =        -3.141497	    -179.994534
	 D(1,9,10,5)      =         0.522161	      29.917626
	 D(1,9,10,6)      =        -2.617252	    -149.957477
	 D(2,4,11,3)      =         0.000301	       0.017261
	 D(2,4,11,13)     =        -3.141002	    -179.966135
	 D(2,9,1,3)       =        -0.000348	      -0.019945
	 D(2,9,1,14)      =        -3.141221	    -179.978731
	 D(2,9,10,5)      =        -2.618515	    -150.029870
	 D(2,9,10,6)      =         0.525257	      30.095026
	 D(3,1,9,10)      =        -3.141025	    -179.967461
	 D(3,11,4,17)     =         3.141223	     179.978848
	 D(3,11,13,23)    =        -1.309032	     -75.002005
	 D(4,2,9,10)      =         3.141002	     179.966149
	 D(4,11,3,16)     =         3.141593	     180.000000
	 D(4,11,13,23)    =         1.832271	     104.981389
	 D(5,7,12,8)      =        -0.000900	      -0.051587
	 D(5,7,12,22)     =         3.141281	     179.982140
	 D(5,10,6,8)      =         0.001757	       0.100696
	 D(5,10,6,19)     =        -3.140779	    -179.953357
	 D(6,8,12,7)      =         0.001479	       0.084766
	 D(6,8,12,22)     =        -3.140702	    -179.948971
	 D(6,10,5,7)      =        -0.001201	      -0.068795
	 D(6,10,5,18)     =        -3.141485	    -179.993816
	 D(7,5,10,9)      =        -3.140617	    -179.944076
	 D(7,12,8,21)     =        -3.141052	    -179.969035
	 D(8,6,10,9)      =         3.141173	     179.975965
	 D(8,12,7,20)     =         3.139609	     179.886353
	 D(9,1,3,11)      =         0.000348	       0.019955
	 D(9,1,3,16)      =        -3.141571	    -179.998735
	 D(9,2,4,11)      =        -0.000301	      -0.017270
	 D(9,2,4,17)      =        -3.141228	    -179.979086
	 D(9,10,5,18)     =         0.002285	       0.130903
	 D(9,10,6,19)     =        -0.001363	      -0.078088
	 D(10,5,7,12)     =         0.000747	       0.042772
	 D(10,5,7,20)     =        -3.139673	    -179.890006
	 D(10,6,8,12)     =        -0.001882	      -0.107847
	 D(10,6,8,21)     =         3.140725	     179.950304
	 D(10,9,1,14)     =         0.001287	       0.073752
	 D(10,9,2,15)     =        -0.000820	      -0.046992
	 D(11,3,1,14)     =         3.141234	     179.979432
	 D(11,4,2,15)     =         3.141517	     179.995641
	 D(12,7,5,18)     =         3.141055	     179.969186
	 D(12,8,6,19)     =         3.140637	     179.945236
	 D(13,11,3,16)    =        -0.000286	      -0.016400
	 D(13,11,4,17)    =        -0.000079	      -0.004548
	 D(14,1,3,16)     =        -0.000685	      -0.039257
	 D(15,2,4,17)     =         0.000590	       0.033826
	 D(18,5,7,20)     =         0.000635	       0.036408
	 D(19,6,8,21)     =         0.000059	       0.003387
	 D(20,7,12,22)    =        -0.001395	      -0.079920
	 D(21,8,12,22)    =        -0.000048	      -0.002772

	Current energy   :      -554.0913739482

	Generating empirical Hessian (Schlegel '84) for each fragment.
	Adding user-defined constraint: Fragment 1; Coordinate 76:
		Value =    -1.309032; Fixed value    =    -1.308997
		Force =     0.000017; Force constant =     0.500000
	Removing off-diagonal coupling between coordinate 76 and others.
	Taking RFO optimization step.
	Going to follow RFO solution 1.
	Using RFO vector 1.

	Determining step-restricting scale parameter for RS-RFO.
	Maximum step size allowed    0.10000

	 Iter      |step|        alpha        rfo_root  
	------------------------------------------------
	    0     0.30186       1.00000           1
	    1     0.20026       4.08643           1
	    2     0.14621       9.96623           1
	    3     0.11769      19.06286           1
	    4     0.10418      27.91365           1
	    5     0.10032      31.44112           1
	    6     0.10000      31.75718           1
	------------------------------------------------
	Norm of target step-size    0.10000
	Projected energy change by RFO approximation:        -0.0044456001

	Back-transformation to cartesian coordinates...
	Could not converge backtransformation.
	Using first guess instead.

	--- Internal Coordinate Step in ANG or DEG, aJ/ANG or AJ/DEG ---
	 ---------------------------------------------------------------------------
	   Coordinate                Previous        Force       Change         New 
	   ----------                --------       ------       ------       ------
	    1 R(1,3)          =      1.394038    -0.082001    -0.008935     1.385103
	    2 R(1,9)          =      1.394891     0.012530     0.001608     1.396499
	    3 R(1,14)         =      1.087431    -0.047389    -0.006382     1.081049
	    4 R(2,4)          =      1.394521    -0.084850    -0.009322     1.385199
	    5 R(2,9)          =      1.394821     0.014300     0.001777     1.396598
	    6 R(2,15)         =      1.087831    -0.050114    -0.006787     1.081044
	    7 R(3,11)         =      1.394821    -0.031094    -0.003556     1.391265
	    8 R(3,16)         =      1.086899    -0.046198    -0.006184     1.080714
	    9 R(4,11)         =      1.395407    -0.050262    -0.005723     1.389684
	   10 R(4,17)         =      1.086527    -0.045613    -0.006140     1.080388
	   11 R(5,7)          =      1.387725    -0.112191    -0.012030     1.375694
	   12 R(5,10)         =      1.390633     0.066620     0.007478     1.398111
	   13 R(5,18)         =      1.086115    -0.057358    -0.007687     1.078428
	   14 R(6,8)          =      1.388398    -0.115323    -0.012382     1.376016
	   15 R(6,10)         =      1.391351     0.061081     0.006824     1.398175
	   16 R(6,19)         =      1.085973    -0.056540    -0.007607     1.078366
	   17 R(7,12)         =      1.340223     0.017803     0.001617     1.341840
	   18 R(7,20)         =      1.081598    -0.023088    -0.003076     1.078522
	   19 R(8,12)         =      1.339317     0.022663     0.002032     1.341349
	   20 R(8,21)         =      1.081264    -0.021089    -0.002778     1.078486
	   21 R(9,10)         =      1.446444     0.067096     0.008485     1.454929
	   22 R(11,13)        =      1.360865     0.021032     0.002225     1.363090
	   23 R(12,22)        =      1.019585    -0.053585    -0.006090     1.013495
	   24 R(13,23)        =      0.970571    -0.066149    -0.006364     0.964207
	   25 B(1,3,11)       =    120.009056     0.000057     0.086239   120.095295
	   26 B(1,3,16)       =    119.662516     0.000153     0.445522   120.108038
	   27 B(1,9,2)        =    119.959722    -0.000421    -0.801396   119.158326
	   28 B(1,9,10)       =    120.043881     0.000208     0.394824   120.438705
	   29 B(2,4,11)       =    119.960108     0.000052     0.056932   120.017041
	   30 B(2,4,17)       =    119.723926     0.000180     0.527017   120.250943
	   31 B(2,9,10)       =    119.996376     0.000214     0.406572   120.402948
	   32 B(3,1,9)        =    120.031219     0.000128     0.312900   120.344119
	   33 B(3,1,14)       =    119.144799    -0.000099    -0.256637   118.888162
	   34 B(3,11,4)       =    119.994870     0.000006    -0.064977   119.929894
	   35 B(3,11,13)      =    120.008801     0.000246     0.530887   120.539688
	   36 B(4,2,9)        =    120.045019     0.000179     0.408572   120.453591
	   37 B(4,2,15)       =    119.099297    -0.000127    -0.309480   118.789817
	   38 B(4,11,13)      =    119.996326    -0.000252    -0.474257   119.522069
	   39 B(5,7,12)       =    120.061759    -0.000234    -0.554611   119.507147
	   40 B(5,7,20)       =    123.930212    -0.000002    -0.042363   123.887849
	   41 B(5,10,6)       =    119.909049    -0.000814    -1.638814   118.270235
	   42 B(5,10,9)       =    120.040644     0.000424     0.853445   120.894090
	   43 B(6,8,12)       =    120.074121    -0.000229    -0.551478   119.522643
	   44 B(6,8,21)       =    123.819347     0.000008    -0.008496   123.810851
	   45 B(6,10,9)       =    120.050189     0.000390     0.785385   120.835574
	   46 B(7,5,10)       =    118.816947     0.000519     1.135778   119.952725
	   47 B(7,5,18)       =    119.683141    -0.000343    -0.799695   118.883446
	   48 B(7,12,8)       =    122.361511     0.000230     0.453885   122.815396
	   49 B(7,12,22)      =    118.802740    -0.000113    -0.221862   118.580878
	   50 B(8,6,10)       =    118.776513     0.000528     1.155263   119.931776
	   51 B(8,6,19)       =    119.735704    -0.000353    -0.822914   118.912790
	   52 B(8,12,22)      =    118.835741    -0.000116    -0.232018   118.603723
	   53 B(9,1,14)       =    120.823969    -0.000028    -0.060054   120.763915
	   54 B(9,2,15)       =    120.855683    -0.000052    -0.101397   120.754286
	   55 B(10,5,18)      =    121.499869    -0.000176    -0.337280   121.162590
	   56 B(10,6,19)      =    121.487761    -0.000176    -0.333109   121.154652
	   57 B(11,3,16)      =    120.328425    -0.000210    -0.531903   119.796522
	   58 B(11,4,17)      =    120.315955    -0.000232    -0.583943   119.732012
	   59 B(11,13,23)     =    110.291797    -0.000014    -0.037994   110.253803
	   60 B(12,7,20)      =    116.007998     0.000236     0.596646   116.604644
	   61 B(12,8,21)      =    116.106509     0.000221     0.559629   116.666138
	   62 D(1,3,11,4)     =     -0.018609    -0.000017    -0.422705    -0.441314
	   63 D(1,3,11,13)    =    179.964785     0.000027     0.650030   180.614815
	   64 D(1,9,2,4)      =      0.018608    -0.000009    -0.218690    -0.200082
	   65 D(1,9,2,15)     =   -179.994534     0.000015     0.353549  -179.640985
	   66 D(1,9,10,5)     =     29.917626     0.000012     0.308212    30.225838
	   67 D(1,9,10,6)     =   -149.957477     0.000012     0.301175  -149.656302
	   68 D(2,4,11,3)     =      0.017261     0.000004     0.111145     0.128406
	   69 D(2,4,11,13)    =   -179.966135    -0.000040    -0.950798  -180.916933
	   70 D(2,9,1,3)      =     -0.019945    -0.000004    -0.093658    -0.113603
	   71 D(2,9,1,14)     =   -179.978731     0.000024     0.582492  -179.396239
	   72 D(2,9,10,5)     =   -150.029870     0.000008     0.201613  -149.828258
	   73 D(2,9,10,6)     =     30.095026     0.000008     0.194576    30.289602
	   74 D(3,1,9,10)     =   -179.967461    -0.000008    -0.199570  -180.167031
	   75 D(3,11,4,17)    =    179.978848     0.000007     0.172708   180.151556
	   76 D(3,11,13,23)   =    -75.002005     0.000005     0.042693   -74.959311
	   77 D(4,2,9,10)     =    179.966149    -0.000005    -0.112823   179.853326
	   78 D(4,11,3,16)    =    180.000000    -0.000024    -0.579659   179.420341
	   79 D(4,11,13,23)   =    104.981389     0.000048     1.111144   106.092534
	   80 D(5,7,12,8)     =     -0.051587     0.000001     0.018398    -0.033189
	   81 D(5,7,12,22)    =    179.982140     0.000000     0.003505   179.985644
	   82 D(5,10,6,8)     =      0.100696    -0.000000    -0.012183     0.088513
	   83 D(5,10,6,19)    =   -179.953357     0.000016     0.366996  -179.586361
	   84 D(6,8,12,7)     =      0.084766    -0.000000    -0.008037     0.076729
	   85 D(6,8,12,22)    =   -179.948971     0.000000     0.006863  -179.942109
	   86 D(6,10,5,7)     =     -0.068795     0.000001     0.023178    -0.045617
	   87 D(6,10,5,18)    =   -179.993816     0.000015     0.357700  -179.636116
	   88 D(7,5,10,9)     =   -179.944076     0.000000     0.013363  -179.930712
	   89 D(7,12,8,21)    =   -179.969035    -0.000007    -0.166525  -180.135559
	   90 D(8,6,10,9)     =    179.975965    -0.000000    -0.002286   179.973678
	   91 D(8,12,7,20)    =    179.886353    -0.000005    -0.129333   179.757020
	   92 D(9,1,3,11)     =      0.019955     0.000017     0.413980     0.433934
	   93 D(9,1,3,16)     =   -179.998735     0.000024     0.571448  -179.427286
	   94 D(9,2,4,11)     =     -0.017270     0.000009     0.209905     0.192635
	   95 D(9,2,4,17)     =   -179.979086     0.000006     0.148449  -179.830637
	   96 D(9,10,5,18)    =      0.130903     0.000015     0.347886     0.478788
	   97 D(9,10,6,19)    =     -0.078088     0.000016     0.376892     0.298804
	   98 D(10,5,7,12)    =      0.042772    -0.000001    -0.025203     0.017569
	   99 D(10,5,7,20)    =   -179.890006     0.000006     0.133536  -179.756470
	  100 D(10,6,8,12)    =     -0.107847     0.000000     0.003987    -0.103860
	  101 D(10,6,8,21)    =    179.950304     0.000007     0.174159   180.124463
	  102 D(10,9,1,14)    =      0.073752     0.000020     0.476581     0.550333
	  103 D(10,9,2,15)    =     -0.046992     0.000020     0.459415     0.412423
	  104 D(11,3,1,14)    =    179.979432    -0.000011    -0.249521   179.729911
	  105 D(11,4,2,15)    =    179.995641    -0.000015    -0.351242   179.644399
	  106 D(12,7,5,18)    =    179.969186    -0.000015    -0.351810   179.617376
	  107 D(12,8,6,19)    =    179.945236    -0.000016    -0.366949   179.578287
	  108 D(13,11,3,16)   =     -0.016400     0.000020     0.492870     0.476470
	  109 D(13,11,4,17)   =     -0.004548    -0.000037    -0.889235    -0.893783
	  110 D(14,1,3,16)    =     -0.039257    -0.000004    -0.092052    -0.131309
	  111 D(15,2,4,17)    =      0.033826    -0.000017    -0.412698    -0.378872
	  112 D(18,5,7,20)    =      0.036408    -0.000008    -0.193071    -0.156663
	  113 D(19,6,8,21)    =      0.003387    -0.000009    -0.196777    -0.193390
	  114 D(20,7,12,22)   =     -0.079920    -0.000006    -0.144226    -0.224146
	  115 D(21,8,12,22)   =     -0.002772    -0.000006    -0.151625    -0.154397
	 ---------------------------------------------------------------------------
	Successfully symmetrized geometry.
	 Forces used to impose fixed constraints are not included.
	  Forces zeroed: 76 

  ==> Convergence Check <==

  Measures of convergence in internal coordinates in au.
  Criteria marked as inactive (o), active & met (*), and active & unmet ( ).
  --------------------------------------------------------------------------------------------- ~
   Step     Total Energy     Delta E     MAX Force     RMS Force      MAX Disp      RMS Disp    ~
  --------------------------------------------------------------------------------------------- ~
    Convergence Criteria    1.00e-06 *    3.00e-04 *             o    1.20e-03 *             o  ~
  --------------------------------------------------------------------------------------------- ~
      1    -554.09137395   -5.54e+02      1.40e-02      3.86e-03 o    2.86e-02      9.32e-03 o  ~
  ---------------------------------------------------------------------------------------------

	Writing optimization data to binary file.
	Structure for next step:
	Cartesian Geometry (in Angstrom)
	    C    -1.2812577983   0.7219531509  -0.5645646790
	    C    -0.2905549520   0.1106460549   1.5439949599
	    C    -2.3527840875   1.2889326843   0.1054168461
	    C    -1.3594331496   0.6836581104   2.2132728264
	    C     1.3059026806   0.0216351296  -1.7913363925
	    C     1.5730459311  -1.5623354362  -0.0078035608
	    C     2.3709117877  -0.5608339869  -2.4386539782
	    C     2.6339241240  -2.1151341274  -0.6877813401
	    C    -0.2390689807   0.1255491605   0.1484258521
	    C     0.8856997164  -0.4738273329  -0.5533298617
	    C    -2.3923049186   1.2752611957   1.4960530002
	    N     2.9982109380  -1.6034454680  -1.8729764045
	    O    -3.4483443830   1.8194937845   2.1643384221
	    H    -1.2726746915   0.7395591285  -1.6454364843
	    H     0.5048857861  -0.3389456408   2.1217469395
	    H    -3.1617342402   1.7412737159  -0.4503986495
	    H    -1.3945863713   0.6726833339   3.2930325213
	    H     0.8130573039   0.8629214592  -2.2521485244
	    H     1.2842590975  -1.9858089825   0.9409563656
	    H     2.7499916193  -0.2284280658  -3.3920762427
	    H     3.2059368008  -2.9551725972  -0.3268520974
	    H     3.7809549210  -2.0219416054  -2.3622055781
	    H    -3.3968189265   2.7820799035   2.1426802348
			--------------------------
			 OPTKING Finished Execution 
			--------------------------

    Structure for next step:
    Molecular point group: c1
    Full point group: C1

    Geometry (in Angstrom), charge = 1, multiplicity = 1:

    C           -1.282506039482     0.721383450652    -0.564619862834
    C           -0.291803193200     0.110076354670     1.543939776119
    C           -2.354032328618     1.288362984090     0.105361662253
    C           -1.360681390793     0.683088410201     2.213217642648
    C            1.304654439433     0.021065429377    -1.791391576320
    C            1.571797689889    -1.562905136404    -0.007858744641
    C            2.369663546584    -0.561403687111    -2.438709162036
    C            2.632675882877    -2.115703827633    -0.687836523876
    C           -0.240317221851     0.124979460273     0.148370668312
    C            0.884451475200    -0.474397033064    -0.553385045483
    C           -2.393553159799     1.274691495493     1.495997816434
    N            2.996962696848    -1.604015168224    -1.873031588271
    O           -3.449592624198     1.818924084288     2.164283238336
    H           -1.273922932641     0.738989428336    -1.645491668129
    H            0.503637544930    -0.339515341011     2.121691755702
    H           -3.162982481375     1.740704015672    -0.450453833338
    H           -1.395834612415     0.672113633683     3.292977337506
    H            0.811809062696     0.862351759030    -2.252203708212
    H            1.283010856334    -1.986378682664     0.940901181771
    H            2.748743378097    -0.228997766057    -3.392131426544
    H            3.204688559613    -2.955742297368    -0.326907281194
    H            3.779706679800    -2.022511305566    -2.362260761910
    H           -3.398067167644     2.781510203313     2.142625050957

gradient() will perform analytic gradient computation.

*** tstart() called on gpu-2-10.local
*** at Sun Nov 12 09:56:21 2017

    SCF Algorithm Type (re)set to DF.

*** tstart() called on gpu-2-10.local
*** at Sun Nov 12 09:56:21 2017

   => Loading Basis Set <=

    Name: AUG-CC-PVTZ
    Role: ORBITAL
    Keyword: BASIS
    atoms 1-11  entry C          line   221 file /cbio/jclab/home/chayas/anaconda/envs/py35/share/psi4/basis/aug-cc-pvtz.gbs 
    atoms 12    entry N          line   267 file /cbio/jclab/home/chayas/anaconda/envs/py35/share/psi4/basis/aug-cc-pvtz.gbs 
    atoms 13    entry O          line   313 file /cbio/jclab/home/chayas/anaconda/envs/py35/share/psi4/basis/aug-cc-pvtz.gbs 
    atoms 14-23 entry H          line    34 file /cbio/jclab/home/chayas/anaconda/envs/py35/share/psi4/basis/aug-cc-pvtz.gbs 


         ---------------------------------------------------------
                                   SCF
            by Justin Turney, Rob Parrish, and Andy Simmonett
                              RHF Reference
                        8 Threads,   4768 MiB Core
         ---------------------------------------------------------

  ==> Geometry <==

    Molecular point group: c1
    Full point group: C1

    Geometry (in Angstrom), charge = 1, multiplicity = 1:

       Center              X                  Y                   Z               Mass       
    ------------   -----------------  -----------------  -----------------  -----------------
           C         -1.282506039482     0.721383450652    -0.564619862834    12.000000000000
           C         -0.291803193200     0.110076354670     1.543939776119    12.000000000000
           C         -2.354032328618     1.288362984090     0.105361662253    12.000000000000
           C         -1.360681390793     0.683088410201     2.213217642648    12.000000000000
           C          1.304654439433     0.021065429377    -1.791391576320    12.000000000000
           C          1.571797689889    -1.562905136404    -0.007858744641    12.000000000000
           C          2.369663546584    -0.561403687111    -2.438709162036    12.000000000000
           C          2.632675882877    -2.115703827633    -0.687836523876    12.000000000000
           C         -0.240317221851     0.124979460273     0.148370668312    12.000000000000
           C          0.884451475200    -0.474397033064    -0.553385045483    12.000000000000
           C         -2.393553159799     1.274691495493     1.495997816434    12.000000000000
           N          2.996962696848    -1.604015168224    -1.873031588271    14.003074004780
           O         -3.449592624198     1.818924084288     2.164283238336    15.994914619560
           H         -1.273922932641     0.738989428336    -1.645491668129     1.007825032070
           H          0.503637544930    -0.339515341011     2.121691755702     1.007825032070
           H         -3.162982481375     1.740704015672    -0.450453833338     1.007825032070
           H         -1.395834612415     0.672113633683     3.292977337506     1.007825032070
           H          0.811809062696     0.862351759030    -2.252203708212     1.007825032070
           H          1.283010856334    -1.986378682664     0.940901181771     1.007825032070
           H          2.748743378097    -0.228997766057    -3.392131426544     1.007825032070
           H          3.204688559613    -2.955742297368    -0.326907281194     1.007825032070
           H          3.779706679800    -2.022511305566    -2.362260761910     1.007825032070
           H         -3.398067167644     2.781510203313     2.142625050957     1.007825032070

  Running in c1 symmetry.

  Rotational constants: A =      0.09649  B =      0.01326  C =      0.01187 [cm^-1]
  Rotational constants: A =   2892.81322  B =    397.63717  C =    355.74766 [MHz]
  Nuclear repulsion =  712.855764262926755

  Charge       = 1
  Multiplicity = 1
  Electrons    = 90
  Nalpha       = 45
  Nbeta        = 45

  ==> Algorithm <==

  SCF Algorithm Type is DF.
  DIIS enabled.
  MOM disabled.
  Fractional occupation disabled.
  Guess Type is READ.
  Energy threshold   = 1.00e-10
  Density threshold  = 1.00e-10
  Integral threshold = 0.00e+00

  ==> Primary Basis <==

  Basis Set: AUG-CC-PVTZ
    Blend: AUG-CC-PVTZ
    Number of shells: 272
    Number of basis function: 828
    Number of Cartesian functions: 965
    Spherical Harmonics?: true
    Max angular momentum: 3

   => Loading Basis Set <=

    Name: (AUG-CC-PVTZ AUX)
    Role: JKFIT
    Keyword: DF_BASIS_SCF
    atoms 1-11  entry C          line   161 file /cbio/jclab/home/chayas/anaconda/envs/py35/share/psi4/basis/aug-cc-pvtz-jkfit.gbs 
    atoms 12    entry N          line   223 file /cbio/jclab/home/chayas/anaconda/envs/py35/share/psi4/basis/aug-cc-pvtz-jkfit.gbs 
    atoms 13    entry O          line   285 file /cbio/jclab/home/chayas/anaconda/envs/py35/share/psi4/basis/aug-cc-pvtz-jkfit.gbs 
    atoms 14-23 entry H          line    69 file /cbio/jclab/home/chayas/anaconda/envs/py35/share/psi4/basis/aug-cc-pvtz-jkfit.gbs 

  Reading orbitals from file 180, no projection.

  ==> Pre-Iterations <==

   -------------------------------------------------------
    Irrep   Nso     Nmo     Nalpha   Nbeta   Ndocc  Nsocc
   -------------------------------------------------------
     A        828     828       0       0       0       0
   -------------------------------------------------------
    Total     828     828      45      45      45       0
   -------------------------------------------------------

  ==> Integral Setup <==

  ==> DFJK: Density-Fitted J/K Matrices <==

    J tasked:                  Yes
    K tasked:                  Yes
    wK tasked:                  No
    OpenMP threads:              8
    Integrals threads:           8
    Memory (MB):              3576
    Algorithm:                Disk
    Integral Cache:           NONE
    Schwarz Cutoff:          1E-12
    Fitting Condition:       1E-12

   => Auxiliary Basis Set <=

  Basis Set: (AUG-CC-PVTZ AUX)
    Blend: AUG-CC-PVTZ-JKFIT
    Number of shells: 530
    Number of basis function: 1812
    Number of Cartesian functions: 2253
    Spherical Harmonics?: true
    Max angular momentum: 4

  Minimum eigenvalue in the overlap matrix is 5.8291408604E-07.
  Using Symmetric Orthogonalization.

  SCF Guess: Orbitals guess was supplied from a previous computation.

  ==> Iterations <==

                           Total Energy        Delta E     RMS |[F,P]|

   @DF-RHF iter   0:  -551.78696104761661   -5.51787e+02   4.68947e-04 
   @DF-RHF iter   1:  -551.67457013233752    1.12391e-01   1.19430e-04 
   @DF-RHF iter   2:  -551.67497865760254   -4.08525e-04   7.58902e-05 DIIS
   @DF-RHF iter   3:  -551.67536779975273   -3.89142e-04   1.01810e-05 DIIS
   @DF-RHF iter   4:  -551.67537502373830   -7.22399e-06   3.31588e-06 DIIS
   @DF-RHF iter   5:  -551.67537649680185   -1.47306e-06   1.18115e-06 DIIS
   @DF-RHF iter   6:  -551.67537671270884   -2.15907e-07   3.75691e-07 DIIS
   @DF-RHF iter   7:  -551.67537677916619   -6.64573e-08   2.49812e-07 DIIS
   @DF-RHF iter   8:  -551.67537680080022   -2.16340e-08   1.05459e-07 DIIS
   @DF-RHF iter   9:  -551.67537680537112   -4.57089e-09   4.20324e-08 DIIS
   @DF-RHF iter  10:  -551.67537680589624   -5.25120e-10   1.68771e-08 DIIS
   @DF-RHF iter  11:  -551.67537680595683   -6.05951e-11   3.90721e-09 DIIS
   @DF-RHF iter  12:  -551.67537680594648    1.03455e-11   1.39153e-09 DIIS
   @DF-RHF iter  13:  -551.67537680595501   -8.52651e-12   6.65888e-10 DIIS
   @DF-RHF iter  14:  -551.67537680594057    1.44382e-11   3.03573e-10 DIIS
   @DF-RHF iter  15:  -551.67537680593784    2.72848e-12   1.43745e-10 DIIS
   @DF-RHF iter  16:  -551.67537680595740   -1.95541e-11   5.73626e-11 DIIS

  ==> Post-Iterations <==

    Orbital Energies (a.u.)
    -----------------------

    Doubly Occupied:                                                      

       1A    -20.687453     2A    -15.833031     3A    -11.483723  
       4A    -11.483627     5A    -11.451718     6A    -11.423877  
       7A    -11.414099     8A    -11.413875     9A    -11.378129  
      10A    -11.375825    11A    -11.375249    12A    -11.353687  
      13A    -11.352312    14A     -1.511745    15A     -1.508116  
      16A     -1.320172    17A     -1.266321    18A     -1.241272  
      19A     -1.155607    20A     -1.152869    21A     -1.067397  
      22A     -1.057310    23A     -0.970646    24A     -0.964928  
      25A     -0.951937    26A     -0.868778    27A     -0.861468  
      28A     -0.854147    29A     -0.820009    30A     -0.803138  
      31A     -0.781266    32A     -0.771716    33A     -0.757552  
      34A     -0.749021    35A     -0.724908    36A     -0.707731  
      37A     -0.706038    38A     -0.658266    39A     -0.650502  
      40A     -0.641887    41A     -0.592299    42A     -0.575907  
      43A     -0.541325    44A     -0.469462    45A     -0.449444  

    Virtual:                                                              

      46A     -0.109726    47A     -0.084824    48A     -0.063306  
      49A     -0.062259    50A     -0.059576    51A     -0.049922  
      52A     -0.043091    53A     -0.040089    54A     -0.034869  
      55A     -0.029687    56A     -0.026230    57A     -0.023852  
      58A     -0.017334    59A     -0.009034    60A     -0.007250  
      61A     -0.005229    62A      0.004112    63A      0.005775  
      64A      0.008363    65A      0.013103    66A      0.015970  
      67A      0.018444    68A      0.023854    69A      0.025678  
      70A      0.028449    71A      0.032885    72A      0.037123  
      73A      0.037333    74A      0.042766    75A      0.046379  
      76A      0.051181    77A      0.054338    78A      0.057082  
      79A      0.059843    80A      0.063014    81A      0.068536  
      82A      0.070166    83A      0.073230    84A      0.077834  
      85A      0.082839    86A      0.086746    87A      0.088585  
      88A      0.094484    89A      0.096830    90A      0.108946  
      91A      0.109395    92A      0.113583    93A      0.116307  
      94A      0.123101    95A      0.126730    96A      0.128907  
      97A      0.133620    98A      0.136971    99A      0.138971  
     100A      0.143786   101A      0.152434   102A      0.155760  
     103A      0.159371   104A      0.163250   105A      0.166792  
     106A      0.168057   107A      0.170751   108A      0.174049  
     109A      0.181379   110A      0.183381   111A      0.188443  
     112A      0.191125   113A      0.195576   114A      0.197623  
     115A      0.202227   116A      0.205769   117A      0.210980  
     118A      0.213433   119A      0.215526   120A      0.221993  
     121A      0.226206   122A      0.227233   123A      0.229135  
     124A      0.232590   125A      0.233951   126A      0.237812  
     127A      0.241920   128A      0.247421   129A      0.252191  
     130A      0.257105   131A      0.258912   132A      0.270865  
     133A      0.273503   134A      0.276518   135A      0.281043  
     136A      0.283216   137A      0.287835   138A      0.291234  
     139A      0.294981   140A      0.300140   141A      0.305078  
     142A      0.310576   143A      0.311424   144A      0.320135  
     145A      0.323890   146A      0.325643   147A      0.327324  
     148A      0.333376   149A      0.335874   150A      0.338432  
     151A      0.340148   152A      0.345428   153A      0.351809  
     154A      0.354796   155A      0.358136   156A      0.362040  
     157A      0.363732   158A      0.367751   159A      0.371172  
     160A      0.376335   161A      0.376820   162A      0.379966  
     163A      0.385578   164A      0.386649   165A      0.394919  
     166A      0.397225   167A      0.398649   168A      0.404268  
     169A      0.405124   170A      0.406530   171A      0.409700  
     172A      0.414524   173A      0.417466   174A      0.421820  
     175A      0.425328   176A      0.427932   177A      0.432153  
     178A      0.432994   179A      0.438622   180A      0.445937  
     181A      0.447766   182A      0.450216   183A      0.459443  
     184A      0.462025   185A      0.470622   186A      0.474965  
     187A      0.483116   188A      0.488628   189A      0.498009  
     190A      0.502585   191A      0.508063   192A      0.510926  
     193A      0.513778   194A      0.523833   195A      0.529789  
     196A      0.535148   197A      0.536987   198A      0.545793  
     199A      0.554040   200A      0.559348   201A      0.567353  
     202A      0.572103   203A      0.575115   204A      0.579336  
     205A      0.584711   206A      0.586917   207A      0.588994  
     208A      0.600341   209A      0.608173   210A      0.611084  
     211A      0.618005   212A      0.620008   213A      0.624640  
     214A      0.627018   215A      0.631602   216A      0.640102  
     217A      0.648687   218A      0.651850   219A      0.655180  
     220A      0.660295   221A      0.663130   222A      0.668991  
     223A      0.675066   224A      0.677302   225A      0.697264  
     226A      0.703384   227A      0.710072   228A      0.713002  
     229A      0.716812   230A      0.718086   231A      0.720431  
     232A      0.731767   233A      0.736888   234A      0.742004  
     235A      0.746378   236A      0.749312   237A      0.756350  
     238A      0.758009   239A      0.763769   240A      0.770386  
     241A      0.777286   242A      0.779255   243A      0.786344  
     244A      0.789800   245A      0.794007   246A      0.796105  
     247A      0.801881   248A      0.805857   249A      0.808525  
     250A      0.811878   251A      0.815617   252A      0.822314  
[...]
	 B(9,1,14)        =         2.102395	     120.458366
	 B(9,2,15)        =         2.103110	     120.499343
	 B(10,5,18)       =         2.108062	     120.783058
	 B(10,6,19)       =         2.108494	     120.807780
	 B(11,3,16)       =         2.081069	     119.236444
	 B(11,4,17)       =         2.074577	     118.864521
	 B(11,13,23)      =         1.931462	     110.664595
	 B(12,7,20)       =         2.040864	     116.932867
	 B(12,8,21)       =         2.040885	     116.934109
	 D(1,3,11,4)      =        -0.039515	      -2.264062
	 D(1,3,11,13)     =        -3.071385	    -175.977405
	 D(1,9,2,4)       =        -0.013125	      -0.752015
	 D(1,9,2,15)      =        -3.106385	    -177.982736
	 D(1,9,10,5)      =         0.492544	      28.220685
	 D(1,9,10,6)      =        -2.647227	    -151.674959
	 D(2,4,11,3)      =         0.018043	       1.033801
	 D(2,4,11,13)     =         3.052243	     174.880670
	 D(2,9,1,3)       =        -0.008458	      -0.484585
	 D(2,9,1,14)      =        -3.083099	    -176.648554
	 D(2,9,10,5)      =        -2.658853	    -152.341033
	 D(2,9,10,6)      =         0.484561	      27.763323
	 D(3,1,9,10)      =         3.123487	     178.962618
	 D(3,11,4,17)     =        -3.127690	    -179.203428
	 D(3,11,13,23)    =        -1.306089	     -74.833407
	 D(4,2,9,10)      =         3.138124	     179.801242
	 D(4,11,3,16)     =         3.088132	     176.936937
	 D(4,11,13,23)    =         1.944049	     111.385807
	 D(5,7,12,8)      =         0.000852	       0.048798
	 D(5,7,12,22)     =        -3.141157	    -179.975029
	 D(5,10,6,8)      =         0.000349	       0.019993
	 D(5,10,6,19)     =        -3.107957	    -178.072814
	 D(6,8,12,7)      =         0.000706	       0.040427
	 D(6,8,12,22)     =        -3.140471	    -179.935747
	 D(6,10,5,7)      =         0.001209	       0.069292
	 D(6,10,5,18)     =        -3.108527	    -178.105452
	 D(7,5,10,9)      =        -3.138642	    -179.830930
	 D(7,12,8,21)     =         3.130823	     179.382940
	 D(8,6,10,9)      =         3.140200	     179.920210
	 D(8,12,7,20)     =         3.131271	     179.408587
	 D(9,1,3,11)      =         0.034726	       1.989680
	 D(9,1,3,16)      =        -3.092707	    -177.199072
	 D(9,2,4,11)      =         0.008294	       0.475208
	 D(9,2,4,17)      =        -3.129065	    -179.282215
	 D(9,10,5,18)     =         0.034808	       1.994326
	 D(9,10,6,19)     =         0.031894	       1.827403
	 D(10,5,7,12)     =        -0.001822	      -0.104370
	 D(10,5,7,20)     =        -3.131448	    -179.418778
	 D(10,6,8,12)     =        -0.001301	      -0.074561
	 D(10,6,8,21)     =        -3.130606	    -179.370527
	 D(10,9,1,14)     =         0.048846	       2.798650
	 D(10,9,2,15)     =         0.044864	       2.570521
	 D(11,3,1,14)     =         3.110380	     178.211651
	 D(11,4,2,15)     =         3.102304	     177.748904
	 D(12,7,5,18)     =         3.108676	     178.113994
	 D(12,8,6,19)     =         3.107814	     178.064636
	 D(13,11,3,16)    =         0.056262	       3.223594
	 D(13,11,4,17)    =        -0.093490	      -5.356559
	 D(14,1,3,16)     =        -0.017054	      -0.977101
	 D(15,2,4,17)     =        -0.035055	      -2.008518
	 D(18,5,7,20)     =        -0.020951	      -1.200413
	 D(19,6,8,21)     =        -0.021491	      -1.231330
	 D(20,7,12,22)    =        -0.010738	      -0.615240
	 D(21,8,12,22)    =        -0.010354	      -0.593234

	Current energy   :      -554.0946333121

	Energy change for the previous step:
		Projected    :        -0.0000025328
		Actual       :         0.0000008885

	Performing BFGS update.
	Previous computed or guess Hessian on step 1.
	Steps to be used in Hessian update: 12 11
	Adding user-defined constraint: Fragment 1; Coordinate 76:
		Value =    -1.306089; Fixed value    =    -1.309000
		Force =    -0.002329; Force constant =     0.800000
	Removing off-diagonal coupling between coordinate 76 and others.
	Taking RFO optimization step.
	Going to follow RFO solution 1.
	Using RFO vector 1.
	Norm of target step-size    0.00483
	Projected energy change by RFO approximation:         0.0000008206

	Back-transformation to cartesian coordinates...
	Successfully converged to displaced geometry.

	--- Internal Coordinate Step in ANG or DEG, aJ/ANG or AJ/DEG ---
	 ---------------------------------------------------------------------------
	   Coordinate                Previous        Force       Change         New 
	   ----------                --------       ------       ------       ------
	    1 R(1,3)          =      1.381199     0.000351     0.000076     1.381275
	    2 R(1,9)          =      1.398180     0.000159     0.000037     1.398216
	    3 R(1,14)         =      1.079685    -0.000035    -0.000020     1.079664
	    4 R(2,4)          =      1.381108     0.000436     0.000098     1.381205
	    5 R(2,9)          =      1.397968    -0.000218    -0.000084     1.397884
	    6 R(2,15)         =      1.079624     0.000005     0.000023     1.079647
	    7 R(3,11)         =      1.391606    -0.000097    -0.000022     1.391584
	    8 R(3,16)         =      1.078904     0.000141     0.000048     1.078952
	    9 R(4,11)         =      1.390325     0.000225     0.000039     1.390364
	   10 R(4,17)         =      1.078557    -0.000126    -0.000051     1.078506
	   11 R(5,7)          =      1.372144     0.000306     0.000035     1.372179
	   12 R(5,10)         =      1.400606     0.000157     0.000037     1.400643
	   13 R(5,18)         =      1.077505    -0.000084    -0.000040     1.077466
	   14 R(6,8)          =      1.372158     0.000284     0.000024     1.372182
	   15 R(6,10)         =      1.400669    -0.000028    -0.000021     1.400649
	   16 R(6,19)         =      1.077460    -0.000062    -0.000008     1.077452
	   17 R(7,12)         =      1.343026    -0.000060     0.000004     1.343030
	   18 R(7,20)         =      1.077246    -0.000032    -0.000011     1.077235
	   19 R(8,12)         =      1.343068    -0.000064     0.000011     1.343079
	   20 R(8,21)         =      1.077261    -0.000046    -0.000019     1.077241
	   21 R(9,10)         =      1.447293     0.000406     0.000098     1.447390
	   22 R(11,13)        =      1.363128     0.001084     0.000384     1.363511
	   23 R(12,22)        =      1.011927    -0.000058    -0.000025     1.011902
	   24 R(13,23)        =      0.962721     0.001054     0.000222     0.962943
	   25 B(1,3,11)       =    120.012381    -0.000000    -0.001454   120.010927
	   26 B(1,3,16)       =    120.746277     0.000001     0.015778   120.762055
	   27 B(1,9,2)        =    118.956836     0.000001     0.010333   118.967168
	   28 B(1,9,10)       =    120.479922     0.000001     0.008269   120.488191
	   29 B(2,4,11)       =    120.055788     0.000001     0.002884   120.058672
	   30 B(2,4,17)       =    121.079256     0.000000     0.004125   121.083381
	   31 B(2,9,10)       =    120.560907    -0.000002    -0.018759   120.542148
	   32 B(3,1,9)        =    120.502716    -0.000000    -0.004834   120.497881
	   33 B(3,1,14)       =    118.929931     0.000003     0.023140   118.953070
	   34 B(3,11,4)       =    119.921108    -0.000001     0.000689   119.921797
	   35 B(3,11,13)      =    120.958572    -0.000002    -0.010940   120.947632
	   36 B(4,2,9)        =    120.513331    -0.000001    -0.008343   120.504989
	   37 B(4,2,15)       =    118.930559     0.000004     0.035236   118.965796
	   38 B(4,11,13)      =    118.827600     0.000002     0.014846   118.842446
	   39 B(5,7,12)       =    119.422914    -0.000000    -0.005422   119.417492
	   40 B(5,7,20)       =    123.640882     0.000001     0.005818   123.646700
	   41 B(5,10,6)       =    116.942041    -0.000001     0.001856   116.943898
	   42 B(5,10,9)       =    121.526649     0.000001     0.006184   121.532832
	   43 B(6,8,12)       =    119.427836    -0.000000    -0.003834   119.424001
	   44 B(6,8,21)       =    123.634537     0.000000     0.004423   123.638959
	   45 B(6,10,9)       =    121.531233    -0.000000    -0.008013   121.523220
	   46 B(7,5,10)       =    120.851592     0.000000     0.000102   120.851694
	   47 B(7,5,18)       =    118.340986     0.000002     0.017717   118.358703
	   48 B(7,12,8)       =    122.511941     0.000001     0.006973   122.518914
	   49 B(7,12,22)      =    118.745443    -0.000000    -0.003628   118.741814
	   50 B(8,6,10)       =    120.843580     0.000000     0.000323   120.843903
	   51 B(8,6,19)       =    118.322049     0.000002     0.020402   118.342451
	   52 B(8,12,22)      =    118.742612    -0.000000    -0.003342   118.739270
	   53 B(9,1,14)       =    120.458366    -0.000003    -0.021733   120.436633
	   54 B(9,2,15)       =    120.499343    -0.000003    -0.025776   120.473567
	   55 B(10,5,18)      =    120.783058    -0.000003    -0.017925   120.765132
	   56 B(10,6,19)      =    120.807780    -0.000003    -0.020688   120.787092
	   57 B(11,3,16)      =    119.236444    -0.000001    -0.014700   119.221745
	   58 B(11,4,17)      =    118.864521    -0.000001    -0.006900   118.857620
	   59 B(11,13,23)     =    110.664595     0.000002     0.027294   110.691890
	   60 B(12,7,20)      =    116.932867    -0.000000    -0.000421   116.932447
	   61 B(12,8,21)      =    116.934109    -0.000000    -0.000612   116.933497
	   62 D(1,3,11,4)     =     -2.264062    -0.000000    -0.019941    -2.284003
	   63 D(1,3,11,13)    =   -175.977405     0.000000    -0.070245  -176.047650
	   64 D(1,9,2,4)      =     -0.752015    -0.000000     0.000541    -0.751475
	   65 D(1,9,2,15)     =   -177.982736    -0.000000    -0.027797  -178.010533
	   66 D(1,9,10,5)     =     28.220685     0.000000     0.090931    28.311616
	   67 D(1,9,10,6)     =   -151.674959     0.000000     0.070595  -151.604364
	   68 D(2,4,11,3)     =      1.033801     0.000000     0.004381     1.038182
	   69 D(2,4,11,13)    =    174.880670    -0.000000     0.052032   174.932702
	   70 D(2,9,1,3)      =     -0.484585     0.000000    -0.016116    -0.500701
	   71 D(2,9,1,14)     =   -176.648554     0.000000     0.042754  -176.605800
	   72 D(2,9,10,5)     =   -152.341033     0.000000     0.072329  -152.268704
	   73 D(2,9,10,6)     =     27.763323     0.000000     0.051993    27.815316
	   74 D(3,1,9,10)     =    178.962618     0.000000    -0.034590   178.928028
	   75 D(3,11,4,17)    =   -179.203428    -0.000000     0.036272  -179.167156
	   76 D(3,11,13,23)   =    -74.833407    -0.000003    -0.008978   -74.842385
	   77 D(4,2,9,10)     =    179.801242    -0.000000     0.018871   179.820113
	   78 D(4,11,3,16)    =    176.936937    -0.000000    -0.049856   176.887081
	   79 D(4,11,13,23)   =    111.385807    -0.000003    -0.057898   111.327909
	   80 D(5,7,12,8)     =      0.048798    -0.000000    -0.006918     0.041880
	   81 D(5,7,12,22)    =   -179.975029    -0.000000     0.001026  -179.974003
	   82 D(5,10,6,8)     =      0.019993     0.000000    -0.012885     0.007108
	   83 D(5,10,6,19)    =   -178.072814     0.000000    -0.014603  -178.087417
	   84 D(6,8,12,7)     =      0.040427     0.000000     0.005133     0.045561
	   85 D(6,8,12,22)    =   -179.935747     0.000000    -0.002810  -179.938556
	   86 D(6,10,5,7)     =      0.069292    -0.000000     0.011107     0.080399
	   87 D(6,10,5,18)    =   -178.105452    -0.000000     0.014790  -178.090662
	   88 D(7,5,10,9)     =   -179.830930     0.000000    -0.008329  -179.839259
	   89 D(7,12,8,21)    =    179.382940    -0.000000     0.002915   179.385855
	   90 D(8,6,10,9)     =    179.920210    -0.000000     0.006564   179.926774
	   91 D(8,12,7,20)    =    179.408587    -0.000000    -0.009218   179.399369
	   92 D(9,1,3,11)     =      1.989680    -0.000000     0.025896     2.015576
	   93 D(9,1,3,16)     =   -177.199072     0.000000     0.056528  -177.142544
	   94 D(9,2,4,11)     =      0.475208     0.000000     0.005274     0.480482
	   95 D(9,2,4,17)     =   -179.282215     0.000000    -0.027313  -179.309527
	   96 D(9,10,5,18)    =      1.994326     0.000000    -0.004645     1.989680
	   97 D(9,10,6,19)    =      1.827403    -0.000000     0.004846     1.832249
	   98 D(10,5,7,12)    =     -0.104370     0.000000    -0.001586    -0.105957
	   99 D(10,5,7,20)    =   -179.418778     0.000000     0.000926  -179.417851
	  100 D(10,6,8,12)    =     -0.074561    -0.000000     0.005163    -0.069398
	  101 D(10,6,8,21)    =   -179.370527     0.000000     0.007579  -179.362948
	  102 D(10,9,1,14)    =      2.798650     0.000000     0.024279     2.822929
	  103 D(10,9,2,15)    =      2.570521    -0.000000    -0.009466     2.561055
	  104 D(11,3,1,14)    =    178.211651    -0.000000    -0.033796   178.177855
	  105 D(11,4,2,15)    =    177.748904    -0.000000     0.031537   177.780441
	  106 D(12,7,5,18)    =    178.113994     0.000000    -0.005813   178.108182
	  107 D(12,8,6,19)    =    178.064636    -0.000000     0.006082   178.070718
	  108 D(13,11,3,16)   =      3.223594    -0.000000    -0.100160     3.123434
	  109 D(13,11,4,17)   =     -5.356559    -0.000000     0.083923    -5.272636
	  110 D(14,1,3,16)    =     -0.977101    -0.000000    -0.003163    -0.980265
	  111 D(15,2,4,17)    =     -2.008518     0.000000    -0.001050    -2.009568
	  112 D(18,5,7,20)    =     -1.200413     0.000000    -0.003300    -1.203713
	  113 D(19,6,8,21)    =     -1.231330     0.000000     0.008498    -1.222832
	  114 D(20,7,12,22)   =     -0.615240    -0.000000    -0.001275    -0.616514
	  115 D(21,8,12,22)   =     -0.593234    -0.000000    -0.005029    -0.598262
	 ---------------------------------------------------------------------------
	Successfully symmetrized geometry.
	 Forces used to impose fixed constraints are not included.
	  Forces zeroed: 76 

  ==> Convergence Check <==

  Measures of convergence in internal coordinates in au.
  Criteria marked as inactive (o), active & met (*), and active & unmet ( ).
  ---------------------------------------------------------------------------------------------
   Step     Total Energy     Delta E     MAX Force     RMS Force      MAX Disp      RMS Disp   
  ---------------------------------------------------------------------------------------------
    Convergence Criteria    1.00e-06 *    3.00e-04 *             o    1.20e-03 *             o
  ---------------------------------------------------------------------------------------------
     13    -554.09463331    8.88e-07 *    1.81e-04 *    2.91e-05 o    1.75e-03      4.50e-04 o  ~
  ---------------------------------------------------------------------------------------------


  **** Optimization is complete! (in 13 steps) ****

  ==> Optimization Summary <==

  Measures of convergence in internal coordinates in au.
  --------------------------------------------------------------------------------------------------------------- ~
   Step         Total Energy             Delta E       MAX Force       RMS Force        MAX Disp        RMS Disp  ~
  --------------------------------------------------------------------------------------------------------------- ~
      1    -554.091373948200   -554.091373948200      0.01399773      0.00386504      0.02860270      0.00932004  ~
      2    -554.093805196959     -0.002431248759      0.00392332      0.00111833      0.04094193      0.00931210  ~
      3    -554.094416687396     -0.000611490436      0.00133850      0.00038261      0.04192755      0.00931119  ~
      4    -554.094615522316     -0.000198834921      0.00059179      0.00012900      0.01477881      0.00377489  ~
      5    -554.094635581596     -0.000020059280      0.00032148      0.00005248      0.00490195      0.00097006  ~
      6    -554.094636631402     -0.000001049806      0.00015058      0.00002689      0.00540735      0.00105601  ~
      7    -554.094638920337     -0.000002288935      0.00038023      0.00005223      0.00668765      0.00128240  ~
      8    -554.094635250295      0.000003670041      0.00017609      0.00004041      0.02613297      0.00933873  ~
      9    -554.093973005119      0.000662245176      0.00896238      0.00198157      0.04022067      0.00928494  ~
     10    -554.094363584505     -0.000390579386      0.00577575      0.00089062      0.05185795      0.00932168  ~
     11    -554.094628973771     -0.000265389266      0.00066698      0.00009943      0.00834482      0.00160228  ~
     12    -554.094634200552     -0.000005226781      0.00028370      0.00005171      0.00231184      0.00055979  ~
     13    -554.094633312091      0.000000888461      0.00018790      0.00003393      0.00174812      0.00045025  ~
  --------------------------------------------------------------------------------------------------------------- ~

	Writing optimization data to binary file.
	Final energy is   -554.0946333120908
	Final (previous) structure:
	Cartesian Geometry (in Angstrom)
	    C    -1.2607240319   0.7671803550  -0.5596369717
	    C    -0.2997093809   0.1026352675   1.5467112470
	    C    -2.3302182384   1.3323523999   0.1070509157
	    C    -1.3565710853   0.6901659197   2.2140263794
	    C     1.2977053421  -0.0071808510  -1.8016094127
	    C     1.5763494257  -1.5569105293  -0.0066177821
	    C     2.3489561335  -0.5996884661  -2.4547452844
	    C     2.6249626122  -2.1270814896  -0.6834720807
	    C    -0.2328539607   0.1397923224   0.1508372937
	    C     0.8763681041  -0.4718329803  -0.5493030685
	    C    -2.3703942668   1.3166279605   1.4979875734
	    N     2.9812216828  -1.6370193727  -1.8821167565
	    O    -3.4531541143   1.7953635374   2.1736798414
	    H    -1.2613815726   0.7631517438  -1.6393140706
	    H     0.4960398135  -0.3466355747   2.1216265108
	    H    -3.1473864923   1.7777740041  -0.4387228430
	    H    -1.4114614649   0.6769005367   3.2911040879
	    H     0.8228519601   0.8430991301  -2.2626472388
	    H     1.2854042260  -1.9841016678   0.9387810826
	    H     2.7157667685  -0.2737785268  -3.4137510988
	    H     3.1874777776  -2.9679422823  -0.3133099428
	    H     3.7553906748  -2.0660101019  -2.3726534535
	    H    -3.4658064553   2.7578548494   2.1568562109
	Saving final (previous) structure.
			--------------------------
			 OPTKING Finished Execution 
			--------------------------

    Final optimized geometry and variables:
    Molecular point group: c1
    Full point group: C1

    Geometry (in Angstrom), charge = 1, multiplicity = 1:

    C           -1.260724031885     0.767180354988    -0.559636971670
    C           -0.299709380903     0.102635267523     1.546711246977
    C           -2.330218238425     1.332352399919     0.107050915683
    C           -1.356571085315     0.690165919745     2.214026379384
    C            1.297705342102    -0.007180851022    -1.801609412651
    C            1.576349425722    -1.556910529284    -0.006617782061
    C            2.348956133461    -0.599688466065    -2.454745284374
    C            2.624962612174    -2.127081489585    -0.683472080655
    C           -0.232853960750     0.139792322366     0.150837293693
    C            0.876368104132    -0.471832980296    -0.549303068454
    C           -2.370394266838     1.316627960478     1.497987573406
    N            2.981221682836    -1.637019372698    -1.882116756520
    O           -3.453154114346     1.795363537372     2.173679841414
    H           -1.261381572571     0.763151743804    -1.639314070589
    H            0.496039813488    -0.346635574694     2.121626510806
    H           -3.147386492286     1.777774004091    -0.438722842955
    H           -1.411461464925     0.676900536691     3.291104087862
    H            0.822851960053     0.843099130057    -2.262647238751
    H            1.285404226016    -1.984101667790     0.938781082561
    H            2.715766768548    -0.273778526800    -3.413751098798
    H            3.187477777569    -2.967942282263    -0.313309942754
    H            3.755390674789    -2.066010101864    -2.372653453493
    H           -3.465806455349     2.757854849402     2.156856210921

	Cleaning optimization helper files.

*** Psi4 exiting successfully. Buy a developer a beer!
