
    -----------------------------------------------------------------------
          Psi4: An Open-Source Ab Initio Electronic Structure Package
                               Psi4 1.1 release

                         Git: Rev {HEAD} add49b9 


    R. M. Parrish, L. A. Burns, D. G. A. Smith, A. C. Simmonett,
    A. E. DePrince III, E. G. Hohenstein, U. Bozkaya, A. Yu. Sokolov,
    R. Di Remigio, R. M. Richard, J. F. Gonthier, A. M. James,
    H. R. McAlexander, A. Kumar, M. Saitow, X. Wang, B. P. Pritchard,
    P. Verma, H. F. Schaefer III, K. Patkowski, R. A. King, E. F. Valeev,
    F. A. Evangelista, J. M. Turney, T. D. Crawford, and C. D. Sherrill,
    J. Chem. Theory Comput. in press (2017).
    (doi: 10.1021/acs.jctc.7b00174)

    -----------------------------------------------------------------------


    Psi4 started on: Saturday, 11 November 2017 06:16PM

    Process ID:   5005
    PSIDATADIR: /cbio/jclab/home/chayas/anaconda/envs/py35/share/psi4
    Memory:     500.0 MiB
    Threads:    8
    
  ==> Input File <==

--------------------------------------------------------------------------

memory 5 Gb

molecule phepyrFOH_cation {
  symmetry C1
  1 1 
  C      1.885   -1.036   -0.112
  C      0.807   -0.463   0.561
  C      4.830   -1.443   -0.930
  C      4.321   -3.578   0.063
  C      1.800   -1.079   2.676
  C      5.894   -2.040   -1.592
  C      5.398   -4.120   -0.624
  C      2.921   -1.631   0.608
  C      4.038   -2.225   -0.095
  C      0.764   -0.484   1.955
  C      2.878   -1.652   2.002
  N      6.144   -3.345   -1.422
  O      -0.289   0.076   2.612
  F      3.866   -2.220   2.709
  H      1.904   -1.012   -1.199
  H      0.002   -0.002   -0.006
  H      4.632   -0.385   -1.072
  H      3.719   -4.212   0.708
  H      1.772   -1.099   3.762
  H      6.561   -1.511   -2.259
  H      5.691   -5.159   -0.561
  H      6.930   -3.764   -1.918
  H      -0.027   0.924   3.005
  units Angstrom
}

dih_string = "2 10 13 23 255"
set optking fixed_dihedral = $dih_string

optimize('MP2/aug-cc-PVTZ')
--------------------------------------------------------------------------

  Memory set to   4.657 GiB by Python driver.
gradient() will perform analytic gradient computation.

*** tstart() called on gpu-1-8.local
*** at Sat Nov 11 18:16:23 2017

    SCF Algorithm Type (re)set to DF.

*** tstart() called on gpu-1-8.local
*** at Sat Nov 11 18:16:23 2017

   => Loading Basis Set <=

    Name: AUG-CC-PVTZ
    Role: ORBITAL
    Keyword: BASIS
    atoms 1-11  entry C          line   221 file /cbio/jclab/home/chayas/anaconda/envs/py35/share/psi4/basis/aug-cc-pvtz.gbs 
    atoms 12    entry N          line   267 file /cbio/jclab/home/chayas/anaconda/envs/py35/share/psi4/basis/aug-cc-pvtz.gbs 
    atoms 13    entry O          line   313 file /cbio/jclab/home/chayas/anaconda/envs/py35/share/psi4/basis/aug-cc-pvtz.gbs 
    atoms 14    entry F          line   359 file /cbio/jclab/home/chayas/anaconda/envs/py35/share/psi4/basis/aug-cc-pvtz.gbs 
    atoms 15-23 entry H          line    34 file /cbio/jclab/home/chayas/anaconda/envs/py35/share/psi4/basis/aug-cc-pvtz.gbs 


         ---------------------------------------------------------
                                   SCF
            by Justin Turney, Rob Parrish, and Andy Simmonett
                              RHF Reference
                        8 Threads,   4768 MiB Core
         ---------------------------------------------------------

  ==> Geometry <==

    Molecular point group: c1
    Full point group: C1

    Geometry (in Angstrom), charge = 1, multiplicity = 1:

       Center              X                  Y                   Z               Mass       
    ------------   -----------------  -----------------  -----------------  -----------------
           C         -1.338709473615     0.758947962781    -0.785134961311    12.000000000000
           C         -2.416709473615     1.331947962781    -0.112134961311    12.000000000000
           C          1.606290526385     0.351947962781    -1.603134961311    12.000000000000
           C          1.097290526385    -1.783052037219    -0.610134961311    12.000000000000
           C         -1.423709473615     0.715947962781     2.002865038689    12.000000000000
           C          2.670290526385    -0.245052037219    -2.265134961311    12.000000000000
           C          2.174290526385    -2.325052037219    -1.297134961311    12.000000000000
           C         -0.302709473615     0.163947962781    -0.065134961311    12.000000000000
           C          0.814290526385    -0.430052037219    -0.768134961311    12.000000000000
           C         -2.459709473615     1.310947962781     1.281865038689    12.000000000000
           C         -0.345709473615     0.142947962781     1.328865038689    12.000000000000
           N          2.920290526385    -1.550052037219    -2.095134961311    14.003074004780
           O         -3.512709473615     1.870947962781     1.938865038689    15.994914619560
           F          0.642290526385    -0.425052037219     2.035865038689    18.998403224000
           H         -1.319709473615     0.782947962781    -1.872134961311     1.007825032070
           H         -3.221709473615     1.792947962781    -0.679134961311     1.007825032070
           H          1.408290526385     1.409947962781    -1.745134961311     1.007825032070
           H          0.495290526385    -2.417052037219     0.034865038689     1.007825032070
           H         -1.451709473615     0.695947962781     3.088865038689     1.007825032070
           H          3.337290526385     0.283947962781    -2.932134961311     1.007825032070
           H          2.467290526385    -3.364052037219    -1.234134961311     1.007825032070
           H          3.706290526385    -1.969052037219    -2.591134961311     1.007825032070
           H         -3.250709473615     2.718947962781     2.331865038689     1.007825032070

  Running in c1 symmetry.

  Rotational constants: A =      0.06282  B =      0.01288  C =      0.01150 [cm^-1]
  Rotational constants: A =   1883.16937  B =    386.21172  C =    344.86681 [MHz]
  Nuclear repulsion =  829.301799060246935

  Charge       = 1
  Multiplicity = 1
  Electrons    = 98
  Nalpha       = 49
  Nbeta        = 49

  ==> Algorithm <==

  SCF Algorithm Type is DF.
  DIIS enabled.
  MOM disabled.
  Fractional occupation disabled.
  Guess Type is SAD.
  Energy threshold   = 1.00e-10
  Density threshold  = 1.00e-10
  Integral threshold = 0.00e+00

  ==> Primary Basis <==

  Basis Set: AUG-CC-PVTZ
    Blend: AUG-CC-PVTZ
    Number of shells: 277
    Number of basis function: 851
    Number of Cartesian functions: 995
    Spherical Harmonics?: true
    Max angular momentum: 3

   => Loading Basis Set <=

    Name: (AUG-CC-PVTZ AUX)
    Role: JKFIT
    Keyword: DF_BASIS_SCF
    atoms 1-11  entry C          line   161 file /cbio/jclab/home/chayas/anaconda/envs/py35/share/psi4/basis/aug-cc-pvtz-jkfit.gbs 
    atoms 12    entry N          line   223 file /cbio/jclab/home/chayas/anaconda/envs/py35/share/psi4/basis/aug-cc-pvtz-jkfit.gbs 
    atoms 13    entry O          line   285 file /cbio/jclab/home/chayas/anaconda/envs/py35/share/psi4/basis/aug-cc-pvtz-jkfit.gbs 
    atoms 14    entry F          line   347 file /cbio/jclab/home/chayas/anaconda/envs/py35/share/psi4/basis/aug-cc-pvtz-jkfit.gbs 
    atoms 15-23 entry H          line    69 file /cbio/jclab/home/chayas/anaconda/envs/py35/share/psi4/basis/aug-cc-pvtz-jkfit.gbs 

  ==> Pre-Iterations <==

   -------------------------------------------------------
    Irrep   Nso     Nmo     Nalpha   Nbeta   Ndocc  Nsocc
   -------------------------------------------------------
     A        851     851       0       0       0       0
   -------------------------------------------------------
    Total     851     851      49      49      49       0
   -------------------------------------------------------

  ==> Integral Setup <==

  ==> DFJK: Density-Fitted J/K Matrices <==

    J tasked:                  Yes
    K tasked:                  Yes
    wK tasked:                  No
    OpenMP threads:              8
    Integrals threads:           8
    Memory (MB):              3576
    Algorithm:                Disk
    Integral Cache:           NONE
    Schwarz Cutoff:          1E-12
    Fitting Condition:       1E-12

   => Auxiliary Basis Set <=

  Basis Set: (AUG-CC-PVTZ AUX)
    Blend: AUG-CC-PVTZ-JKFIT
    Number of shells: 546
    Number of basis function: 1870
    Number of Cartesian functions: 2329
    Spherical Harmonics?: true
    Max angular momentum: 4

  Minimum eigenvalue in the overlap matrix is 7.3206884690E-07.
  Using Symmetric Orthogonalization.

  SCF Guess: Superposition of Atomic Densities via on-the-fly atomic UHF.

  ==> Iterations <==

                           Total Energy        Delta E     RMS |[F,P]|

   @DF-RHF iter   0:  -651.47414846802405   -6.51474e+02   1.47925e-02 
   @DF-RHF iter   1:  -650.01991181222411    1.45424e+00   2.16667e-03 
   @DF-RHF iter   2:  -650.42072187648307   -4.00810e-01   1.08461e-03 DIIS
   @DF-RHF iter   3:  -650.53378295141522   -1.13061e-01   3.74080e-04 DIIS
   @DF-RHF iter   4:  -650.55131919377698   -1.75362e-02   1.21739e-04 DIIS
   @DF-RHF iter   5:  -650.55418789127339   -2.86870e-03   4.07602e-05 DIIS
   @DF-RHF iter   6:  -650.55458340172004   -3.95510e-04   1.87311e-05 DIIS
   @DF-RHF iter   7:  -650.55465996303826   -7.65613e-05   6.28146e-06 DIIS
   @DF-RHF iter   8:  -650.55467140022802   -1.14372e-05   1.98548e-06 DIIS
   @DF-RHF iter   9:  -650.55467308729237   -1.68706e-06   1.12883e-06 DIIS
   @DF-RHF iter  10:  -650.55467361092053   -5.23628e-07   5.12676e-07 DIIS
   @DF-RHF iter  11:  -650.55467373319300   -1.22272e-07   1.42856e-07 DIIS
   @DF-RHF iter  12:  -650.55467374016587   -6.97287e-09   4.74128e-08 DIIS
   @DF-RHF iter  13:  -650.55467374085435   -6.88487e-10   1.94446e-08 DIIS
   @DF-RHF iter  14:  -650.55467374095792   -1.03569e-10   8.14916e-09 DIIS
   @DF-RHF iter  15:  -650.55467374097088   -1.29603e-11   4.09364e-09 DIIS
   @DF-RHF iter  16:  -650.55467374097691   -6.02540e-12   1.86121e-09 DIIS
   @DF-RHF iter  17:  -650.55467374096600    1.09139e-11   7.21323e-10 DIIS
   @DF-RHF iter  18:  -650.55467374097520   -9.20863e-12   3.02112e-10 DIIS
   @DF-RHF iter  19:  -650.55467374100408   -2.88765e-11   1.18485e-10 DIIS
   @DF-RHF iter  20:  -650.55467374097009    3.39924e-11   4.61394e-11 DIIS

  ==> Post-Iterations <==

    Orbital Energies (a.u.)
    -----------------------

    Doubly Occupied:                                                      

       1A    -26.442703     2A    -20.690348     3A    -15.845203  
       4A    -11.491716     5A    -11.490087     6A    -11.466172  
       7A    -11.453448     8A    -11.429221     9A    -11.423766  
      10A    -11.422300    11A    -11.383177    12A    -11.381953  
      13A    -11.360236    14A    -11.355235    15A     -1.761050  
      16A     -1.520285    17A     -1.509515    18A     -1.326674  
      19A     -1.270541    20A     -1.244342    21A     -1.163218  
      22A     -1.150550    23A     -1.074360    24A     -1.061749  
      25A     -0.984750    26A     -0.970581    27A     -0.963838  
      28A     -0.887859    29A     -0.875597    30A     -0.861415  
      31A     -0.845656    32A     -0.828027    33A     -0.822254  
      34A     -0.808259    35A     -0.800098    36A     -0.782046  
      37A     -0.755024    38A     -0.749815    39A     -0.736879  
      40A     -0.718740    41A     -0.713129    42A     -0.669897  
      43A     -0.652387    44A     -0.627826    45A     -0.600738  
      46A     -0.582135    47A     -0.541885    48A     -0.468700  
      49A     -0.457038  

    Virtual:                                                              

      50A     -0.107199    51A     -0.087398    52A     -0.068478  
      53A     -0.064022    54A     -0.058792    55A     -0.051210  
      56A     -0.043444    57A     -0.039008    58A     -0.035873  
      59A     -0.030113    60A     -0.024127    61A     -0.019822  
      62A     -0.014953    63A     -0.010105    64A     -0.007041  
      65A     -0.005147    66A      0.001853    67A      0.005516  
      68A      0.008694    69A      0.011335    70A      0.014860  
      71A      0.017745    72A      0.023653    73A      0.026353  
      74A      0.029943    75A      0.032958    76A      0.034682  
      77A      0.038554    78A      0.041104    79A      0.044094  
      80A      0.047228    81A      0.050910    82A      0.053703  
      83A      0.059843    84A      0.063920    85A      0.067507  
      86A      0.070762    87A      0.074407    88A      0.080694  
      89A      0.082682    90A      0.087211    91A      0.091762  
      92A      0.092815    93A      0.101278    94A      0.105202  
      95A      0.110379    96A      0.116464    97A      0.117525  
      98A      0.123602    99A      0.127737   100A      0.133012  
     101A      0.135460   102A      0.139123   103A      0.141638  
     104A      0.143430   105A      0.150200   106A      0.153164  
     107A      0.157648   108A      0.159391   109A      0.163437  
     110A      0.167170   111A      0.169262   112A      0.172153  
     113A      0.176654   114A      0.181155   115A      0.187835  
     116A      0.192454   117A      0.195323   118A      0.196495  
     119A      0.197477   120A      0.205068   121A      0.208780  
     122A      0.211658   123A      0.214804   124A      0.220347  
     125A      0.221430   126A      0.227751   127A      0.228969  
     128A      0.233787   129A      0.235928   130A      0.241993  
     131A      0.248556   132A      0.252441   133A      0.252867  
     134A      0.254253   135A      0.258016   136A      0.260587  
     137A      0.268598   138A      0.271156   139A      0.276187  
     140A      0.280646   141A      0.281992   142A      0.287516  
     143A      0.290853   144A      0.295978   145A      0.304638  
     146A      0.306257   147A      0.314327   148A      0.316917  
     149A      0.318422   150A      0.321913   151A      0.322896  
     152A      0.328742   153A      0.333533   154A      0.334478  
     155A      0.335896   156A      0.343240   157A      0.345882  
     158A      0.348307   159A      0.350630   160A      0.353182  
     161A      0.359737   162A      0.368759   163A      0.369409  
     164A      0.370713   165A      0.377319   166A      0.381351  
     167A      0.382267   168A      0.384440   169A      0.386460  
     170A      0.391944   171A      0.395781   172A      0.402111  
     173A      0.403443   174A      0.407364   175A      0.411192  
     176A      0.412970   177A      0.420589   178A      0.422215  
     179A      0.422649   180A      0.426677   181A      0.428768  
     182A      0.436165   183A      0.439602   184A      0.446467  
     185A      0.449703   186A      0.455098   187A      0.455866  
     188A      0.467829   189A      0.471206   190A      0.474755  
     191A      0.481505   192A      0.487118   193A      0.488645  
     194A      0.498510   195A      0.503666   196A      0.510828  
     197A      0.519632   198A      0.520770   199A      0.527870  
     200A      0.529838   201A      0.536351   202A      0.543971  
     203A      0.547061   204A      0.557657   205A      0.560768  
     206A      0.567442   207A      0.568102   208A      0.570138  
     209A      0.580620   210A      0.583298   211A      0.590192  
     212A      0.596757   213A      0.600363   214A      0.602605  
     215A      0.607086   216A      0.610057   217A      0.616788  
     218A      0.619743   219A      0.621641   220A      0.629076  
     221A      0.632629   222A      0.640841   223A      0.646138  
     224A      0.657319   225A      0.662542   226A      0.670782  
     227A      0.674154   228A      0.683335   229A      0.689410  
     230A      0.700866   231A      0.702001   232A      0.706647  
     233A      0.716025   234A      0.718901   235A      0.721758  
     236A      0.726414   237A      0.733998   238A      0.742387  
     239A      0.745827   240A      0.748114   241A      0.755831  
     242A      0.759414   243A      0.760234   244A      0.767689  
     245A      0.773684   246A      0.775447   247A      0.779215  
     248A      0.780670   249A      0.786425   250A      0.790739  
     251A      0.797793   252A      0.803832   253A      0.805373  
     254A      0.813079   255A      0.817000   256A      0.821374  
     257A      0.827389   258A      0.830369   259A      0.832887  
     260A      0.839076   261A      0.842232   262A      0.847808  
     263A      0.858208   264A      0.859444   265A      0.863450  
     266A      0.867937   267A      0.873512   268A      0.877068  
     269A      0.884327   270A      0.887197   271A      0.894853  
     272A      0.901050   273A      0.904453   274A      0.907089  
     275A      0.910226   276A      0.916351   277A      0.923058  
     278A      0.926369   279A      0.928846   280A      0.931449  
     281A      0.935712   282A      0.941180   283A      0.950032  
     284A      0.953711   285A      0.959019   286A      0.962889  
     287A      0.966705   288A      0.967636   289A      0.973921  
     290A      0.976802   291A      0.981793   292A      0.986759  
     293A      0.990328   294A      0.991136   295A      1.000985  
     296A      1.005882   297A      1.007895   298A      1.010557  
     299A      1.017646   300A      1.020637   301A      1.024018  
     302A      1.030110   303A      1.033567   304A      1.039426  
     305A      1.044986   306A      1.047129   307A      1.054803  
     308A      1.059543   309A      1.060723   310A      1.071204  
     311A      1.073205   312A      1.078958   313A      1.085403  
     314A      1.086541   315A      1.095666   316A      1.099564  
     317A      1.102767   318A      1.108753   319A      1.115148  
     320A      1.119021   321A      1.123373   322A      1.129448  
     323A      1.136691   324A      1.140382   325A      1.142054  
     326A      1.150510   327A      1.152329   328A      1.159192  
     329A      1.162143   330A      1.174519   331A      1.181677  
     332A      1.191149   333A      1.196808   334A      1.202619  
     335A      1.207486   336A      1.215644   337A      1.225103  
     338A      1.229681   339A      1.234096   340A      1.240439  
     341A      1.246230   342A      1.249807   343A      1.256274  
     344A      1.265909   345A      1.269477   346A      1.273588  
     347A      1.277184   348A      1.279558   349A      1.292035  
     350A      1.298545   351A      1.309293   352A      1.313970  
     353A      1.317185   354A      1.326818   355A      1.328649  
     356A      1.338913   357A      1.344510   358A      1.350599  
     359A      1.360165   360A      1.367897   361A      1.374735  
     362A      1.381335   363A      1.388978   364A      1.394380  
     365A      1.400932   366A      1.413419   367A      1.418011  
     368A      1.419292   369A      1.428910   370A      1.438897  
     371A      1.449252   372A      1.452736   373A      1.458871  
     374A      1.466069   375A      1.484308   376A      1.489813  
     377A      1.494636   378A      1.499260   379A      1.500680  
     380A      1.509435   381A      1.518369   382A      1.521068  
     383A      1.523501   384A      1.535021   385A      1.536689  
     386A      1.545237   387A      1.549732   388A      1.557109  
     389A      1.567709   390A      1.572012   391A      1.576653  
     392A      1.594841   393A      1.606465   394A      1.609882  
     395A      1.616891   396A      1.629455   397A      1.636970  
     398A      1.642117   399A      1.654247   400A      1.663147  
     401A      1.671099   402A      1.677215   403A      1.684060  
     404A      1.685191   405A      1.695438   406A      1.703386  
     407A      1.711804   408A      1.718396   409A      1.731987  
     410A      1.737092   411A      1.741849   412A      1.753295  
     413A      1.761565   414A      1.768349   415A      1.772985  
     416A      1.775736   417A      1.789840   418A      1.798996  
     419A      1.807467   420A      1.811609   421A      1.816069  
     422A      1.829285   423A      1.834523   424A      1.839440  
     425A      1.843117   426A      1.850679   427A      1.853246  
     428A      1.868382   429A      1.870444   430A      1.886811  
     431A      1.891189   432A      1.895895   433A      1.908576  
     434A      1.916263   435A      1.923381   436A      1.929819  
     437A      1.936114   438A      1.944788   439A      1.946841  
     440A      1.956598   441A      1.970051   442A      1.971639  
     443A      1.983520   444A      1.986193   445A      1.994436  
     446A      2.000934   447A      2.009485   448A      2.021645  
     449A      2.026135   450A      2.033323   451A      2.045879  
     452A      2.058314   453A      2.064048   454A      2.067928  
     455A      2.071702   456A      2.083191   457A      2.089985  
     458A      2.104550   459A      2.110005   460A      2.116773  
     461A      2.127410   462A      2.145188   463A      2.158639  
     464A      2.166578   465A      2.171518   466A      2.181911  
     467A      2.191294   468A      2.198275   469A      2.214001  
     470A      2.224229   471A      2.233793   472A      2.240151  
     473A      2.250633   474A      2.254604   475A      2.262368  
     476A      2.267202   477A      2.290508   478A      2.297897  
     479A      2.309047   480A      2.321333   481A      2.328091  
     482A      2.332687   483A      2.345164   484A      2.362695  
     485A      2.377862   486A      2.386181   487A      2.393146  
     488A      2.399867   489A      2.406873   490A      2.424663  
     491A      2.429752   492A      2.459827   493A      2.465037  
     494A      2.468074   495A      2.484815   496A      2.498494  
     497A      2.524750   498A      2.534461   499A      2.545824  
     500A      2.558314   501A      2.569689   502A      2.578478  
     503A      2.586537   504A      2.596745   505A      2.602907  
     506A      2.629606   507A      2.633317   508A      2.641750  
     509A      2.673771   510A      2.682955   511A      2.693895  
     512A      2.731453   513A      2.744829   514A      2.755652  
     515A      2.758443   516A      2.772001   517A      2.797059  
     518A      2.846014   519A      2.857002   520A      2.865253  
     521A      2.896552   522A      2.916107   523A      2.923162  
     524A      2.936526   525A      2.945347   526A      2.960533  
     527A      2.975698   528A      2.980108   529A      3.002784  
     530A      3.005901   531A      3.027445   532A      3.041365  
     533A      3.045943   534A      3.054498   535A      3.075259  
     536A      3.080877   537A      3.089148   538A      3.099903  
     539A      3.112778   540A      3.128233   541A      3.142070  
     542A      3.149559   543A      3.159290   544A      3.174543  
     545A      3.197251   546A      3.202276   547A      3.220656  
     548A      3.229375   549A      3.234529   550A      3.246375  
     551A      3.256060   552A      3.265606   553A      3.276626  
     554A      3.284994   555A      3.299411   556A      3.304346  
     557A      3.314121   558A      3.318448   559A      3.330256  
     560A      3.332354   561A      3.349593   562A      3.366378  
     563A      3.369066   564A      3.377638   565A      3.380031  
     566A      3.387497   567A      3.397737   568A      3.407019  
     569A      3.411595   570A      3.422766   571A      3.426488  
     572A      3.438628   573A      3.445319   574A      3.455464  
     575A      3.462908   576A      3.472921   577A      3.483990  
     578A      3.490956   579A      3.500525   580A      3.507720  
     581A      3.519784   582A      3.522795   583A      3.535724  
     584A      3.540379   585A      3.559029   586A      3.564912  
     587A      3.572755   588A      3.582513   589A      3.592960  
     590A      3.599649   591A      3.615955   592A      3.617672  
     593A      3.623991   594A      3.647177   595A      3.651715  
     596A      3.652769   597A      3.659060   598A      3.678266  
     599A      3.679117   600A      3.682862   601A      3.708057  
     602A      3.709925   603A      3.715777   604A      3.716405  
     605A      3.729556   606A      3.742282   607A      3.750616  
     608A      3.755782   609A      3.771271   610A      3.772698  
     611A      3.784289   612A      3.791927   613A      3.796879  
     614A      3.804239   615A      3.808690   616A      3.827554  
     617A      3.829647   618A      3.834834   619A      3.837491  
     620A      3.845884   621A      3.857947   622A      3.867662  
     623A      3.880133   624A      3.883762   625A      3.892770  
     626A      3.897201   627A      3.903977   628A      3.908121  
     629A      3.928356   630A      3.942595   631A      3.952373  
     632A      3.955093   633A      3.966640   634A      3.978970  
     635A      3.984555   636A      4.000846   637A      4.004066  
     638A      4.008540   639A      4.017962   640A      4.031667  
     641A      4.036616   642A      4.042525   643A      4.053735  
     644A      4.063508   645A      4.071610   646A      4.083616  
     647A      4.091143   648A      4.093694   649A      4.104865  
     650A      4.116874   651A      4.118414   652A      4.134689  
     653A      4.145754   654A      4.159114   655A      4.160781  
     656A      4.175459   657A      4.187246   658A      4.200070  
     659A      4.205257   660A      4.209106   661A      4.214315  
     662A      4.221263   663A      4.233289   664A      4.235380  
     665A      4.249671   666A      4.255237   667A      4.264635  
     668A      4.268796   669A      4.281469   670A      4.290628  
     671A      4.300424   672A      4.304787   673A      4.310349  
     674A      4.315270   675A      4.335672   676A      4.348822  
     677A      4.360072   678A      4.369239   679A      4.371350  
     680A      4.386669   681A      4.402734   682A      4.416248  
     683A      4.429385   684A      4.434868   685A      4.448186  
     686A      4.449999   687A      4.467683   688A      4.483359  
     689A      4.488055   690A      4.504500   691A      4.506318  
     692A      4.519517   693A      4.533186   694A      4.560466  
     695A      4.576711   696A      4.588621   697A      4.591982  
     698A      4.613300   699A      4.626783   700A      4.633025  
     701A      4.642950   702A      4.644238   703A      4.670317  
     704A      4.673609   705A      4.685792   706A      4.693784  
     707A      4.701345   708A      4.736327   709A      4.752243  
     710A      4.761468   711A      4.763324   712A      4.785442  
     713A      4.807195   714A      4.811883   715A      4.816682  
     716A      4.824623   717A      4.829425   718A      4.846165  
     719A      4.860278   720A      4.869179   721A      4.899200  
     722A      4.900148   723A      4.913418   724A      4.915598  
     725A      4.933118   726A      4.936917   727A      4.952018  
     728A      4.955729   729A      4.980673   730A      5.000600  
     731A      5.007560   732A      5.016905   733A      5.024556  
     734A      5.034908   735A      5.040032   736A      5.049364  
     737A      5.059868   738A      5.071083   739A      5.089940  
     740A      5.101460   741A      5.107655   742A      5.132468  
     743A      5.162019   744A      5.171117   745A      5.193968  
     746A      5.196080   747A      5.208998   748A      5.210689  
     749A      5.226393   750A      5.254482   751A      5.263544  
     752A      5.268388   753A      5.287715   754A      5.323522  
     755A      5.334187   756A      5.364390   757A      5.380807  
     758A      5.383082   759A      5.407728   760A      5.427633  
     761A      5.457326   762A      5.486024   763A      5.504942  
     764A      5.522453   765A      5.556538   766A      5.567918  
     767A      5.592141   768A      5.603779   769A      5.622012  
     770A      5.635014   771A      5.659370   772A      5.680193  
     773A      5.688119   774A      5.692749   775A      5.704897  
     776A      5.748723   777A      5.776430   778A      5.830746  
     779A      5.835365   780A      5.884101   781A      5.904160  
     782A      5.928232   783A      5.970709   784A      5.979089  
     785A      6.005500   786A      6.041586   787A      6.085051  
     788A      6.138560   789A      6.160529   790A      6.167636  
     791A      6.191833   792A      6.234260   793A      6.277252  
     794A      6.332796   795A      6.350679   796A      6.405276  
     797A      6.408229   798A      6.459575   799A      6.515653  
     800A      6.557083   801A      6.587512   802A      6.640196  
     803A      6.649327   804A      6.694985   805A      6.742330  
     806A      6.778180   807A      6.808531   808A      6.830706  
     809A      6.845588   810A      6.908067   811A      6.964140  
     812A      7.017390   813A      7.190542   814A      7.243625  
     815A      7.308015   816A      7.322310   817A      7.434645  
     818A      7.446255   819A      7.473205   820A      7.535659  
     821A      7.566082   822A      7.766513   823A      7.851056  
     824A      8.065659   825A      8.505859   826A      8.889160  
     827A      8.930805   828A      9.152973   829A      9.174089  
     830A      9.292074   831A      9.401333   832A      9.425412  
     833A      9.472605   834A      9.524887   835A      9.599831  
     836A      9.913478   837A      9.961040   838A     15.832408  
     839A     16.081775   840A     16.444667   841A     16.512228  
     842A     16.847437   843A     17.100288   844A     18.735567  
     845A     19.121504   846A     19.562345   847A     19.799148  
     848A     20.073875   849A     20.228294   850A     20.497900  
     851A     21.693113  

    Final Occupation by Irrep:
              A 
    DOCC [    49 ]

  Energy converged.

  @DF-RHF Final Energy:  -650.55467374097009

   => Energetics <=

    Nuclear Repulsion Energy =            829.3017990602469354
    One-Electron Energy =               -2518.8680973661303142
    Two-Electron Energy =                1039.0116245649132907
    DFT Exchange-Correlation Energy =       0.0000000000000000
    Empirical Dispersion Energy =           0.0000000000000000
    PCM Polarization Energy =               0.0000000000000000
    EFP Energy =                            0.0000000000000000
    Total Energy =                       -650.5546737409699745



Properties will be evaluated at   0.000000,   0.000000,   0.000000 Bohr

Properties computed using the SCF density matrix

  Nuclear Dipole Moment: (a.u.)
     X:     1.4036      Y:     0.3531      Z:    -7.1533

  Electronic Dipole Moment: (a.u.)
     X:     1.8134      Y:    -1.4082      Z:     4.3998

  Dipole Moment: (a.u.)
     X:     3.2170      Y:    -1.0551      Z:    -2.7534     Total:     4.3639

  Dipole Moment: (Debye)
     X:     8.1768      Y:    -2.6818      Z:    -6.9986     Total:    11.0920


*** tstop() called on gpu-1-8.local at Sat Nov 11 18:25:56 2017
Module time:
	user time   =    1176.70 seconds =      19.61 minutes
	system time =     170.65 seconds =       2.84 minutes
	total time  =        573 seconds =       9.55 minutes
Total time:
	user time   =    1176.71 seconds =      19.61 minutes
	system time =     170.65 seconds =       2.84 minutes
	total time  =        573 seconds =       9.55 minutes

  //>>>>>>>>>>>>>>>>>>>>>>>>>>>>>>>>>>>//
  //               DFMP2               //
  //<<<<<<<<<<<<<<<<<<<<<<<<<<<<<<<<<<<//

   => Loading Basis Set <=

    Name: (AUG-CC-PVTZ AUX)
    Role: RIFIT
    Keyword: DF_BASIS_MP2
    atoms 1-11  entry C          line   147 file /cbio/jclab/home/chayas/anaconda/envs/py35/share/psi4/basis/aug-cc-pvtz-ri.gbs 
    atoms 12    entry N          line   205 file /cbio/jclab/home/chayas/anaconda/envs/py35/share/psi4/basis/aug-cc-pvtz-ri.gbs 
    atoms 13    entry O          line   263 file /cbio/jclab/home/chayas/anaconda/envs/py35/share/psi4/basis/aug-cc-pvtz-ri.gbs 
    atoms 14    entry F          line   321 file /cbio/jclab/home/chayas/anaconda/envs/py35/share/psi4/basis/aug-cc-pvtz-ri.gbs 
    atoms 15-23 entry H          line    29 file /cbio/jclab/home/chayas/anaconda/envs/py35/share/psi4/basis/aug-cc-pvtz-ri.gbs 

	 --------------------------------------------------------
	                          DF-MP2                         
	      2nd-Order Density-Fitted Moller-Plesset Theory     
	              RMP2 Wavefunction,   8 Threads             
	                                                         
	        Rob Parrish, Justin Turney, Andy Simmonett,      
	           Ed Hohenstein, and C. David Sherrill          
	 --------------------------------------------------------

   => Auxiliary Basis Set <=

  Basis Set: (AUG-CC-PVTZ AUX)
    Blend: AUG-CC-PVTZ-RI
    Number of shells: 518
    Number of basis function: 1898
    Number of Cartesian functions: 2399
    Spherical Harmonics?: true
    Max angular momentum: 4

	 --------------------------------------------------------
	                 NBF =   851, NAUX =  1898
	 --------------------------------------------------------
	   CLASS    FOCC     OCC    AOCC    AVIR     VIR    FVIR
	   PAIRS       0      49      49     802     802       0
	 --------------------------------------------------------


         ------------------------------------------------------------
                                     CPHF                           
                                  Rob Parrish                       
         ------------------------------------------------------------

  ==> Geometry <==

    Molecular point group: c1
    Full point group: C1

    Geometry (in Angstrom), charge = 1, multiplicity = 1:

       Center              X                  Y                   Z               Mass       
    ------------   -----------------  -----------------  -----------------  -----------------
           C         -1.338709473615     0.758947962781    -0.785134961311    12.000000000000
           C         -2.416709473615     1.331947962781    -0.112134961311    12.000000000000
           C          1.606290526385     0.351947962781    -1.603134961311    12.000000000000
           C          1.097290526385    -1.783052037219    -0.610134961311    12.000000000000
           C         -1.423709473615     0.715947962781     2.002865038689    12.000000000000
           C          2.670290526385    -0.245052037219    -2.265134961311    12.000000000000
           C          2.174290526385    -2.325052037219    -1.297134961311    12.000000000000
           C         -0.302709473615     0.163947962781    -0.065134961311    12.000000000000
           C          0.814290526385    -0.430052037219    -0.768134961311    12.000000000000
           C         -2.459709473615     1.310947962781     1.281865038689    12.000000000000
           C         -0.345709473615     0.142947962781     1.328865038689    12.000000000000
           N          2.920290526385    -1.550052037219    -2.095134961311    14.003074004780
           O         -3.512709473615     1.870947962781     1.938865038689    15.994914619560
           F          0.642290526385    -0.425052037219     2.035865038689    18.998403224000
           H         -1.319709473615     0.782947962781    -1.872134961311     1.007825032070
           H         -3.221709473615     1.792947962781    -0.679134961311     1.007825032070
           H          1.408290526385     1.409947962781    -1.745134961311     1.007825032070
           H          0.495290526385    -2.417052037219     0.034865038689     1.007825032070
           H         -1.451709473615     0.695947962781     3.088865038689     1.007825032070
           H          3.337290526385     0.283947962781    -2.932134961311     1.007825032070
           H          2.467290526385    -3.364052037219    -1.234134961311     1.007825032070
           H          3.706290526385    -1.969052037219    -2.591134961311     1.007825032070
           H         -3.250709473615     2.718947962781     2.331865038689     1.007825032070

  Nuclear repulsion =  829.301799060246935
  Reference energy  = -650.554673740970088

  ==> Basis Set <==

  Basis Set: AUG-CC-PVTZ
    Blend: AUG-CC-PVTZ
    Number of shells: 277
    Number of basis function: 851
    Number of Cartesian functions: 995
    Spherical Harmonics?: true
    Max angular momentum: 3

  ==> CGRSolver (by Rob Parrish) <==

   Number of roots    =         1
   Preconditioning    =    JACOBI
   Convergence cutoff =     1E-06
   Maximum iterations =       100

  ==> CPHFRHamiltonian (by Rob Parrish) <== 

  ==> DFJK: Density-Fitted J/K Matrices <==

    J tasked:                  Yes
    K tasked:                  Yes
    wK tasked:                  No
    OpenMP threads:              8
    Integrals threads:           8
    Memory (MB):              3576
    Algorithm:                Disk
    Integral Cache:           NONE
    Schwarz Cutoff:          1E-12
    Fitting Condition:       1E-12

   => Auxiliary Basis Set <=

  Basis Set: (AUG-CC-PVTZ AUX)
    Blend: AUG-CC-PVTZ-JKFIT
    Number of shells: 546
    Number of basis function: 1870
    Number of Cartesian functions: 2329
    Spherical Harmonics?: true
    Max angular momentum: 4

  ==> CPHF Iterations <==

  => Iterations <=

             Iter  Converged  Remaining    Residual
  CGR           1          0          1   1.150E-01
  CGR           2          0          1   4.563E-02
  CGR           3          0          1   2.697E-02
  CGR           4          0          1   8.660E-03
  CGR           5          0          1   3.451E-03
  CGR           6          0          1   1.385E-03
  CGR           7          0          1   4.723E-04
  CGR           8          0          1   2.182E-04
  CGR           9          0          1   1.015E-04
  CGR          10          0          1   3.848E-05
  CGR          11          0          1   1.533E-05
  CGR          12          0          1   5.072E-06
  CGR          13          0          1   1.853E-06
  CGR          14          1          0   6.398E-07

    CGRSolver converged.

  ==> DFCorrGrad: Density-Fitted Correlated Gradients <==

    OpenMP threads:              8
    Integrals threads:           8
    Memory (MB):              3576
    Schwarz Cutoff:          0E+00
    Fitting Condition:       1E-12

   => Auxiliary Basis Set <=

  Basis Set: (AUG-CC-PVTZ AUX)
    Blend: AUG-CC-PVTZ-JKFIT
    Number of shells: 546
    Number of basis function: 1870
    Number of Cartesian functions: 2329
    Spherical Harmonics?: true
    Max angular momentum: 4

	-----------------------------------------------------------
	 ==================> DF-MP2 Energies <==================== 
	-----------------------------------------------------------
	 Reference Energy          =    -650.5546737409700881 [Eh]
	 Singles Energy            =      -0.0000000000000001 [Eh]
	 Same-Spin Energy          =      -0.6686614417481506 [Eh]
	 Opposite-Spin Energy      =      -2.0132930151548796 [Eh]
	 Correlation Energy        =      -2.6819544569030302 [Eh]
	 Total Energy              =    -653.2366281978730740 [Eh]
	-----------------------------------------------------------
	 ================> DF-SCS-MP2 Energies <================== 
	-----------------------------------------------------------
	 SCS Same-Spin Scale       =       0.3333333333333333 [-]
	 SCS Opposite-Spin Scale   =       1.2000000000000000 [-]
	 SCS Same-Spin Energy      =      -0.2228871472493835 [Eh]
	 SCS Opposite-Spin Energy  =      -2.4159516181858556 [Eh]
	 SCS Correlation Energy    =      -2.6388387654352390 [Eh]
	 SCS Total Energy          =    -653.1935125064053409 [Eh]
	-----------------------------------------------------------


  -Total Gradient:
     Atom            X                  Y                   Z
    ------   -----------------  -----------------  -----------------
       1        0.008527732773    -0.007904285152    -0.007989342304
       2       -0.000496352043     0.002822906791     0.005988987997
       3       -0.010356728616     0.007929424093     0.009851582458
       4       -0.013911711169     0.006415436269     0.005359869583
       5       -0.007945243044     0.004863089913    -0.000710847512
       6        0.001963972127    -0.011433533834     0.003213713231
       7        0.006018317487     0.007788493634    -0.007634805574
       8       -0.001897112604     0.000833152319    -0.003217422303
       9        0.002579639842    -0.001644826511    -0.003720697704
      10       -0.011773257624    -0.002592886956     0.002732004338
      11        0.024198300573    -0.008274290981    -0.000126135161
      12        0.001213125972    -0.001130737974    -0.000811215722
      13        0.002081951067    -0.005933452354    -0.000812278191
      14       -0.000205453395    -0.000304043468     0.004831852101
      15       -0.001835728268     0.001566107595    -0.005471317453
      16       -0.003372788199     0.002290336277    -0.005310491790
      17       -0.001250638973     0.005437790191    -0.001476200753
      18       -0.003384341065    -0.003907262844     0.003729539536
      19       -0.000052413460    -0.000321419905     0.005420718837
      20        0.002125852292     0.000180500851    -0.002118319240
      21        0.001874172652    -0.002251722171    -0.000431306915
      22        0.004446003148    -0.002555610664    -0.002955989891
      23        0.001452700526     0.008126834877     0.001658102417


*** tstop() called on gpu-1-8.local at Sat Nov 11 19:08:45 2017
Module time:
	user time   =    6262.58 seconds =     104.38 minutes
	system time =     370.90 seconds =       6.18 minutes
	total time  =       3142 seconds =      52.37 minutes
Total time:
	user time   =    6262.59 seconds =     104.38 minutes
	system time =     370.90 seconds =       6.18 minutes
	total time  =       3142 seconds =      52.37 minutes

			-----------------------------------------
			 OPTKING 2.0: for geometry optimizations 
			  - R.A. King,  Bethel University        
			-----------------------------------------

	Internal coordinates to be generated automatically.
	Detected frag 1 with atoms:  1 2 3 4 5 6 7 8 9 10 11 12 13 14 15 16 17 18 19 20
	 21 22 23
	---Fragment 1 Bond Connectivity---
	 1 : 2 8 15
	 2 : 1 10 16
	 3 : 6 9 17
	 4 : 7 9 18
	 5 : 10 11 19
	 6 : 3 12 20
	 7 : 4 12 21
	 8 : 1 9 11
	 9 : 3 4 8
	 10 : 2 5 13
	 11 : 5 8 14
	 12 : 6 7 22
	 13 : 10 23
	 14 : 11
	 15 : 1
	 16 : 2
	 17 : 3
	 18 : 4
	 19 : 5
	 20 : 6
	 21 : 7
	 22 : 12
	 23 : 13

	Assuming in current code that numbering for constraints corresponds to unified fragment.
	Fixed dihedral atom list: 
	     2    10    13    23
	---Fragment 1 Geometry and Gradient---
	 C          -2.5297942766        1.4342037988       -1.4836900542
	 C          -4.5669190479        2.5170168729       -0.2119043668
	 C           3.0354491847        0.6650852627       -3.0294860309
	 C           2.0735785831       -3.3694800310       -1.1529879810
	 C          -2.6904209979        1.3529455751        3.7848664043
	 C           5.0461177901       -0.4630812386       -4.2804847309
	 C           4.1088136282       -4.3937115951       -2.4512298343
	 C          -0.5720380030        0.3098167497       -0.1230872386
	 C           1.5387860875       -0.8126805732       -1.4515647100
	 C          -4.6481772716        2.4773326241        2.4223738624
	 C          -0.6532962267        0.2701325009        2.5111909907
	 N           5.5185493233       -2.9291738421       -3.9592312883
	 O          -6.6380588895        3.5355792585        3.6639239317
	 F           1.2137531926       -0.8032319426        3.8472273666
	 H          -2.4938894801        1.4795572260       -3.5378223607
	 H          -6.0881485849        3.3881806202       -1.2833790841
	 H           2.6612834104        2.6644155113       -3.2978271418
	 H           0.9359634511       -4.5675663993        0.0658853747
	 H          -2.7433333296        1.3151510524        5.8371089846
	 H           6.3065651207        0.5365838856       -5.5409320615
	 H           4.6625033851       -6.3571370471       -2.3321770879
	 H           7.0038740638       -3.7209690917       -4.8965354502
	 H          -6.1429506427        5.1380670192        4.4065863020
	             0.0085277328       -0.0079042852       -0.0079893423
	            -0.0004963520        0.0028229068        0.0059889880
	            -0.0103567286        0.0079294241        0.0098515825
	            -0.0139117112        0.0064154363        0.0053598696
	            -0.0079452430        0.0048630899       -0.0007108475
	             0.0019639721       -0.0114335338        0.0032137132
	             0.0060183175        0.0077884936       -0.0076348056
	            -0.0018971126        0.0008331523       -0.0032174223
	             0.0025796398       -0.0016448265       -0.0037206977
	            -0.0117732576       -0.0025928870        0.0027320043
	             0.0241983006       -0.0082742910       -0.0001261352
	             0.0012131260       -0.0011307380       -0.0008112157
	             0.0020819511       -0.0059334524       -0.0008122782
	            -0.0002054534       -0.0003040435        0.0048318521
	            -0.0018357283        0.0015661076       -0.0054713175
	            -0.0033727882        0.0022903363       -0.0053104918
	            -0.0012506390        0.0054377902       -0.0014762008
	            -0.0033843411       -0.0039072628        0.0037295395
	            -0.0000524135       -0.0003214199        0.0054207188
	             0.0021258523        0.0001805009       -0.0021183192
	             0.0018741727       -0.0022517222       -0.0004313069
	             0.0044460031       -0.0025556107       -0.0029559899
	             0.0014527005        0.0081268349        0.0016581024

	Previous optimization step data not found.  Starting new optimization.

	---Fragment 1 Intrafragment Coordinates---
	 - Coordinate -           - BOHR/RAD -       - ANG/DEG -
	 R(1,2)           =         2.634350	       1.394038
	 R(1,8)           =         2.635962	       1.394891
	 R(1,15)          =         2.054947	       1.087431
	 R(2,10)          =         2.635830	       1.394821
	 R(2,16)          =         2.054537	       1.087214
	 R(3,6)           =         2.623079	       1.388074
	 R(3,9)           =         2.629378	       1.391407
	 R(3,17)          =         2.051665	       1.085694
	 R(4,7)           =         2.622339	       1.387682
	 R(4,9)           =         2.629140	       1.391281
	 R(4,18)          =         2.053103	       1.086455
	 R(5,10)          =         2.636938	       1.395407
	 R(5,11)          =         2.635263	       1.394521
	 R(5,19)          =         2.053272	       1.086545
	 R(6,12)          =         2.531404	       1.339561
	 R(6,20)          =         2.043719	       1.081489
	 R(7,12)          =         2.531066	       1.339382
	 R(7,21)          =         2.043474	       1.081360
	 R(8,9)           =         2.735038	       1.447320
	 R(8,11)          =         2.635830	       1.394821
	 R(10,13)         =         2.573123	       1.361638
	 R(11,14)         =         2.534359	       1.341125
	 R(12,22)         =         1.926569	       1.019496
	 R(13,23)         =         1.834297	       0.970668
	 B(1,2,10)        =         2.094553	     120.009056
	 B(1,2,16)        =         2.088723	     119.675016
	 B(1,8,9)         =         2.091569	     119.838095
	 B(1,8,11)        =         2.093692	     119.959722
	 B(2,1,8)         =         2.094940	     120.031219
	 B(2,1,15)        =         2.079469	     119.144799
	 B(2,10,5)        =         2.094306	     119.994870
	 B(2,10,13)       =         2.094247	     119.991510
	 B(3,6,12)        =         2.096160	     120.101096
	 B(3,6,20)        =         2.160978	     123.814942
	 B(3,9,4)         =         2.093156	     119.928982
	 B(3,9,8)         =         2.094542	     120.008404
	 B(4,7,12)        =         2.095824	     120.081885
	 B(4,7,21)        =         2.161239	     123.829863
	 B(4,9,8)         =         2.095488	     120.062613
	 B(5,10,13)       =         2.094633	     120.013619
	 B(5,11,8)        =         2.095181	     120.045019
	 B(5,11,14)       =         2.081414	     119.256220
	 B(6,3,9)         =         2.072362	     118.737620
	 B(6,3,17)        =         2.090402	     119.771194
	 B(6,12,7)        =         2.135730	     122.368334
	 B(6,12,22)       =         2.074333	     118.850498
	 B(7,4,9)         =         2.073138	     118.782073
	 B(7,4,18)        =         2.089816	     119.737652
	 B(7,12,22)       =         2.073122	     118.781161
	 B(8,1,15)        =         2.108776	     120.823969
	 B(8,11,14)       =         2.106591	     120.698759
	 B(9,3,17)        =         2.120421	     121.491171
	 B(9,4,18)        =         2.120230	     121.480258
	 B(9,8,11)        =         2.097924	     120.202184
	 B(10,2,16)       =         2.099909	     120.315896
	 B(10,5,11)       =         2.093699	     119.960108
	 B(10,5,19)       =         2.100355	     120.341451
	 B(10,13,23)      =         1.924010	     110.237639
	 B(11,5,19)       =         2.089132	     119.698439
	 B(12,6,20)       =         2.026047	     116.083959
	 B(12,7,21)       =         2.026122	     116.088250
	 D(1,2,10,5)      =        -0.000325	      -0.018609
	 D(1,2,10,13)     =         3.141388	     179.988267
	 D(1,8,9,3)       =         1.047203	      60.000294
	 D(1,8,9,4)       =        -2.094232	    -119.990639
	 D(1,8,11,5)      =         0.000325	       0.018608
	 D(1,8,11,14)     =        -3.141528	    -179.996269
	 D(2,1,8,9)       =         3.141277	     179.981897
	 D(2,1,8,11)      =        -0.000348	      -0.019945
	 D(2,10,5,11)     =         0.000301	       0.017261
	 D(2,10,5,19)     =        -3.141029	    -179.967685
	 D(2,10,13,23)    =        -1.832501	    -104.994578
	 D(3,6,12,7)      =        -0.000167	      -0.009589
	 D(3,6,12,22)     =         3.140892	     179.959844
	 D(3,9,4,7)       =        -0.000213	      -0.012204
	 D(3,9,4,18)      =        -3.140964	    -179.964007
	 D(3,9,8,11)      =        -2.094358	    -119.997860
	 D(4,7,12,6)      =         0.000492	       0.028196
	 D(4,7,12,22)     =        -3.140567	    -179.941258
	 D(4,9,3,6)       =         0.000525	       0.030092
	 D(4,9,3,17)      =         3.141327	     179.984799
	 D(4,9,8,11)      =         1.047393	      60.011207
	 D(5,10,2,16)     =         3.140149	     179.917291
	 D(5,10,13,23)    =         1.309212	      75.012299
	 D(5,11,8,9)      =        -3.141300	    -179.983240
	 D(6,3,9,8)       =        -3.140909	    -179.960854
	 D(6,12,7,21)     =        -3.140902	    -179.960420
	 D(7,4,9,8)       =         3.141222	     179.978736
	 D(7,12,6,20)     =         3.141065	     179.969740
	 D(8,1,2,10)      =         0.000348	       0.019955
	 D(8,1,2,16)      =        -3.140133	    -179.916358
	 D(8,9,3,17)      =        -0.000107	      -0.006146
	 D(8,9,4,18)      =         0.000470	       0.026933
	 D(8,11,5,10)     =        -0.000301	      -0.017270
	 D(8,11,5,19)     =         3.141030	     179.967774
	 D(9,3,6,12)      =        -0.000344	      -0.019721
	 D(9,3,6,20)      =        -3.141547	    -179.997375
	 D(9,4,7,12)      =        -0.000293	      -0.016764
	 D(9,4,7,21)      =         3.141085	     179.970928
	 D(9,8,1,15)      =         0.000403	       0.023110
	 D(9,8,11,14)     =         0.000033	       0.001883
	 D(10,2,1,15)     =         3.141234	     179.979432
	 D(10,5,11,14)    =         3.141547	     179.997392
	 D(11,5,10,13)    =        -3.141411	    -179.989616
	 D(11,8,1,15)     =        -3.141221	    -179.978731
	 D(12,6,3,17)     =        -3.141160	    -179.975226
	 D(12,7,4,18)     =         3.140474	     179.935898
	 D(13,10,2,16)    =        -0.001324	      -0.075833
	 D(13,10,5,19)    =         0.000444	       0.025437
	 D(14,11,5,19)    =        -0.000307	      -0.017564
	 D(15,1,2,16)     =         0.000753	       0.043120
	 D(17,3,6,20)     =         0.000822	       0.047120
	 D(18,4,7,21)     =        -0.001334	      -0.076410
	 D(20,6,12,22)    =        -0.001062	      -0.060827
	 D(21,7,12,22)    =         0.001224	       0.070126
	 R(4,14)          =         5.685691	       3.008738

	Current energy   :      -653.2366281979

	Generating empirical Hessian (Schlegel '84) for each fragment.
	Adding user-defined constraint: Fragment 1; Coordinate 72:
		Value =    -1.832501; Fixed value    =    -1.832596
		Force =    -0.000047; Force constant =     0.500000
	Removing off-diagonal coupling between coordinate 72 and others.
	Taking RFO optimization step.
	Going to follow RFO solution 1.
	Using RFO vector 1.

	Determining step-restricting scale parameter for RS-RFO.
	Maximum step size allowed    0.10000

	 Iter      |step|        alpha        rfo_root  
	------------------------------------------------
	    0     0.31632       1.00000           1
	    1     0.20764       3.79870           1
	    2     0.15027       9.17731           1
	    3     0.11999      17.82720           1
	    4     0.10515      26.99054           1
	    5     0.10048      31.18987           1
	    6     0.10000      31.66088           1
	------------------------------------------------
	Norm of target step-size    0.10000
	Projected energy change by RFO approximation:        -0.0041474406

	Back-transformation to cartesian coordinates...
	Successfully converged to displaced geometry.
	First geometry is closer to target in internal coordinates, so am using that one.
	First geometry has RMS(Delta(q)) = 1.10e-04

	--- Internal Coordinate Step in ANG or DEG, aJ/ANG or AJ/DEG ---
	 ---------------------------------------------------------------------------
	   Coordinate                Previous        Force       Change         New 
	   ----------                --------       ------       ------       ------
	    1 R(1,2)          =      1.394038    -0.073066    -0.007914     1.386124
	    2 R(1,8)          =      1.394891    -0.014905    -0.001415     1.393476
	    3 R(1,15)         =      1.087431    -0.045079    -0.006120     1.081310
	    4 R(2,10)         =      1.394821    -0.046291    -0.005077     1.389744
	    5 R(2,16)         =      1.087214    -0.051392    -0.006939     1.080275
	    6 R(3,6)          =      1.388074    -0.093869    -0.010091     1.377983
	    7 R(3,9)          =      1.391407     0.024853     0.002788     1.394194
	    8 R(3,17)         =      1.085694    -0.047128    -0.006377     1.079318
	    9 R(4,7)          =      1.387682    -0.094909    -0.010167     1.377515
	   10 R(4,9)          =      1.391281     0.033323     0.003815     1.395096
	   11 R(4,18)         =      1.086455    -0.052476    -0.007108     1.079347
	   12 R(5,10)         =      1.395407    -0.051655    -0.005750     1.389657
	   13 R(5,11)         =      1.394521    -0.122003    -0.013419     1.381102
	   14 R(5,19)         =      1.086545    -0.044698    -0.006039     1.080506
	   15 R(6,12)         =      1.339561     0.015117     0.001478     1.341039
	   16 R(6,20)         =      1.081489    -0.022293    -0.002958     1.078531
	   17 R(7,12)         =      1.339382     0.020309     0.001972     1.341354
	   18 R(7,21)         =      1.081360    -0.021801    -0.002891     1.078468
	   19 R(8,9)          =      1.447320     0.090811     0.011754     1.459073
	   20 R(8,11)         =      1.394821    -0.050561    -0.005157     1.389664
	   21 R(10,13)        =      1.361638     0.011726     0.001210     1.362848
	   22 R(11,14)        =      1.341125    -0.019199    -0.001686     1.339440
	   23 R(12,22)        =      1.019496    -0.048742    -0.005549     1.013947
	   24 R(13,23)        =      0.970668    -0.067256    -0.006589     0.964079
	   25 B(1,2,10)       =    120.009056    -0.000083    -0.156128   119.852929
	   26 B(1,2,16)       =    119.675016     0.000231     0.589564   120.264580
	   27 B(1,8,9)        =    119.838095     0.000363     0.670872   120.508967
	   28 B(1,8,11)       =    119.959722    -0.000600    -1.230957   118.728765
	   29 B(2,1,8)        =    120.031219     0.000209     0.518150   120.549369
	   30 B(2,1,15)       =    119.144799     0.000082     0.243934   119.388733
	   31 B(2,10,5)       =    119.994870     0.000069     0.133706   120.128577
	   32 B(2,10,13)      =    119.991510    -0.000143    -0.285112   119.706399
	   33 B(3,6,12)       =    120.101096    -0.000324    -0.734683   119.366413
	   34 B(3,6,20)       =    123.814942     0.000063     0.100833   123.915774
	   35 B(3,9,4)        =    119.928982    -0.000499    -1.047901   118.881081
	   36 B(3,9,8)        =    120.008404     0.000170     0.327941   120.336345
	   37 B(4,7,12)       =    120.081885    -0.000323    -0.723300   119.358585
	   38 B(4,7,21)       =    123.829863     0.000061     0.090597   123.920460
	   39 B(4,9,8)        =    120.062613     0.000328     0.719792   120.782405
	   40 B(5,10,13)      =    120.013619     0.000074     0.148088   120.161707
	   41 B(5,11,8)       =    120.045019     0.000628     1.253486   121.298505
	   42 B(5,11,14)      =    119.256220    -0.000023    -0.087545   119.168676
	   43 B(6,3,9)        =    118.737620     0.000421     0.915473   119.653092
	   44 B(6,3,17)       =    119.771194    -0.000188    -0.401244   119.369950
	   45 B(6,12,7)       =    122.368334     0.000327     0.718343   123.086676
	   46 B(6,12,22)      =    118.850498    -0.000171    -0.379358   118.471140
	   47 B(7,4,9)        =    118.782073     0.000397     0.872010   119.654083
	   48 B(7,4,18)       =    119.737652    -0.000180    -0.388321   119.349331
	   49 B(7,12,22)      =    118.781161    -0.000156    -0.338982   118.442178
	   50 B(8,1,15)       =    120.823969    -0.000291    -0.762547   120.061422
	   51 B(8,11,14)      =    120.698759    -0.000605    -1.166233   119.532526
	   52 B(9,3,17)       =    121.491171    -0.000233    -0.514243   120.976928
	   53 B(9,4,18)       =    121.480258    -0.000218    -0.483684   120.996574
	   54 B(9,8,11)       =    120.202184     0.000238     0.560081   120.762264
	   55 B(10,2,16)      =    120.315896    -0.000147    -0.433674   119.882222
	   56 B(10,5,11)      =    119.960108    -0.000222    -0.518486   119.441622
	   57 B(10,5,19)      =    120.341451     0.000097     0.221610   120.563061
	   58 B(10,13,23)     =    110.237639    -0.000029    -0.075457   110.162183
	   59 B(11,5,19)      =    119.698439     0.000125     0.296677   119.995116
	   60 B(12,6,20)      =    116.083959     0.000261     0.633638   116.717596
	   61 B(12,7,21)      =    116.088250     0.000262     0.632673   116.720923
	   62 D(1,2,10,5)     =     -0.018609    -0.000007    -0.110706    -0.129314
	   63 D(1,2,10,13)    =    179.988267     0.000025     0.543858   180.532125
	   64 D(1,8,9,3)      =     60.000294    -0.000046    -1.123189    58.877106
	   65 D(1,8,9,4)      =   -119.990639    -0.000041    -0.981281  -120.971920
	   66 D(1,8,11,5)     =      0.018608    -0.000003    -0.063427    -0.044819
	   67 D(1,8,11,14)    =   -179.996269     0.000005     0.150279  -179.845990
	   68 D(2,1,8,9)      =    179.981897    -0.000004    -0.094241   179.887656
	   69 D(2,1,8,11)     =     -0.019945    -0.000002    -0.069548    -0.089493
	   70 D(2,10,5,11)    =      0.017261     0.000001    -0.020185    -0.002924
	   71 D(2,10,5,19)    =   -179.967685     0.000007     0.127811  -179.839874
	   72 D(2,10,13,23)   =   -104.994578    -0.000022    -0.161291  -105.155868
	   73 D(3,6,12,7)     =     -0.009589     0.000003     0.067606     0.058017
	   74 D(3,6,12,22)    =    179.959844     0.000003     0.072774   180.032619
	   75 D(3,9,4,7)      =     -0.012204     0.000002     0.065733     0.053529
	   76 D(3,9,4,18)     =   -179.964007     0.000002     0.058344  -179.905663
	   77 D(3,9,8,11)     =   -119.997860    -0.000048    -1.148354  -121.146214
	   78 D(4,7,12,6)     =      0.028196    -0.000000    -0.011069     0.017127
	   79 D(4,7,12,22)    =   -179.941258    -0.000001    -0.016225  -179.957482
	   80 D(4,9,3,6)      =      0.030092     0.000000    -0.009629     0.020463
	   81 D(4,9,3,17)     =    179.984799     0.000005     0.098472   180.083271
	   82 D(4,9,8,11)     =     60.011207    -0.000043    -1.006446    59.004761
	   83 D(5,10,2,16)    =    179.917291    -0.000012    -0.234772   179.682519
	   84 D(5,10,13,23)   =     75.012299     0.000010     0.493494    75.505793
	   85 D(5,11,8,9)     =   -179.983240    -0.000001    -0.038668  -180.021908
	   86 D(6,3,9,8)      =   -179.960854     0.000005     0.129445  -179.831408
	   87 D(6,12,7,21)    =   -179.960420    -0.000003    -0.083698  -180.044118
	   88 D(7,4,9,8)      =    179.978736    -0.000002    -0.074019   179.904718
	   89 D(7,12,6,20)    =    179.969740    -0.000003    -0.074373   179.895367
	   90 D(8,1,2,10)     =      0.019955     0.000007     0.156266     0.176221
	   91 D(8,1,2,16)     =   -179.916358     0.000012     0.281474  -179.634884
	   92 D(8,9,3,17)     =     -0.006146     0.000009     0.237546     0.231399
	   93 D(8,9,4,18)     =      0.026933    -0.000003    -0.081408    -0.054474
	   94 D(8,11,5,10)    =     -0.017270     0.000003     0.107997     0.090727
	   95 D(8,11,5,19)    =    179.967774    -0.000003    -0.039155   179.928618
	   96 D(9,3,6,12)     =     -0.019721    -0.000003    -0.055903    -0.075624
	   97 D(9,3,6,20)     =   -179.997375     0.000004     0.096822  -179.900553
	   98 D(9,4,7,12)     =     -0.016764    -0.000002    -0.056183    -0.072947
	   99 D(9,4,7,21)     =    179.970928     0.000001     0.022048   179.992976
	  100 D(9,8,1,15)     =      0.023110     0.000005     0.117123     0.140233
	  101 D(9,8,11,14)    =      0.001883     0.000006     0.175038     0.176921
	  102 D(10,2,1,15)    =    179.979432    -0.000002    -0.054101   179.925331
	  103 D(10,5,11,14)   =    179.997392    -0.000004    -0.104785   179.892607
	  104 D(11,5,10,13)   =   -179.989616    -0.000030    -0.677781  -180.667397
	  105 D(11,8,1,15)    =   -179.978731     0.000007     0.141815  -179.836916
	  106 D(12,6,3,17)    =   -179.975226    -0.000007    -0.162190  -180.137416
	  107 D(12,7,4,18)    =    179.935898    -0.000002    -0.048977   179.886921
	  108 D(13,10,2,16)   =     -0.075833     0.000020     0.419791     0.343958
	  109 D(13,10,5,19)   =      0.025437    -0.000025    -0.529784    -0.504347
	  110 D(14,11,5,19)   =     -0.017564    -0.000010    -0.251938    -0.269501
	  111 D(15,1,2,16)    =      0.043120     0.000003     0.071106     0.114226
	  112 D(17,3,6,20)    =      0.047120    -0.000000    -0.009464     0.037655
	  113 D(18,4,7,21)    =     -0.076410     0.000001     0.029254    -0.047156
	  114 D(20,6,12,22)   =     -0.060827    -0.000003    -0.069205    -0.130031
	  115 D(21,7,12,22)   =      0.070126    -0.000004    -0.088853    -0.018727
	  116 R(4,14)         =      3.008738    -0.009944    -0.005309     3.003429
	 ---------------------------------------------------------------------------
	Successfully symmetrized geometry.
	 Forces used to impose fixed constraints are not included.
	  Forces zeroed: 72 

  ==> Convergence Check <==

  Measures of convergence in internal coordinates in au.
  Criteria marked as inactive (o), active & met (*), and active & unmet ( ).
  --------------------------------------------------------------------------------------------- ~
   Step     Total Energy     Delta E     MAX Force     RMS Force      MAX Disp      RMS Disp    ~
  --------------------------------------------------------------------------------------------- ~
    Convergence Criteria    1.00e-06 *    3.00e-04 *             o    1.20e-03 *             o  ~
  --------------------------------------------------------------------------------------------- ~
      1    -653.23662820   -6.53e+02      1.48e-02      3.81e-03 o    2.54e-02      9.28e-03 o  ~
  ---------------------------------------------------------------------------------------------

	Writing optimization data to binary file.
	Structure for next step:
	Cartesian Geometry (in Angstrom)
	    C    -1.3423314363   0.7764106391  -0.7730386230
	    C    -2.4140258258   1.3470205546  -0.1042964403
	    C     1.6123748511   0.3369146798  -1.6175538652
	    C     1.1188378585  -1.7872576783  -0.6109444377
	    C    -1.4319103388   0.7146180278   2.0020798193
	    C     2.6706342412  -0.2473673228  -2.2790212247
	    C     2.1866248908  -2.3324789016  -1.2892602536
	    C    -0.3078556476   0.1684182746  -0.0645319022
	    C     0.8186195624  -0.4340999606  -0.7694576447
	    C    -2.4580686557   1.3172162024   1.2844295741
	    C    -0.3711547711   0.1473346719   1.3235299499
	    N     2.9219343824  -1.5517101746  -2.0948350883
	    O    -3.5184834461   1.8695280038   1.9385146638
	    F     0.6160116112  -0.4301208530   2.0207716350
	    H    -1.3163111790   0.8027931442  -1.8537139896
	    H    -3.2164031940   1.8119775074  -0.6583726406
	    H     1.4114263096   1.3871970220  -1.7640227740
	    H     0.5261409856  -2.4160701699   0.0358136424
	    H    -1.4602735947   0.6851718823   3.0818118979
	    H     3.3287701099   0.2834219159  -2.9486100332
	    H     2.4798639648  -3.3678407107  -1.2176297765
	    H     3.7042729046  -1.9675688777  -2.5878837485
	    H    -3.2630114761   2.7102952673   2.3351171496
			--------------------------
			 OPTKING Finished Execution 
			--------------------------

    Structure for next step:
    Molecular point group: c1
    Full point group: C1

    Geometry (in Angstrom), charge = 1, multiplicity = 1:

    C           -1.339879885182     0.776346484899    -0.771280111026
    C           -2.411574274638     1.346956400401    -0.102537928336
    C            1.614826402280     0.336850525567    -1.615795353169
    C            1.121289409685    -1.787321832538    -0.609185925681
    C           -1.429458787646     0.714553873597     2.003838331262
    C            2.673085792385    -0.247431476969    -2.277262712727
    C            2.189076441937    -2.332543055837    -1.287501741577
    C           -0.305404096455     0.168354120389    -0.062773390246
    C            0.821071113546    -0.434164114861    -0.767699132665
    C           -2.455617104553     1.317152048220     1.286188086118
    C           -0.368703219912     0.147270517721     1.325288461899
    N            2.924385933599    -1.551774328792    -2.093076576328
    O           -3.516031894980     1.869463849622     1.940273175839
    F            0.618463162355    -0.430185007255     2.022530146966
    H           -1.313859627817     0.802728989956    -1.851955477615
    H           -3.213951642891     1.811913353231    -0.656614128581
    H            1.413877860713     1.387132867819    -1.762264262038
    H            0.528592536776    -2.416134324132     0.037572154425
    H           -1.457822043501     0.685107728079     3.083570409895
    H            3.331221661016     0.283357761640    -2.946851521223
    H            2.482315515933    -3.367904864871    -1.215871264546
    H            3.706724455733    -1.967633031930    -2.586125236535
    H           -3.260559924929     2.710231113079     2.336875661566

gradient() will perform analytic gradient computation.

*** tstart() called on gpu-1-8.local
*** at Sat Nov 11 19:08:47 2017

    SCF Algorithm Type (re)set to DF.

*** tstart() called on gpu-1-8.local
*** at Sat Nov 11 19:08:47 2017

   => Loading Basis Set <=

    Name: AUG-CC-PVTZ
    Role: ORBITAL
    Keyword: BASIS
    atoms 1-11  entry C          line   221 file /cbio/jclab/home/chayas/anaconda/envs/py35/share/psi4/basis/aug-cc-pvtz.gbs 
    atoms 12    entry N          line   267 file /cbio/jclab/home/chayas/anaconda/envs/py35/share/psi4/basis/aug-cc-pvtz.gbs 
    atoms 13    entry O          line   313 file /cbio/jclab/home/chayas/anaconda/envs/py35/share/psi4/basis/aug-cc-pvtz.gbs 
    atoms 14    entry F          line   359 file /cbio/jclab/home/chayas/anaconda/envs/py35/share/psi4/basis/aug-cc-pvtz.gbs 
    atoms 15-23 entry H          line    34 file /cbio/jclab/home/chayas/anaconda/envs/py35/share/psi4/basis/aug-cc-pvtz.gbs 


         ---------------------------------------------------------
                                   SCF
            by Justin Turney, Rob Parrish, and Andy Simmonett
                              RHF Reference
                        8 Threads,   4768 MiB Core
         ---------------------------------------------------------

  ==> Geometry <==

    Molecular point group: c1
    Full point group: C1

    Geometry (in Angstrom), charge = 1, multiplicity = 1:

       Center              X                  Y                   Z               Mass       
    ------------   -----------------  -----------------  -----------------  -----------------
           C         -1.339879885182     0.776346484899    -0.771280111026    12.000000000000
           C         -2.411574274638     1.346956400401    -0.102537928336    12.000000000000
           C          1.614826402280     0.336850525567    -1.615795353169    12.000000000000
           C          1.121289409685    -1.787321832538    -0.609185925681    12.000000000000
           C         -1.429458787646     0.714553873597     2.003838331262    12.000000000000
           C          2.673085792385    -0.247431476969    -2.277262712727    12.000000000000
           C          2.189076441937    -2.332543055837    -1.287501741577    12.000000000000
           C         -0.305404096455     0.168354120389    -0.062773390246    12.000000000000
           C          0.821071113546    -0.434164114861    -0.767699132665    12.000000000000
           C         -2.455617104553     1.317152048220     1.286188086118    12.000000000000
           C         -0.368703219912     0.147270517721     1.325288461899    12.000000000000
           N          2.924385933599    -1.551774328792    -2.093076576328    14.003074004780
           O         -3.516031894980     1.869463849622     1.940273175839    15.994914619560
           F          0.618463162355    -0.430185007255     2.022530146966    18.998403224000
           H         -1.313859627817     0.802728989956    -1.851955477615     1.007825032070
           H         -3.213951642891     1.811913353231    -0.656614128581     1.007825032070
           H          1.413877860713     1.387132867819    -1.762264262038     1.007825032070
           H          0.528592536776    -2.416134324132     0.037572154425     1.007825032070
           H         -1.457822043501     0.685107728079     3.083570409895     1.007825032070
           H          3.331221661016     0.283357761640    -2.946851521223     1.007825032070
           H          2.482315515933    -3.367904864871    -1.215871264546     1.007825032070
           H          3.706724455733    -1.967633031930    -2.586125236535     1.007825032070
           H         -3.260559924929     2.710231113079     2.336875661566     1.007825032070

  Running in c1 symmetry.

  Rotational constants: A =      0.06346  B =      0.01284  C =      0.01146 [cm^-1]
  Rotational constants: A =   1902.54213  B =    384.91980  C =    343.69973 [MHz]
  Nuclear repulsion =  830.108826582261372

  Charge       = 1
  Multiplicity = 1
  Electrons    = 98
  Nalpha       = 49
  Nbeta        = 49

  ==> Algorithm <==

  SCF Algorithm Type is DF.
  DIIS enabled.
  MOM disabled.
  Fractional occupation disabled.
  Guess Type is READ.
  Energy threshold   = 1.00e-10
  Density threshold  = 1.00e-10
  Integral threshold = 0.00e+00

  ==> Primary Basis <==

  Basis Set: AUG-CC-PVTZ
    Blend: AUG-CC-PVTZ
    Number of shells: 277
    Number of basis function: 851
    Number of Cartesian functions: 995
    Spherical Harmonics?: true
    Max angular momentum: 3

   => Loading Basis Set <=

    Name: (AUG-CC-PVTZ AUX)
    Role: JKFIT
    Keyword: DF_BASIS_SCF
    atoms 1-11  entry C          line   161 file /cbio/jclab/home/chayas/anaconda/envs/py35/share/psi4/basis/aug-cc-pvtz-jkfit.gbs 
    atoms 12    entry N          line   223 file /cbio/jclab/home/chayas/anaconda/envs/py35/share/psi4/basis/aug-cc-pvtz-jkfit.gbs 
    atoms 13    entry O          line   285 file /cbio/jclab/home/chayas/anaconda/envs/py35/share/psi4/basis/aug-cc-pvtz-jkfit.gbs 
    atoms 14    entry F          line   347 file /cbio/jclab/home/chayas/anaconda/envs/py35/share/psi4/basis/aug-cc-pvtz-jkfit.gbs 
    atoms 15-23 entry H          line    69 file /cbio/jclab/home/chayas/anaconda/envs/py35/share/psi4/basis/aug-cc-pvtz-jkfit.gbs 

  Reading orbitals from file 180, no projection.

  ==> Pre-Iterations <==

   -------------------------------------------------------
    Irrep   Nso     Nmo     Nalpha   Nbeta   Ndocc  Nsocc
   -------------------------------------------------------
     A        851     851       0       0       0       0
   -------------------------------------------------------
    Total     851     851      49      49      49       0
   -------------------------------------------------------

  ==> Integral Setup <==

  ==> DFJK: Density-Fitted J/K Matrices <==

    J tasked:                  Yes
    K tasked:                  Yes
    wK tasked:                  No
    OpenMP threads:              8
    Integrals threads:           8
    Memory (MB):              3576
    Algorithm:                Disk
    Integral Cache:           NONE
    Schwarz Cutoff:          1E-12
    Fitting Condition:       1E-12

   => Auxiliary Basis Set <=

  Basis Set: (AUG-CC-PVTZ AUX)
    Blend: AUG-CC-PVTZ-JKFIT
    Number of shells: 546
    Number of basis function: 1870
    Number of Cartesian functions: 2329
    Spherical Harmonics?: true
    Max angular momentum: 4

  Minimum eigenvalue in the overlap matrix is 7.0002291305E-07.
  Using Symmetric Orthogonalization.

  SCF Guess: Orbitals guess was supplied from a previous computation.

  ==> Iterations <==

                           Total Energy        Delta E     RMS |[F,P]|

   @DF-RHF iter   0:  -650.60609617327020   -6.50606e+02   3.01512e-04 
   @DF-RHF iter   1:  -650.55914699001175    4.69492e-02   4.81482e-05 
   @DF-RHF iter   2:  -650.55935419338573   -2.07203e-04   3.64755e-05 DIIS
   @DF-RHF iter   3:  -650.55947248519169   -1.18292e-04   6.68076e-06 DIIS
   @DF-RHF iter   4:  -650.55947871995079   -6.23476e-06   2.66395e-06 DIIS
   @DF-RHF iter   5:  -650.55948026436613   -1.54442e-06   9.46569e-07 DIIS
   @DF-RHF iter   6:  -650.55948054916541   -2.84799e-07   4.82301e-07 DIIS
   @DF-RHF iter   7:  -650.55948062963273   -8.04673e-08   2.06747e-07 DIIS
   @DF-RHF iter   8:  -650.55948065159339   -2.19607e-08   8.28771e-08 DIIS
   @DF-RHF iter   9:  -650.55948065509870   -3.50531e-09   3.48464e-08 DIIS
   @DF-RHF iter  10:  -650.55948065546545   -3.66754e-10   1.02703e-08 DIIS
   @DF-RHF iter  11:  -650.55948065551229   -4.68390e-11   2.61327e-09 DIIS
   @DF-RHF iter  12:  -650.55948065551172    5.68434e-13   1.21789e-09 DIIS
   @DF-RHF iter  13:  -650.55948065553036   -1.86446e-11   6.41167e-10 DIIS
   @DF-RHF iter  14:  -650.55948065554560   -1.52340e-11   2.61942e-10 DIIS
   @DF-RHF iter  15:  -650.55948065550831    3.72893e-11   1.18921e-10 DIIS
   @DF-RHF iter  16:  -650.55948065548876    1.95541e-11   5.44085e-11 DIIS

  ==> Post-Iterations <==

    Orbital Energies (a.u.)
    -----------------------

    Doubly Occupied:                                                      

       1A    -26.440900     2A    -20.689801     3A    -15.843539  
       4A    -11.490514     5A    -11.488742     6A    -11.463714  
       7A    -11.456739     8A    -11.428304     9A    -11.421726  
      10A    -11.420366    11A    -11.383022    12A    -11.380827  
      13A    -11.357226    14A    -11.352455    15A     -1.760987  
      16A     -1.519559    17A     -1.510756    18A     -1.325559  
      19A     -1.274358    20A     -1.247262    21A     -1.165594  
      22A     -1.153305    23A     -1.073076    24A     -1.064480  
      25A     -0.986640    26A     -0.972308    27A     -0.964865  
      28A     -0.888833    29A     -0.876364    30A     -0.862423  
      31A     -0.846822    32A     -0.827945    33A     -0.822378  
      34A     -0.808876    35A     -0.803161    36A     -0.781821  
      37A     -0.757680    38A     -0.750982    39A     -0.737224  
      40A     -0.717719    41A     -0.713883    42A     -0.671385  
      43A     -0.654877    44A     -0.630095    45A     -0.601440  
      46A     -0.582303    47A     -0.544372    48A     -0.470974  
      49A     -0.458209  

    Virtual:                                                              

      50A     -0.108893    51A     -0.087001    52A     -0.066299  
      53A     -0.063989    54A     -0.058606    55A     -0.051247  
      56A     -0.043295    57A     -0.039016    58A     -0.035788  
      59A     -0.030015    60A     -0.024006    61A     -0.019787  
      62A     -0.014482    63A     -0.010141    64A     -0.006675  
      65A     -0.004620    66A      0.002264    67A      0.005645  
      68A      0.008657    69A      0.011648    70A      0.014969  
      71A      0.017951    72A      0.023698    73A      0.026459  
      74A      0.029882    75A      0.033262    76A      0.034859  
      77A      0.038517    78A      0.041222    79A      0.044017  
      80A      0.047225    81A      0.051190    82A      0.053854  
      83A      0.060061    84A      0.064151    85A      0.067481  
      86A      0.070960    87A      0.074641    88A      0.080608  
      89A      0.082704    90A      0.086949    91A      0.091767  
      92A      0.093211    93A      0.101567    94A      0.105651  
      95A      0.110947    96A      0.116639    97A      0.117735  
      98A      0.123410    99A      0.127742   100A      0.133081  
     101A      0.135375   102A      0.138901   103A      0.141393  
     104A      0.143896   105A      0.150018   106A      0.153158  
     107A      0.157435   108A      0.159290   109A      0.163378  
     110A      0.167246   111A      0.169281   112A      0.172117  
     113A      0.176837   114A      0.181785   115A      0.187806  
     116A      0.193010   117A      0.196293   118A      0.196592  
     119A      0.197866   120A      0.205569   121A      0.209029  
     122A      0.211822   123A      0.215237   124A      0.220556  
     125A      0.221938   126A      0.228110   127A      0.230130  
     128A      0.234554   129A      0.236614   130A      0.242932  
     131A      0.248615   132A      0.252386   133A      0.253099  
     134A      0.255540   135A      0.258278   136A      0.260505  
     137A      0.269531   138A      0.271720   139A      0.275964  
     140A      0.281108   141A      0.281975   142A      0.288135  
     143A      0.290747   144A      0.296499   145A      0.305184  
     146A      0.306995   147A      0.313810   148A      0.317806  
     149A      0.319059   150A      0.321974   151A      0.323741  
     152A      0.328745   153A      0.332939   154A      0.334893  
     155A      0.336636   156A      0.343481   157A      0.346336  
     158A      0.348643   159A      0.351029   160A      0.352956  
     161A      0.360318   162A      0.369837   163A      0.369962  
     164A      0.371141   165A      0.377169   166A      0.381603  
     167A      0.383295   168A      0.385144   169A      0.386189  
     170A      0.392149   171A      0.396736   172A      0.402222  
     173A      0.403420   174A      0.407965   175A      0.412062  
     176A      0.412874   177A      0.421221   178A      0.422361  
     179A      0.425624   180A      0.427356   181A      0.428570  
     182A      0.436696   183A      0.439746   184A      0.446622  
     185A      0.449800   186A      0.454901   187A      0.456834  
     188A      0.468075   189A      0.471215   190A      0.475320  
[...]
	 B(12,7,21)       =         2.041028	     116.942290
	 D(1,2,10,5)      =        -0.006787	      -0.388863
	 D(1,2,10,13)     =        -3.089410	    -177.010126
	 D(1,8,9,3)       =         0.560458	      32.111853
	 D(1,8,9,4)       =        -2.563858	    -146.898244
	 D(1,8,11,5)      =        -0.001214	      -0.069547
	 D(1,8,11,14)     =        -3.109904	    -178.184382
	 D(2,1,8,9)       =         3.132947	     179.504647
	 D(2,1,8,11)      =        -0.006936	      -0.397403
	 D(2,10,5,11)     =        -0.001112	      -0.063723
	 D(2,10,5,19)     =        -3.137593	    -179.770812
	 D(2,10,13,23)    =        -1.834498	    -105.108999
	 D(3,6,12,7)      =         0.000882	       0.050514
	 D(3,6,12,22)     =        -3.137704	    -179.777177
	 D(3,9,4,7)       =        -0.003627	      -0.207797
	 D(3,9,4,18)      =        -3.123144	    -178.942972
	 D(3,9,8,11)      =        -2.582939	    -147.991503
	 D(4,7,12,6)      =        -0.002637	      -0.151111
	 D(4,7,12,22)     =         3.135948	     179.676603
	 D(4,9,3,6)       =         0.001889	       0.108254
	 D(4,9,3,17)      =        -3.107737	    -178.060241
	 D(4,9,8,11)      =         0.575931	      32.998400
	 D(5,10,2,16)     =         3.117674	     178.629534
	 D(5,10,13,23)    =         1.366225	      78.278947
	 D(5,11,8,9)      =        -3.141067	    -179.969896
	 D(6,3,9,8)       =        -3.123311	    -178.952558
	 D(6,12,7,21)     =         3.131716	     179.434131
	 D(7,4,9,8)       =         3.121206	     178.831924
	 D(7,12,6,20)     =         3.130573	     179.368627
	 D(8,1,2,10)      =         0.010966	       0.628295
	 D(8,1,2,16)      =        -3.113144	    -178.370013
	 D(8,9,3,17)      =         0.050247	       2.878946
	 D(8,9,4,18)      =         0.001689	       0.096749
	 D(8,11,5,10)     =         0.005167	       0.296031
	 D(8,11,5,19)     =        -3.141491	    -179.994181
	 D(9,3,6,12)      =        -0.000532	      -0.030469
	 D(9,3,6,20)      =        -3.129380	    -179.300291
	 D(9,4,7,12)      =         0.004032	       0.231010
	 D(9,4,7,21)      =        -3.129823	    -179.325649
	 D(9,8,1,15)      =         0.038390	       2.199568
	 D(9,8,11,14)     =         0.033428	       1.915269
	 D(10,2,1,15)     =         3.105657	     177.941046
	 D(10,5,11,14)    =         3.114150	     178.427627
	 D(11,5,10,13)    =         3.080940	     176.524866
	 D(11,8,1,15)     =        -3.101493	    -177.702482
	 D(12,6,3,17)     =         3.109795	     178.178154
	 D(12,7,4,18)     =         3.124088	     178.997068
	 D(13,10,2,16)    =         0.035051	       2.008270
	 D(13,10,5,19)    =        -0.055540	      -3.182223
	 D(14,11,5,19)    =        -0.032508	      -1.862585
	 D(15,1,2,16)     =        -0.018453	      -1.057262
	 D(17,3,6,20)     =        -0.019053	      -1.091668
	 D(18,4,7,21)     =        -0.009767	      -0.559590
	 D(20,6,12,22)    =        -0.008012	      -0.459064
	 D(21,7,12,22)    =        -0.012883	      -0.738155
	 R(4,14)          =         5.222390	       2.763570

	Current energy   :      -653.2432391688

	Energy change for the previous step:
		Projected    :        -0.0000000540
		Actual       :         0.0000001438

	Performing BFGS update.
	Previous computed or guess Hessian on step 1.
	Steps to be used in Hessian update: 14 13
	Adding user-defined constraint: Fragment 1; Coordinate 72:
		Value =    -1.834498; Fixed value    =    -1.832600
		Force =     0.001613; Force constant =     0.850000
	Removing off-diagonal coupling between coordinate 72 and others.
	Taking RFO optimization step.
	Going to follow RFO solution 1.
	Rejecting RFO root 1 because normalization gives large value.
	Using RFO vector 2.
	Norm of target step-size    0.00207
	Projected energy change by RFO approximation:        -0.0000000094

	Back-transformation to cartesian coordinates...
	Successfully converged to displaced geometry.

	--- Internal Coordinate Step in ANG or DEG, aJ/ANG or AJ/DEG ---
	 ---------------------------------------------------------------------------
	   Coordinate                Previous        Force       Change         New 
	   ----------                --------       ------       ------       ------
	    1 R(1,2)          =      1.379255     0.000099     0.000005     1.379260
	    2 R(1,8)          =      1.399875     0.000376     0.000064     1.399939
	    3 R(1,15)         =      1.079526     0.000028     0.000005     1.079531
	    4 R(2,10)         =      1.390978     0.000319     0.000046     1.391024
	    5 R(2,16)         =      1.077926     0.000090     0.000017     1.077942
	    6 R(3,6)          =      1.372596     0.000076     0.000007     1.372603
	    7 R(3,9)          =      1.399876     0.000435     0.000067     1.399944
	    8 R(3,17)         =      1.077583     0.000067     0.000012     1.077595
	    9 R(4,7)          =      1.373337     0.000071     0.000007     1.373343
	   10 R(4,9)          =      1.400521     0.000194     0.000029     1.400550
	   11 R(4,18)         =      1.075796     0.000078     0.000017     1.075813
	   12 R(5,10)         =      1.388387     0.000261     0.000031     1.388418
	   13 R(5,11)         =      1.375156     0.000082     0.000012     1.375167
	   14 R(5,19)         =      1.077989     0.000095     0.000017     1.078006
	   15 R(6,12)         =      1.342392     0.000375     0.000045     1.342436
	   16 R(6,20)         =      1.077128     0.000107     0.000019     1.077148
	   17 R(7,12)         =      1.342279     0.000317     0.000033     1.342312
	   18 R(7,21)         =      1.077154     0.000118     0.000021     1.077175
	   19 R(8,9)          =      1.448556    -0.000131    -0.000023     1.448533
	   20 R(8,11)         =      1.394015     0.000183     0.000030     1.394045
	   21 R(10,13)        =      1.362583     0.000041     0.000005     1.362588
	   22 R(11,14)        =      1.344166     0.000154     0.000021     1.344187
	   23 R(12,22)        =      1.012213    -0.000014    -0.000003     1.012211
	   24 R(13,23)        =      0.962833     0.000198     0.000024     0.962856
	   25 B(1,2,10)       =    119.835011    -0.000001    -0.002297   119.832714
	   26 B(1,2,16)       =    121.080548    -0.000000    -0.000369   121.080179
	   27 B(1,8,9)        =    120.729925    -0.000000    -0.004581   120.725344
	   28 B(1,8,11)       =    116.932270    -0.000000    -0.003767   116.928503
	   29 B(2,1,8)        =    121.432162     0.000000     0.003765   121.435927
	   30 B(2,1,15)       =    119.111293     0.000000    -0.000140   119.111152
	   31 B(2,10,5)       =    120.112147     0.000000    -0.000112   120.112035
	   32 B(2,10,13)      =    119.421529     0.000000     0.001298   119.422827
	   33 B(3,6,12)       =    119.278671    -0.000000    -0.000833   119.277838
	   34 B(3,6,20)       =    123.700106    -0.000000    -0.002968   123.697139
	   35 B(3,9,4)        =    117.190665    -0.000000    -0.002947   117.187718
	   36 B(3,9,8)        =    120.359151    -0.000001    -0.004216   120.354935
	   37 B(4,7,12)       =    119.566990    -0.000000    -0.001287   119.565702
	   38 B(4,7,21)       =    123.489324    -0.000000    -0.002951   123.486373
	   39 B(4,9,8)        =    122.443184     0.000001     0.007783   122.450966
	   40 B(5,10,13)      =    120.379300    -0.000000    -0.001094   120.378206
	   41 B(5,11,8)       =    122.760670     0.000000     0.001340   122.762010
	   42 B(5,11,14)      =    118.137788     0.000001    -0.002600   118.135188
	   43 B(6,3,9)        =    120.838794    -0.000000     0.001295   120.840089
	   44 B(6,3,17)       =    118.450261     0.000000    -0.001214   118.449046
	   45 B(6,12,7)       =    122.618967     0.000000     0.000763   122.619730
	   46 B(6,12,22)      =    118.697426    -0.000000    -0.000529   118.696896
	   47 B(7,4,9)        =    120.505530     0.000001     0.002937   120.508467
	   48 B(7,4,18)       =    118.502301     0.000001     0.002634   118.504935
	   49 B(7,12,22)      =    118.683389    -0.000000    -0.000255   118.683135
	   50 B(8,1,15)       =    119.402617    -0.000001    -0.003845   119.398772
	   51 B(8,11,14)      =    119.075693    -0.000001     0.001184   119.076877
	   52 B(9,3,17)       =    120.686361    -0.000000    -0.000057   120.686304
	   53 B(9,4,18)       =    120.980434    -0.000001    -0.005608   120.974826
	   54 B(9,8,11)       =    122.337729     0.000000     0.008389   122.346118
	   55 B(10,2,16)      =    119.076998     0.000001     0.002569   119.079568
	   56 B(10,5,11)      =    118.924953     0.000000     0.001034   118.925987
	   57 B(10,5,19)      =    120.986683     0.000001     0.004545   120.991228
	   58 B(10,13,23)     =    110.610671    -0.000000     0.000439   110.611109
	   59 B(11,5,19)      =    120.087715    -0.000001    -0.005581   120.082134
	   60 B(12,6,20)      =    117.017432     0.000001     0.003817   117.021250
	   61 B(12,7,21)      =    116.942290     0.000001     0.004261   116.946551
	   62 D(1,2,10,5)     =     -0.388863     0.000000     0.006972    -0.381891
	   63 D(1,2,10,13)    =   -177.010126    -0.000000     0.005232  -177.004895
	   64 D(1,8,9,3)      =     32.111853    -0.000000    -0.019237    32.092616
	   65 D(1,8,9,4)      =   -146.898244    -0.000000    -0.064056  -146.962300
	   66 D(1,8,11,5)     =     -0.069547     0.000000     0.013803    -0.055745
	   67 D(1,8,11,14)    =   -178.184382     0.000000     0.016604  -178.167778
	   68 D(2,1,8,9)      =    179.504647     0.000000     0.015892   179.520540
	   69 D(2,1,8,11)     =     -0.397403    -0.000000    -0.015278    -0.412681
	   70 D(2,10,5,11)    =     -0.063723    -0.000000    -0.008489    -0.072213
	   71 D(2,10,5,19)    =   -179.770812    -0.000000    -0.008014  -179.778827
	   72 D(2,10,13,23)   =   -105.108999     0.000001     0.006519  -105.102480
	   73 D(3,6,12,7)     =      0.050514    -0.000000    -0.012030     0.038484
	   74 D(3,6,12,22)    =   -179.777177    -0.000000    -0.003946  -179.781122
	   75 D(3,9,4,7)      =     -0.207797    -0.000000    -0.029114    -0.236911
	   76 D(3,9,4,18)     =   -178.942972    -0.000000    -0.027152  -178.970124
	   77 D(3,9,8,11)     =   -147.991503     0.000000     0.013645  -147.977858
	   78 D(4,7,12,6)     =     -0.151111     0.000000     0.005389    -0.145723
	   79 D(4,7,12,22)    =    179.676603    -0.000000    -0.002695   179.673908
	   80 D(4,9,3,6)      =      0.108254     0.000000     0.022545     0.130800
	   81 D(4,9,3,17)     =   -178.060241     0.000000     0.021701  -178.038540
	   82 D(4,9,8,11)     =     32.998400    -0.000000    -0.031174    32.967226
	   83 D(5,10,2,16)    =    178.629534     0.000000     0.000621   178.630155
	   84 D(5,10,13,23)   =     78.278947     0.000001     0.004740    78.283686
	   85 D(5,11,8,9)     =   -179.969896    -0.000000    -0.017900  -179.987796
	   86 D(6,3,9,8)      =   -178.952558    -0.000000    -0.020078  -178.972636
	   87 D(6,12,7,21)    =    179.434131     0.000000     0.008704   179.442835
	   88 D(7,4,9,8)      =    178.831924     0.000000     0.014348   178.846272
	   89 D(7,12,6,20)    =    179.368627    -0.000000    -0.010545   179.358081
	   90 D(8,1,2,10)     =      0.628295    -0.000000     0.005307     0.633602
	   91 D(8,1,2,16)     =   -178.370013     0.000000     0.011759  -178.358254
	   92 D(8,9,3,17)     =      2.878946    -0.000000    -0.020922     2.858024
	   93 D(8,9,4,18)     =      0.096749     0.000000     0.016309     0.113059
	   94 D(8,11,5,10)    =      0.296031     0.000000    -0.002188     0.293843
	   95 D(8,11,5,19)    =   -179.994181     0.000000    -0.002628  -179.996810
	   96 D(9,3,6,12)     =     -0.030469    -0.000000    -0.002642    -0.033111
	   97 D(9,3,6,20)     =   -179.300291    -0.000000    -0.004281  -179.304572
	   98 D(9,4,7,12)     =      0.231010     0.000000     0.015922     0.246932
	   99 D(9,4,7,21)     =   -179.325649     0.000000     0.012346  -179.313302
	  100 D(9,8,1,15)     =      2.199568     0.000000     0.021406     2.220973
	  101 D(9,8,11,14)    =      1.915269    -0.000000    -0.015098     1.900171
	  102 D(10,2,1,15)    =    177.941046    -0.000000    -0.000289   177.940757
	  103 D(10,5,11,14)   =    178.427627     0.000000    -0.004898   178.422729
	  104 D(11,5,10,13)   =    176.524866     0.000000    -0.006650   176.518216
	  105 D(11,8,1,15)    =   -177.702482    -0.000000    -0.009765  -177.712247
	  106 D(12,6,3,17)    =    178.178154    -0.000000    -0.001797   178.176357
	  107 D(12,7,4,18)    =    178.997068     0.000000     0.013905   179.010974
	  108 D(13,10,2,16)   =      2.008270    -0.000000    -0.001119     2.007151
	  109 D(13,10,5,19)   =     -3.182223     0.000000    -0.006175    -3.188398
	  110 D(14,11,5,19)   =     -1.862585     0.000000    -0.005338    -1.867923
	  111 D(15,1,2,16)    =     -1.057262     0.000000     0.006163    -1.051100
	  112 D(17,3,6,20)    =     -1.091668    -0.000000    -0.003436    -1.095104
	  113 D(18,4,7,21)    =     -0.559590     0.000000     0.010330    -0.549260
	  114 D(20,6,12,22)   =     -0.459064    -0.000000    -0.002461    -0.461525
	  115 D(21,7,12,22)   =     -0.738155     0.000000     0.000621    -0.737534
	  116 R(4,14)         =      2.763570     0.000120     0.000096     2.763665
	 ---------------------------------------------------------------------------
	Successfully symmetrized geometry.
	 Forces used to impose fixed constraints are not included.
	  Forces zeroed: 72 

  ==> Convergence Check <==

  Measures of convergence in internal coordinates in au.
  Criteria marked as inactive (o), active & met (*), and active & unmet ( ).
  ---------------------------------------------------------------------------------------------
   Step     Total Energy     Delta E     MAX Force     RMS Force      MAX Disp      RMS Disp   
  ---------------------------------------------------------------------------------------------
    Convergence Criteria    1.00e-06 *    3.00e-04 *             o    1.20e-03 *             o
  ---------------------------------------------------------------------------------------------
     15    -653.24323917    1.44e-07 *    5.53e-05 *    1.40e-05 o    1.12e-03 *    1.92e-04 o  ~
  ---------------------------------------------------------------------------------------------


  **** Optimization is complete! (in 15 steps) ****

  ==> Optimization Summary <==

  Measures of convergence in internal coordinates in au.
  --------------------------------------------------------------------------------------------------------------- ~
   Step         Total Energy             Delta E       MAX Force       RMS Force        MAX Disp        RMS Disp  ~
  --------------------------------------------------------------------------------------------------------------- ~
      1    -653.236628197873   -653.236628197873      0.01480851      0.00381612      0.02535838      0.00928106  ~
      2    -653.239134241481     -0.002506043608      0.00379760      0.00119686      0.04168374      0.00926390  ~
      3    -653.239928755603     -0.000794514121      0.00255783      0.00060500      0.04631425      0.00925272  ~
      4    -653.240489672974     -0.000560917372      0.00247021      0.00051288      0.04660658      0.00924316  ~
      5    -653.241003545560     -0.000513872585      0.00232941      0.00049156      0.04607131      0.00923574  ~
      6    -653.241484284019     -0.000480738460      0.00212292      0.00046723      0.04527359      0.00923068  ~
      7    -653.241928774951     -0.000444490932      0.00206803      0.00042026      0.04656012      0.00922806  ~
      8    -653.242324320261     -0.000395545309      0.00190525      0.00036391      0.04892098      0.00922531  ~
      9    -653.242659974115     -0.000335653854      0.00163424      0.00030339      0.05050778      0.00922428  ~
     10    -653.242926804482     -0.000266830367      0.00123691      0.00023883      0.05037156      0.00922368  ~
     11    -653.243116104020     -0.000189299538      0.00074203      0.00017295      0.04786697      0.00922418  ~
     12    -653.243220752690     -0.000104648670      0.00058421      0.00012094      0.03315719      0.00664032  ~
     13    -653.243241409441     -0.000020656752      0.00045174      0.00007292      0.00496186      0.00054930  ~
     14    -653.243239312615      0.000002096827      0.00009988      0.00001679      0.00176789      0.00034803  ~
     15    -653.243239168812      0.000000143803      0.00008453      0.00001603      0.00111799      0.00019226  ~
  --------------------------------------------------------------------------------------------------------------- ~

	Writing optimization data to binary file.
	Final energy is   -653.2432391688117
	Final (previous) structure:
	Cartesian Geometry (in Angstrom)
	    C    -1.1542264745   1.0395731979  -0.7202703939
	    C    -2.2259784968   1.6196782548  -0.0743830430
	    C     1.4733083226   0.2578872082  -1.8041299310
	    C     1.3476438721  -1.6745044703  -0.4030778185
	    C    -1.5530317075   0.5643199779   1.9831782057
	    C     2.5162368051  -0.3199666614  -2.4841343976
	    C     2.3915698544  -2.2251098155  -1.1052929252
	    C    -0.2595864105   0.2026130569  -0.0429469301
	    C     0.8549416853  -0.4072305970  -0.7388153826
	    C    -2.4255219025   1.3859227655   1.2822154479
	    C    -0.4975537591  -0.0095920166   1.3141158406
	    N     2.9442463177  -1.5383324790  -2.1175171566
	    O    -3.5206227139   1.9130500028   1.8982712116
	    F     0.3556839070  -0.7762242385   2.0148602931
	    H    -1.0293941770   1.2016555592  -1.7802343836
	    H    -2.9261891480   2.2423479777  -0.6072163752
	    H     1.1600216355   1.2484523867  -2.0901677063
	    H     0.9068439066  -2.2466394827   0.3942258843
	    H    -1.6964355375   0.3706020220   3.0338779600
	    H     3.0319240148   0.1540776294  -3.3023973098
	    H     2.8009897580  -3.1990529816  -0.8953645844
	    H     3.7161598123  -1.9547381029  -2.6228205791
	    H    -3.2724680740   2.6657620321   2.4449799492
	Saving final (previous) structure.
			--------------------------
			 OPTKING Finished Execution 
			--------------------------

    Final optimized geometry and variables:
    Molecular point group: c1
    Full point group: C1

    Geometry (in Angstrom), charge = 1, multiplicity = 1:

    C           -1.154226474482     1.039573197855    -0.720270393866
    C           -2.225978496785     1.619678254822    -0.074383043025
    C            1.473308322588     0.257887208216    -1.804129930997
    C            1.347643872130    -1.674504470291    -0.403077818519
    C           -1.553031707500     0.564319977898     1.983178205733
    C            2.516236805069    -0.319966661427    -2.484134397621
    C            2.391569854435    -2.225109815489    -1.105292925167
    C           -0.259586410518     0.202613056922    -0.042946930056
    C            0.854941685339    -0.407230597020    -0.738815382597
    C           -2.425521902518     1.385922765483     1.282215447865
    C           -0.497553759085    -0.009592016565     1.314115840641
    N            2.944246317736    -1.538332479001    -2.117517156593
    O           -3.520622713887     1.913050002800     1.898271211586
    F            0.355683907038    -0.776224238498     2.014860293073
    H           -1.029394177009     1.201655559154    -1.780234383576
    H           -2.926189147966     2.242347977717    -0.607216375172
    H            1.160021635519     1.248452386727    -2.090167706309
    H            0.906843906645    -2.246639482698     0.394225884294
    H           -1.696435537450     0.370602022012     3.033877960045
    H            3.031924014767     0.154077629440    -3.302397309799
    H            2.800989758025    -3.199052981592    -0.895364584396
    H            3.716159812275    -1.954738102898    -2.622820579061
    H           -3.272468074033     2.665762032136     2.444979949167

	Cleaning optimization helper files.

*** Psi4 exiting successfully. Buy a developer a beer!
