
    -----------------------------------------------------------------------
          Psi4: An Open-Source Ab Initio Electronic Structure Package
                               Psi4 1.1 release

                         Git: Rev {HEAD} add49b9 


    R. M. Parrish, L. A. Burns, D. G. A. Smith, A. C. Simmonett,
    A. E. DePrince III, E. G. Hohenstein, U. Bozkaya, A. Yu. Sokolov,
    R. Di Remigio, R. M. Richard, J. F. Gonthier, A. M. James,
    H. R. McAlexander, A. Kumar, M. Saitow, X. Wang, B. P. Pritchard,
    P. Verma, H. F. Schaefer III, K. Patkowski, R. A. King, E. F. Valeev,
    F. A. Evangelista, J. M. Turney, T. D. Crawford, and C. D. Sherrill,
    J. Chem. Theory Comput. in press (2017).
    (doi: 10.1021/acs.jctc.7b00174)

    -----------------------------------------------------------------------


    Psi4 started on: Sunday, 12 November 2017 07:56AM

    Process ID:  10450
    PSIDATADIR: /cbio/jclab/home/chayas/anaconda/envs/py35/share/psi4
    Memory:     500.0 MiB
    Threads:    8
    
  ==> Input File <==

--------------------------------------------------------------------------

memory 5 Gb

molecule phepyrOH_cation {
  symmetry C1
  1 1 
  C      1.885   -1.036   -0.112
  C      2.878   -1.652   2.002
  C      0.807   -0.463   0.561
  C      1.800   -1.079   2.676
  C      3.827   -3.271   -0.983
  C      5.330   -1.753   0.130
  C      4.919   -3.822   -1.638
  C      6.384   -2.342   -0.553
  C      2.921   -1.631   0.608
  C      4.040   -2.225   -0.090
  C      0.764   -0.484   1.955
  N      6.151   -3.348   -1.408
  O      -0.288   0.076   2.612
  H      1.904   -1.012   -1.199
  H      3.678   -2.112   2.578
  H      0.003   -0.001   -0.006
  H      1.772   -1.098   3.762
  H      2.831   -3.660   -1.175
  H      5.525   -0.938   0.822
  H      4.849   -4.635   -2.348
  H      7.416   -2.041   -0.445
  H      6.939   -3.768   -1.899
  H      -0.175   -0.018   3.571
  units Angstrom
}

dih_string = "1 9 10 5 300"
set optking fixed_dihedral = $dih_string

optimize('MP2/aug-cc-PVTZ')
--------------------------------------------------------------------------

  Memory set to   4.657 GiB by Python driver.
gradient() will perform analytic gradient computation.

*** tstart() called on gpu-1-11.local
*** at Sun Nov 12 07:56:32 2017

    SCF Algorithm Type (re)set to DF.

*** tstart() called on gpu-1-11.local
*** at Sun Nov 12 07:56:32 2017

   => Loading Basis Set <=

    Name: AUG-CC-PVTZ
    Role: ORBITAL
    Keyword: BASIS
    atoms 1-11  entry C          line   221 file /cbio/jclab/home/chayas/anaconda/envs/py35/share/psi4/basis/aug-cc-pvtz.gbs 
    atoms 12    entry N          line   267 file /cbio/jclab/home/chayas/anaconda/envs/py35/share/psi4/basis/aug-cc-pvtz.gbs 
    atoms 13    entry O          line   313 file /cbio/jclab/home/chayas/anaconda/envs/py35/share/psi4/basis/aug-cc-pvtz.gbs 
    atoms 14-23 entry H          line    34 file /cbio/jclab/home/chayas/anaconda/envs/py35/share/psi4/basis/aug-cc-pvtz.gbs 


         ---------------------------------------------------------
                                   SCF
            by Justin Turney, Rob Parrish, and Andy Simmonett
                              RHF Reference
                        8 Threads,   4768 MiB Core
         ---------------------------------------------------------

  ==> Geometry <==

    Molecular point group: c1
    Full point group: C1

    Geometry (in Angstrom), charge = 1, multiplicity = 1:

       Center              X                  Y                   Z               Mass       
    ------------   -----------------  -----------------  -----------------  -----------------
           C         -1.271741647699     0.720178367234    -0.579374442416    12.000000000000
           C         -0.278741647699     0.104178367234     1.534625557584    12.000000000000
           C         -2.349741647699     1.293178367234     0.093625557584    12.000000000000
           C         -1.356741647699     0.677178367234     2.208625557584    12.000000000000
           C          0.670258352301    -1.514821632766    -1.450374442416    12.000000000000
           C          2.173258352301     0.003178367234    -0.337374442416    12.000000000000
           C          1.762258352301    -2.065821632766    -2.105374442416    12.000000000000
           C          3.227258352301    -0.585821632766    -1.020374442416    12.000000000000
           C         -0.235741647699     0.125178367234     0.140625557584    12.000000000000
           C          0.883258352301    -0.468821632766    -0.557374442416    12.000000000000
           C         -2.392741647699     1.272178367234     1.487625557584    12.000000000000
           N          2.994258352301    -1.591821632766    -1.875374442416    14.003074004780
           O         -3.444741647699     1.832178367234     2.144625557584    15.994914619560
           H         -1.252741647699     0.744178367234    -1.666374442416     1.007825032070
           H          0.521258352301    -0.355821632766     2.110625557584     1.007825032070
           H         -3.153741647699     1.755178367234    -0.473374442416     1.007825032070
           H         -1.384741647699     0.658178367234     3.294625557584     1.007825032070
           H         -0.325741647699    -1.903821632766    -1.642374442416     1.007825032070
           H          2.368258352301     0.818178367234     0.354625557584     1.007825032070
           H          1.692258352301    -2.878821632766    -2.815374442416     1.007825032070
           H          4.259258352301    -0.284821632766    -0.912374442416     1.007825032070
           H          3.782258352301    -2.011821632766    -2.366374442416     1.007825032070
           H         -3.331741647699     1.738178367234     3.103625557584     1.007825032070

  Running in c1 symmetry.

  Rotational constants: A =      0.09611  B =      0.01303  C =      0.01220 [cm^-1]
  Rotational constants: A =   2881.18738  B =    390.49986  C =    365.69012 [MHz]
  Nuclear repulsion =  712.203328929888244

  Charge       = 1
  Multiplicity = 1
  Electrons    = 90
  Nalpha       = 45
  Nbeta        = 45

  ==> Algorithm <==

  SCF Algorithm Type is DF.
  DIIS enabled.
  MOM disabled.
  Fractional occupation disabled.
  Guess Type is SAD.
  Energy threshold   = 1.00e-10
  Density threshold  = 1.00e-10
  Integral threshold = 0.00e+00

  ==> Primary Basis <==

  Basis Set: AUG-CC-PVTZ
    Blend: AUG-CC-PVTZ
    Number of shells: 272
    Number of basis function: 828
    Number of Cartesian functions: 965
    Spherical Harmonics?: true
    Max angular momentum: 3

   => Loading Basis Set <=

    Name: (AUG-CC-PVTZ AUX)
    Role: JKFIT
    Keyword: DF_BASIS_SCF
    atoms 1-11  entry C          line   161 file /cbio/jclab/home/chayas/anaconda/envs/py35/share/psi4/basis/aug-cc-pvtz-jkfit.gbs 
    atoms 12    entry N          line   223 file /cbio/jclab/home/chayas/anaconda/envs/py35/share/psi4/basis/aug-cc-pvtz-jkfit.gbs 
    atoms 13    entry O          line   285 file /cbio/jclab/home/chayas/anaconda/envs/py35/share/psi4/basis/aug-cc-pvtz-jkfit.gbs 
    atoms 14-23 entry H          line    69 file /cbio/jclab/home/chayas/anaconda/envs/py35/share/psi4/basis/aug-cc-pvtz-jkfit.gbs 

  ==> Pre-Iterations <==

   -------------------------------------------------------
    Irrep   Nso     Nmo     Nalpha   Nbeta   Ndocc  Nsocc
   -------------------------------------------------------
     A        828     828       0       0       0       0
   -------------------------------------------------------
    Total     828     828      45      45      45       0
   -------------------------------------------------------

  ==> Integral Setup <==

  ==> DFJK: Density-Fitted J/K Matrices <==

    J tasked:                  Yes
    K tasked:                  Yes
    wK tasked:                  No
    OpenMP threads:              8
    Integrals threads:           8
    Memory (MB):              3576
    Algorithm:                Disk
    Integral Cache:           NONE
    Schwarz Cutoff:          1E-12
    Fitting Condition:       1E-12

   => Auxiliary Basis Set <=

  Basis Set: (AUG-CC-PVTZ AUX)
    Blend: AUG-CC-PVTZ-JKFIT
    Number of shells: 530
    Number of basis function: 1812
    Number of Cartesian functions: 2253
    Spherical Harmonics?: true
    Max angular momentum: 4

  Minimum eigenvalue in the overlap matrix is 5.6356255759E-07.
  Using Symmetric Orthogonalization.

  SCF Guess: Superposition of Atomic Densities via on-the-fly atomic UHF.

  ==> Iterations <==

                           Total Energy        Delta E     RMS |[F,P]|

   @DF-RHF iter   0:  -553.94919206289194   -5.53949e+02   1.96615e-02 
   @DF-RHF iter   1:  -551.25655018325392    2.69264e+00   1.47700e-03 
   @DF-RHF iter   2:  -551.59565773724376   -3.39108e-01   8.83484e-04 DIIS
   @DF-RHF iter   3:  -551.65364714342854   -5.79894e-02   4.20232e-04 DIIS
   @DF-RHF iter   4:  -551.67023308196167   -1.65859e-02   1.54503e-04 DIIS
   @DF-RHF iter   5:  -551.67261412060952   -2.38104e-03   3.65465e-05 DIIS
   @DF-RHF iter   6:  -551.67302326806725   -4.09147e-04   1.60274e-05 DIIS
   @DF-RHF iter   7:  -551.67307053481761   -4.72668e-05   4.31326e-06 DIIS
   @DF-RHF iter   8:  -551.67307581020111   -5.27538e-06   2.25812e-06 DIIS
   @DF-RHF iter   9:  -551.67307721905968   -1.40886e-06   1.17323e-06 DIIS
   @DF-RHF iter  10:  -551.67307767128682   -4.52227e-07   5.06350e-07 DIIS
   @DF-RHF iter  11:  -551.67307775658480   -8.52980e-08   1.70532e-07 DIIS
   @DF-RHF iter  12:  -551.67307776562575   -9.04095e-09   5.98048e-08 DIIS
   @DF-RHF iter  13:  -551.67307776629832   -6.72571e-10   2.68123e-08 DIIS
   @DF-RHF iter  14:  -551.67307776645691   -1.58593e-10   9.49782e-09 DIIS
   @DF-RHF iter  15:  -551.67307776645976   -2.84217e-12   4.39488e-09 DIIS
   @DF-RHF iter  16:  -551.67307776647988   -2.01226e-11   2.21614e-09 DIIS
   @DF-RHF iter  17:  -551.67307776647476    5.11591e-12   8.62364e-10 DIIS
   @DF-RHF iter  18:  -551.67307776648113   -6.36646e-12   3.67480e-10 DIIS
   @DF-RHF iter  19:  -551.67307776647920    1.93268e-12   1.61636e-10 DIIS
   @DF-RHF iter  20:  -551.67307776646908    1.01181e-11   6.03461e-11 DIIS

  ==> Post-Iterations <==

    Orbital Energies (a.u.)
    -----------------------

    Doubly Occupied:                                                      

       1A    -20.695595     2A    -15.841568     3A    -11.488418  
       4A    -11.488360     5A    -11.447576     6A    -11.424505  
       7A    -11.419040     8A    -11.418978     9A    -11.373231  
      10A    -11.371719    11A    -11.367903    12A    -11.352505  
      13A    -11.349056    14A     -1.517025    15A     -1.510938  
      16A     -1.320200    17A     -1.261873    18A     -1.241495  
      19A     -1.152491    20A     -1.144509    21A     -1.070465  
      22A     -1.055378    23A     -0.971167    24A     -0.966698  
      25A     -0.946345    26A     -0.873006    27A     -0.858676  
      28A     -0.849339    29A     -0.821686    30A     -0.800280  
      31A     -0.787607    32A     -0.775233    33A     -0.750607  
      34A     -0.730026    35A     -0.716117    36A     -0.711468  
      37A     -0.697494    38A     -0.682549    39A     -0.648410  
      40A     -0.620486    41A     -0.611342    42A     -0.574128  
      43A     -0.540332    44A     -0.464693    45A     -0.435906  

    Virtual:                                                              

      46A     -0.102886    47A     -0.086886    48A     -0.067233  
      49A     -0.063332    50A     -0.059606    51A     -0.052659  
      52A     -0.042176    53A     -0.039902    54A     -0.038213  
      55A     -0.031233    56A     -0.023725    57A     -0.021474  
      58A     -0.014128    59A     -0.010147    60A     -0.003955  
      61A     -0.002562    62A     -0.001164    63A      0.008293  
      64A      0.009276    65A      0.012342    66A      0.013278  
      67A      0.018444    68A      0.019041    69A      0.026661  
      70A      0.029917    71A      0.032817    72A      0.034216  
      73A      0.037188    74A      0.039768    75A      0.043926  
      76A      0.045886    77A      0.048702    78A      0.053317  
      79A      0.056567    80A      0.062638    81A      0.063242  
      82A      0.071042    83A      0.076038    84A      0.079080  
      85A      0.083934    86A      0.086325    87A      0.092684  
      88A      0.094943    89A      0.097057    90A      0.104868  
      91A      0.107377    92A      0.112244    93A      0.118245  
      94A      0.121831    95A      0.130355    96A      0.131827  
      97A      0.133708    98A      0.134510    99A      0.141145  
     100A      0.143445   101A      0.149961   102A      0.157992  
     103A      0.161685   104A      0.162194   105A      0.166313  
     106A      0.167774   107A      0.170058   108A      0.174878  
     109A      0.175509   110A      0.177307   111A      0.184553  
     112A      0.186552   113A      0.188517   114A      0.195817  
     115A      0.197990   116A      0.203103   117A      0.211028  
     118A      0.212730   119A      0.213412   120A      0.219264  
     121A      0.221788   122A      0.226793   123A      0.227986  
     124A      0.232357   125A      0.234106   126A      0.238913  
     127A      0.243793   128A      0.248178   129A      0.251915  
     130A      0.257502   131A      0.260471   132A      0.264502  
     133A      0.272222   134A      0.279508   135A      0.280840  
     136A      0.282410   137A      0.288666   138A      0.293673  
     139A      0.296277   140A      0.304187   141A      0.311204  
     142A      0.314670   143A      0.316125   144A      0.320406  
     145A      0.323328   146A      0.326006   147A      0.328869  
     148A      0.330538   149A      0.334427   150A      0.341026  
     151A      0.342603   152A      0.345467   153A      0.348147  
     154A      0.350103   155A      0.353752   156A      0.356357  
     157A      0.359472   158A      0.362690   159A      0.370577  
     160A      0.372586   161A      0.373104   162A      0.375433  
     163A      0.379381   164A      0.385497   165A      0.388896  
     166A      0.389968   167A      0.394244   168A      0.399363  
     169A      0.403829   170A      0.405798   171A      0.408412  
     172A      0.413282   173A      0.415708   174A      0.418785  
     175A      0.427649   176A      0.429124   177A      0.430820  
     178A      0.436146   179A      0.439617   180A      0.448335  
     181A      0.452300   182A      0.455006   183A      0.457059  
     184A      0.466834   185A      0.471546   186A      0.480398  
     187A      0.481573   188A      0.484367   189A      0.488500  
     190A      0.492561   191A      0.499207   192A      0.502590  
     193A      0.518282   194A      0.520529   195A      0.522957  
     196A      0.538885   197A      0.541225   198A      0.544957  
     199A      0.557588   200A      0.560249   201A      0.564390  
     202A      0.568428   203A      0.572712   204A      0.577364  
     205A      0.583170   206A      0.590577   207A      0.594870  
     208A      0.598543   209A      0.603012   210A      0.607097  
     211A      0.608838   212A      0.616203   213A      0.620603  
     214A      0.622992   215A      0.626587   216A      0.632609  
     217A      0.635138   218A      0.641167   219A      0.645575  
     220A      0.655892   221A      0.668611   222A      0.676538  
     223A      0.681683   224A      0.688479   225A      0.692530  
     226A      0.698336   227A      0.705675   228A      0.709625  
     229A      0.714419   230A      0.723053   231A      0.726234  
     232A      0.729264   233A      0.741027   234A      0.744957  
     235A      0.749547   236A      0.752948   237A      0.760143  
     238A      0.760327   239A      0.765680   240A      0.771130  
     241A      0.774268   242A      0.777863   243A      0.779828  
     244A      0.787609   245A      0.790364   246A      0.792245  
     247A      0.795710   248A      0.799033   249A      0.804248  
     250A      0.807523   251A      0.808293   252A      0.810385  
     253A      0.820245   254A      0.825442   255A      0.828625  
     256A      0.832001   257A      0.842275   258A      0.846812  
     259A      0.854030   260A      0.854244   261A      0.859665  
     262A      0.864850   263A      0.868881   264A      0.875123  
     265A      0.879440   266A      0.885129   267A      0.892091  
     268A      0.895759   269A      0.898729   270A      0.902439  
     271A      0.915610   272A      0.917964   273A      0.919443  
     274A      0.921868   275A      0.927443   276A      0.937730  
     277A      0.939364   278A      0.942955   279A      0.947501  
     280A      0.951902   281A      0.952190   282A      0.961636  
     283A      0.967111   284A      0.969442   285A      0.975246  
     286A      0.978492   287A      0.982547   288A      0.989601  
     289A      0.990135   290A      0.992715   291A      0.995573  
     292A      0.997833   293A      1.005128   294A      1.007384  
     295A      1.011176   296A      1.016931   297A      1.024505  
     298A      1.027401   299A      1.033276   300A      1.033708  
     301A      1.041843   302A      1.045280   303A      1.053283  
     304A      1.057663   305A      1.062244   306A      1.067079  
     307A      1.072673   308A      1.079459   309A      1.082499  
     310A      1.087175   311A      1.091564   312A      1.094283  
     313A      1.103797   314A      1.106965   315A      1.111768  
     316A      1.115784   317A      1.127237   318A      1.130646  
     319A      1.139204   320A      1.140439   321A      1.142745  
     322A      1.150416   323A      1.154755   324A      1.165324  
     325A      1.169118   326A      1.172448   327A      1.175222  
     328A      1.182126   329A      1.194702   330A      1.197294  
     331A      1.204490   332A      1.206058   333A      1.220055  
     334A      1.227418   335A      1.234102   336A      1.239670  
     337A      1.242908   338A      1.250812   339A      1.261445  
     340A      1.265081   341A      1.270302   342A      1.277176  
     343A      1.281880   344A      1.286842   345A      1.297331  
     346A      1.301499   347A      1.304596   348A      1.320007  
     349A      1.326719   350A      1.329375   351A      1.331239  
     352A      1.344646   353A      1.350527   354A      1.358487  
     355A      1.362298   356A      1.375568   357A      1.383125  
     358A      1.389515   359A      1.391677   360A      1.399470  
     361A      1.402316   362A      1.407787   363A      1.414128  
     364A      1.418504   365A      1.429401   366A      1.437841  
     367A      1.444388   368A      1.454082   369A      1.456057  
     370A      1.461410   371A      1.470604   372A      1.485528  
     373A      1.496467   374A      1.504230   375A      1.506109  
     376A      1.508840   377A      1.515832   378A      1.524533  
     379A      1.531257   380A      1.539121   381A      1.544698  
     382A      1.545444   383A      1.557539   384A      1.560081  
     385A      1.571486   386A      1.587601   387A      1.596754  
     388A      1.602643   389A      1.604456   390A      1.609163  
     391A      1.627239   392A      1.630147   393A      1.635199  
     394A      1.642125   395A      1.660303   396A      1.672293  
     397A      1.682272   398A      1.686429   399A      1.693010  
     400A      1.694981   401A      1.704287   402A      1.707259  
     403A      1.719391   404A      1.730658   405A      1.732494  
     406A      1.743862   407A      1.744798   408A      1.750543  
     409A      1.762821   410A      1.768694   411A      1.776309  
     412A      1.784815   413A      1.798664   414A      1.800002  
     415A      1.810023   416A      1.815185   417A      1.821091  
     418A      1.825352   419A      1.829635   420A      1.837964  
     421A      1.848684   422A      1.856061   423A      1.870129  
     424A      1.874464   425A      1.883278   426A      1.890732  
     427A      1.895625   428A      1.904942   429A      1.908721  
     430A      1.913541   431A      1.920944   432A      1.925705  
     433A      1.940961   434A      1.945206   435A      1.951506  
     436A      1.958299   437A      1.968981   438A      1.981076  
     439A      1.990997   440A      2.002455   441A      2.004045  
     442A      2.016111   443A      2.024314   444A      2.043025  
     445A      2.045850   446A      2.048938   447A      2.051987  
     448A      2.064048   449A      2.068016   450A      2.074079  
     451A      2.080377   452A      2.089135   453A      2.095567  
     454A      2.110131   455A      2.111509   456A      2.124971  
     457A      2.146659   458A      2.154314   459A      2.162821  
     460A      2.168047   461A      2.188860   462A      2.194593  
     463A      2.202499   464A      2.213112   465A      2.219072  
     466A      2.236826   467A      2.246552   468A      2.255386  
     469A      2.256406   470A      2.265998   471A      2.282265  
     472A      2.295700   473A      2.299375   474A      2.304383  
     475A      2.305696   476A      2.321916   477A      2.331432  
     478A      2.345955   479A      2.362001   480A      2.376322  
     481A      2.389234   482A      2.393508   483A      2.401550  
     484A      2.405469   485A      2.411741   486A      2.422712  
     487A      2.438426   488A      2.449302   489A      2.465840  
     490A      2.479262   491A      2.490260   492A      2.499067  
     493A      2.511596   494A      2.525673   495A      2.541272  
     496A      2.547541   497A      2.555404   498A      2.570418  
     499A      2.582265   500A      2.586621   501A      2.599146  
     502A      2.630300   503A      2.635327   504A      2.647927  
     505A      2.685336   506A      2.693054   507A      2.715189  
     508A      2.719405   509A      2.734175   510A      2.761025  
     511A      2.771178   512A      2.787012   513A      2.804140  
     514A      2.832874   515A      2.846074   516A      2.874761  
     517A      2.888407   518A      2.935681   519A      2.946764  
     520A      2.951053   521A      2.975514   522A      2.985543  
     523A      2.997234   524A      3.019093   525A      3.045567  
     526A      3.060864   527A      3.077865   528A      3.095421  
     529A      3.102237   530A      3.118246   531A      3.133809  
     532A      3.144218   533A      3.157744   534A      3.161213  
     535A      3.175124   536A      3.181261   537A      3.194880  
     538A      3.221599   539A      3.234118   540A      3.242605  
     541A      3.243430   542A      3.264138   543A      3.271105  
     544A      3.275718   545A      3.288661   546A      3.295917  
     547A      3.311864   548A      3.316921   549A      3.320636  
     550A      3.335691   551A      3.338008   552A      3.346260  
     553A      3.366725   554A      3.368256   555A      3.378197  
     556A      3.387031   557A      3.393768   558A      3.402236  
     559A      3.413334   560A      3.416751   561A      3.430044  
     562A      3.432649   563A      3.435088   564A      3.444989  
     565A      3.447627   566A      3.472740   567A      3.481733  
     568A      3.484120   569A      3.491074   570A      3.505260  
     571A      3.517106   572A      3.533013   573A      3.537445  
     574A      3.550733   575A      3.557648   576A      3.561410  
     577A      3.572961   578A      3.582052   579A      3.599964  
     580A      3.607316   581A      3.619112   582A      3.626846  
     583A      3.633269   584A      3.643652   585A      3.652773  
     586A      3.661260   587A      3.674108   588A      3.681228  
     589A      3.688922   590A      3.696240   591A      3.704032  
     592A      3.717316   593A      3.723761   594A      3.726245  
     595A      3.738212   596A      3.748584   597A      3.761945  
     598A      3.767900   599A      3.784365   600A      3.797779  
     601A      3.799161   602A      3.802652   603A      3.810734  
     604A      3.813620   605A      3.823312   606A      3.840202  
     607A      3.843217   608A      3.853330   609A      3.862676  
     610A      3.872348   611A      3.882027   612A      3.887374  
     613A      3.893637   614A      3.898766   615A      3.901958  
     616A      3.908287   617A      3.928075   618A      3.937182  
     619A      3.947874   620A      3.956581   621A      3.962472  
     622A      3.970728   623A      3.986744   624A      4.006458  
     625A      4.010781   626A      4.016304   627A      4.023722  
     628A      4.025920   629A      4.034455   630A      4.040001  
     631A      4.046162   632A      4.058007   633A      4.067741  
     634A      4.077154   635A      4.081179   636A      4.093651  
     637A      4.110757   638A      4.115598   639A      4.124827  
     640A      4.131445   641A      4.149080   642A      4.159698  
     643A      4.162604   644A      4.173481   645A      4.180100  
     646A      4.196266   647A      4.205846   648A      4.213572  
     649A      4.224593   650A      4.230482   651A      4.230877  
     652A      4.233279   653A      4.244367   654A      4.254919  
     655A      4.267906   656A      4.270803   657A      4.275862  
     658A      4.294359   659A      4.300967   660A      4.305961  
     661A      4.318051   662A      4.328630   663A      4.334778  
     664A      4.339194   665A      4.342947   666A      4.364263  
     667A      4.367337   668A      4.367697   669A      4.381840  
     670A      4.383258   671A      4.394533   672A      4.409915  
     673A      4.427863   674A      4.432273   675A      4.441052  
     676A      4.456208   677A      4.465324   678A      4.471096  
     679A      4.485141   680A      4.504173   681A      4.526704  
     682A      4.539361   683A      4.571755   684A      4.587639  
     685A      4.588193   686A      4.605763   687A      4.613242  
     688A      4.621288   689A      4.629887   690A      4.643143  
     691A      4.646683   692A      4.675826   693A      4.692184  
     694A      4.708672   695A      4.719613   696A      4.731340  
     697A      4.745875   698A      4.751951   699A      4.762438  
     700A      4.769376   701A      4.804420   702A      4.812653  
     703A      4.816545   704A      4.829767   705A      4.834440  
     706A      4.845775   707A      4.858790   708A      4.860394  
     709A      4.877489   710A      4.895564   711A      4.908943  
     712A      4.912075   713A      4.925819   714A      4.930373  
     715A      4.938298   716A      4.963107   717A      4.971175  
     718A      4.978557   719A      4.991265   720A      5.009243  
     721A      5.011240   722A      5.019505   723A      5.036374  
     724A      5.043666   725A      5.047877   726A      5.060250  
     727A      5.080803   728A      5.082762   729A      5.092785  
     730A      5.113192   731A      5.125892   732A      5.163050  
     733A      5.175231   734A      5.177794   735A      5.193603  
     736A      5.211435   737A      5.215807   738A      5.220592  
     739A      5.227972   740A      5.262858   741A      5.270157  
     742A      5.275020   743A      5.309324   744A      5.319693  
     745A      5.341698   746A      5.348624   747A      5.365610  
     748A      5.372722   749A      5.392865   750A      5.404791  
     751A      5.415990   752A      5.452009   753A      5.485214  
     754A      5.498581   755A      5.535727   756A      5.554406  
     757A      5.576321   758A      5.589097   759A      5.605403  
     760A      5.609548   761A      5.636411   762A      5.653715  
     763A      5.673947   764A      5.694220   765A      5.723124  
     766A      5.731130   767A      5.775319   768A      5.810814  
     769A      5.834282   770A      5.890743   771A      5.925790  
     772A      5.940329   773A      5.978261   774A      5.979620  
     775A      6.020060   776A      6.024683   777A      6.092259  
     778A      6.134358   779A      6.152638   780A      6.199438  
     781A      6.229420   782A      6.237925   783A      6.296680  
     784A      6.340561   785A      6.357753   786A      6.397672  
     787A      6.412613   788A      6.462467   789A      6.470067  
     790A      6.515304   791A      6.561427   792A      6.651991  
     793A      6.658538   794A      6.741947   795A      6.773397  
     796A      6.801301   797A      6.802199   798A      6.836558  
     799A      6.877725   800A      6.908835   801A      6.952527  
     802A      6.974690   803A      6.983606   804A      7.109463  
     805A      7.168193   806A      7.327594   807A      7.339358  
     808A      7.447459   809A      7.540646   810A      7.596932  
     811A      7.609596   812A      7.661899   813A      7.919028  
     814A      8.295690   815A      8.547494   816A     15.984508  
     817A     16.164097   818A     16.452409   819A     16.610980  
     820A     16.901529   821A     18.718488   822A     19.102416  
     823A     19.331546   824A     19.639538   825A     19.932078  
     826A     20.037373   827A     20.212171   828A     21.737896  

    Final Occupation by Irrep:
              A 
    DOCC [    45 ]

  Energy converged.

  @DF-RHF Final Energy:  -551.67307776646908

   => Energetics <=

    Nuclear Repulsion Energy =            712.2033289298882437
    One-Electron Energy =               -2147.4599597910541888
    Two-Electron Energy =                 883.5835530946967538
    DFT Exchange-Correlation Energy =       0.0000000000000000
    Empirical Dispersion Energy =           0.0000000000000000
    PCM Polarization Energy =               0.0000000000000000
    EFP Energy =                            0.0000000000000000
    Total Energy =                       -551.6730777664690777



Properties will be evaluated at   0.000000,   0.000000,   0.000000 Bohr

Properties computed using the SCF density matrix

  Nuclear Dipole Moment: (a.u.)
     X:     2.9508      Y:    -1.6002      Z:    -0.9337

  Electronic Dipole Moment: (a.u.)
     X:     0.5856      Y:    -0.3017      Z:    -0.6759

  Dipole Moment: (a.u.)
     X:     3.5364      Y:    -1.9018      Z:    -1.6095     Total:     4.3259

  Dipole Moment: (Debye)
     X:     8.9887      Y:    -4.8340      Z:    -4.0910     Total:    10.9955


*** tstop() called on gpu-1-11.local at Sun Nov 12 08:03:52 2017
Module time:
	user time   =    1078.30 seconds =      17.97 minutes
	system time =      48.96 seconds =       0.82 minutes
	total time  =        440 seconds =       7.33 minutes
Total time:
	user time   =    1078.30 seconds =      17.97 minutes
	system time =      48.96 seconds =       0.82 minutes
	total time  =        440 seconds =       7.33 minutes

  //>>>>>>>>>>>>>>>>>>>>>>>>>>>>>>>>>>>//
  //               DFMP2               //
  //<<<<<<<<<<<<<<<<<<<<<<<<<<<<<<<<<<<//

   => Loading Basis Set <=

    Name: (AUG-CC-PVTZ AUX)
    Role: RIFIT
    Keyword: DF_BASIS_MP2
    atoms 1-11  entry C          line   147 file /cbio/jclab/home/chayas/anaconda/envs/py35/share/psi4/basis/aug-cc-pvtz-ri.gbs 
    atoms 12    entry N          line   205 file /cbio/jclab/home/chayas/anaconda/envs/py35/share/psi4/basis/aug-cc-pvtz-ri.gbs 
    atoms 13    entry O          line   263 file /cbio/jclab/home/chayas/anaconda/envs/py35/share/psi4/basis/aug-cc-pvtz-ri.gbs 
    atoms 14-23 entry H          line    29 file /cbio/jclab/home/chayas/anaconda/envs/py35/share/psi4/basis/aug-cc-pvtz-ri.gbs 

	 --------------------------------------------------------
	                          DF-MP2                         
	      2nd-Order Density-Fitted Moller-Plesset Theory     
	              RMP2 Wavefunction,   8 Threads             
	                                                         
	        Rob Parrish, Justin Turney, Andy Simmonett,      
	           Ed Hohenstein, and C. David Sherrill          
	 --------------------------------------------------------

   => Auxiliary Basis Set <=

  Basis Set: (AUG-CC-PVTZ AUX)
    Blend: AUG-CC-PVTZ-RI
    Number of shells: 504
    Number of basis function: 1838
    Number of Cartesian functions: 2318
    Spherical Harmonics?: true
    Max angular momentum: 4

	 --------------------------------------------------------
	                 NBF =   828, NAUX =  1838
	 --------------------------------------------------------
	   CLASS    FOCC     OCC    AOCC    AVIR     VIR    FVIR
	   PAIRS       0      45      45     783     783       0
	 --------------------------------------------------------


         ------------------------------------------------------------
                                     CPHF                           
                                  Rob Parrish                       
         ------------------------------------------------------------

  ==> Geometry <==

    Molecular point group: c1
    Full point group: C1

    Geometry (in Angstrom), charge = 1, multiplicity = 1:

       Center              X                  Y                   Z               Mass       
    ------------   -----------------  -----------------  -----------------  -----------------
           C         -1.271741647699     0.720178367234    -0.579374442416    12.000000000000
           C         -0.278741647699     0.104178367234     1.534625557584    12.000000000000
           C         -2.349741647699     1.293178367234     0.093625557584    12.000000000000
           C         -1.356741647699     0.677178367234     2.208625557584    12.000000000000
           C          0.670258352301    -1.514821632766    -1.450374442416    12.000000000000
           C          2.173258352301     0.003178367234    -0.337374442416    12.000000000000
           C          1.762258352301    -2.065821632766    -2.105374442416    12.000000000000
           C          3.227258352301    -0.585821632766    -1.020374442416    12.000000000000
           C         -0.235741647699     0.125178367234     0.140625557584    12.000000000000
           C          0.883258352301    -0.468821632766    -0.557374442416    12.000000000000
           C         -2.392741647699     1.272178367234     1.487625557584    12.000000000000
           N          2.994258352301    -1.591821632766    -1.875374442416    14.003074004780
           O         -3.444741647699     1.832178367234     2.144625557584    15.994914619560
           H         -1.252741647699     0.744178367234    -1.666374442416     1.007825032070
           H          0.521258352301    -0.355821632766     2.110625557584     1.007825032070
           H         -3.153741647699     1.755178367234    -0.473374442416     1.007825032070
           H         -1.384741647699     0.658178367234     3.294625557584     1.007825032070
           H         -0.325741647699    -1.903821632766    -1.642374442416     1.007825032070
           H          2.368258352301     0.818178367234     0.354625557584     1.007825032070
           H          1.692258352301    -2.878821632766    -2.815374442416     1.007825032070
           H          4.259258352301    -0.284821632766    -0.912374442416     1.007825032070
           H          3.782258352301    -2.011821632766    -2.366374442416     1.007825032070
           H         -3.331741647699     1.738178367234     3.103625557584     1.007825032070

  Nuclear repulsion =  712.203328929888244
  Reference energy  = -551.673077766469078

  ==> Basis Set <==

  Basis Set: AUG-CC-PVTZ
    Blend: AUG-CC-PVTZ
    Number of shells: 272
    Number of basis function: 828
    Number of Cartesian functions: 965
    Spherical Harmonics?: true
    Max angular momentum: 3

  ==> CGRSolver (by Rob Parrish) <==

   Number of roots    =         1
   Preconditioning    =    JACOBI
   Convergence cutoff =     1E-06
   Maximum iterations =       100

  ==> CPHFRHamiltonian (by Rob Parrish) <== 

  ==> DFJK: Density-Fitted J/K Matrices <==

    J tasked:                  Yes
    K tasked:                  Yes
    wK tasked:                  No
    OpenMP threads:              8
    Integrals threads:           8
    Memory (MB):              3576
    Algorithm:                Disk
    Integral Cache:           NONE
    Schwarz Cutoff:          1E-12
    Fitting Condition:       1E-12

   => Auxiliary Basis Set <=

  Basis Set: (AUG-CC-PVTZ AUX)
    Blend: AUG-CC-PVTZ-JKFIT
    Number of shells: 530
    Number of basis function: 1812
    Number of Cartesian functions: 2253
    Spherical Harmonics?: true
    Max angular momentum: 4

  ==> CPHF Iterations <==

  => Iterations <=

             Iter  Converged  Remaining    Residual
  CGR           1          0          1   1.061E-01
  CGR           2          0          1   4.759E-02
  CGR           3          0          1   2.790E-02
  CGR           4          0          1   8.822E-03
  CGR           5          0          1   3.619E-03
  CGR           6          0          1   1.723E-03
  CGR           7          0          1   5.453E-04
  CGR           8          0          1   2.232E-04
  CGR           9          0          1   1.104E-04
  CGR          10          0          1   4.138E-05
  CGR          11          0          1   1.483E-05
  CGR          12          0          1   5.428E-06
  CGR          13          0          1   1.768E-06
  CGR          14          1          0   6.135E-07

    CGRSolver converged.

  ==> DFCorrGrad: Density-Fitted Correlated Gradients <==

    OpenMP threads:              8
    Integrals threads:           8
    Memory (MB):              3576
    Schwarz Cutoff:          0E+00
    Fitting Condition:       1E-12

   => Auxiliary Basis Set <=

  Basis Set: (AUG-CC-PVTZ AUX)
    Blend: AUG-CC-PVTZ-JKFIT
    Number of shells: 530
    Number of basis function: 1812
    Number of Cartesian functions: 2253
    Spherical Harmonics?: true
    Max angular momentum: 4

	-----------------------------------------------------------
	 ==================> DF-MP2 Energies <==================== 
	-----------------------------------------------------------
	 Reference Energy          =    -551.6730777664690777 [Eh]
	 Singles Energy            =      -0.0000000000000002 [Eh]
	 Same-Spin Energy          =      -0.5961404536105126 [Eh]
	 Opposite-Spin Energy      =      -1.8247614732870514 [Eh]
	 Correlation Energy        =      -2.4209019268975638 [Eh]
	 Total Energy              =    -554.0939796933666912 [Eh]
	-----------------------------------------------------------
	 ================> DF-SCS-MP2 Energies <================== 
	-----------------------------------------------------------
	 SCS Same-Spin Scale       =       0.3333333333333333 [-]
	 SCS Opposite-Spin Scale   =       1.2000000000000000 [-]
	 SCS Same-Spin Energy      =      -0.1987134845368375 [Eh]
	 SCS Opposite-Spin Energy  =      -2.1897137679444616 [Eh]
	 SCS Correlation Energy    =      -2.3884272524812991 [Eh]
	 SCS Total Energy          =    -554.0615050189503563 [Eh]
	-----------------------------------------------------------


  -Total Gradient:
     Atom            X                  Y                   Z
    ------   -----------------  -----------------  -----------------
       1        0.010425106641     0.000398810472    -0.004589961600
       2        0.003044099629    -0.007358424058    -0.007281008464
       3        0.000495795914    -0.000752290027     0.004650380280
       4       -0.008917215252     0.005029209958     0.006718939464
       5       -0.012606211929     0.004676877102     0.011220986155
       6       -0.014142305996     0.008521135809     0.004676461956
       7        0.010722963160     0.004362421729     0.003944844112
       8       -0.002432501709    -0.007397858398    -0.007656503516
       9        0.004772827712    -0.002732394326    -0.003586293110
      10        0.006560676190    -0.002760234412    -0.003787363335
      11        0.001271083871    -0.000319180954    -0.013664535551
      12        0.001145286990    -0.001078923372    -0.001319521265
      13       -0.003689680760     0.001745740086     0.007655561289
      14       -0.000685952425    -0.000097318983    -0.005106547285
      15        0.003454170238    -0.001471079929     0.003656013408
      16       -0.003433036011     0.001443820972    -0.004956040012
      17        0.000436101658     0.000257668449     0.004418419348
      18       -0.005574323990    -0.002131961804    -0.001904974892
      19        0.001688966272     0.004394302706     0.004525201838
      20        0.001116671475    -0.001716858788    -0.002342386238
      21        0.002274000695    -0.000661442403    -0.000373581188
      22        0.004492254664    -0.002409999705    -0.002717111579
      23       -0.000418777047     0.000057979886     0.007819020197


*** tstop() called on gpu-1-11.local at Sun Nov 12 08:38:34 2017
Module time:
	user time   =    5390.35 seconds =      89.84 minutes
	system time =     108.66 seconds =       1.81 minutes
	total time  =       2522 seconds =      42.03 minutes
Total time:
	user time   =    5390.35 seconds =      89.84 minutes
	system time =     108.66 seconds =       1.81 minutes
	total time  =       2522 seconds =      42.03 minutes

			-----------------------------------------
			 OPTKING 2.0: for geometry optimizations 
			  - R.A. King,  Bethel University        
			-----------------------------------------

	Internal coordinates to be generated automatically.
	Detected frag 1 with atoms:  1 2 3 4 5 6 7 8 9 10 11 12 13 14 15 16 17 18 19 20
	 21 22 23
	---Fragment 1 Bond Connectivity---
	 1 : 3 9 14
	 2 : 4 9 15
	 3 : 1 11 16
	 4 : 2 11 17
	 5 : 7 10 18
	 6 : 8 10 19
	 7 : 5 12 20
	 8 : 6 12 21
	 9 : 1 2 10
	 10 : 5 6 9
	 11 : 3 4 13
	 12 : 7 8 22
	 13 : 11 23
	 14 : 1
	 15 : 2
	 16 : 3
	 17 : 4
	 18 : 5
	 19 : 6
	 20 : 7
	 21 : 8
	 22 : 12
	 23 : 13

	Assuming in current code that numbering for constraints corresponds to unified fragment.
	Fixed dihedral atom list: 
	     1     9    10     5
	---Fragment 1 Geometry and Gradient---
	 C          -2.4032434259        1.3609398809       -1.0948590246
	 C          -0.5267453760        0.1968685830        2.9000220204
	 C          -4.4403681972        2.4437529550        0.1769266629
	 C          -2.5638701472        1.2796816572        4.1736974339
	 C           1.2666047241       -2.8625980261       -2.7408104863
	 C           4.1068631019        0.0060062436       -0.6375453004
	 C           3.3301856612       -3.9038371253       -3.9785811033
	 C           6.0986344459       -1.1070424486       -1.9282282492
	 C          -0.4454871523        0.2365528318        0.2657437911
	 C           1.6691163904       -0.8859444911       -1.0532850496
	 C          -4.5216264209        2.4040687063        2.8112048921
	 N           5.6583282570       -3.0081069383       -3.5439440928
	 O          -6.5096183127        3.4623153407        4.0527549614
	 H          -2.3673386294        1.4062933081       -3.1489913310
	 H           0.9850355303       -0.6724054381        3.9885042729
	 H          -5.9597080080        3.3168064284       -0.8945480545
	 H          -2.6167824790        1.2437768607        6.2259400142
	 H          -0.6155625042       -3.5977014918       -3.1036379038
	 H           4.4753596978        1.5461330419        0.6701451836
	 H           3.1979048319       -5.4401844714       -5.3202866577
	 H           8.0488318151       -0.5382348826       -1.7241378268
	 H           7.1474324497       -3.8017919141       -4.4717996240
	 H          -6.2960792597        3.2846810842        5.8650023229
	             0.0104251066        0.0003988105       -0.0045899616
	             0.0030440996       -0.0073584241       -0.0072810085
	             0.0004957959       -0.0007522900        0.0046503803
	            -0.0089172153        0.0050292100        0.0067189395
	            -0.0126062119        0.0046768771        0.0112209862
	            -0.0141423060        0.0085211358        0.0046764620
	             0.0107229632        0.0043624217        0.0039448441
	            -0.0024325017       -0.0073978584       -0.0076565035
	             0.0047728277       -0.0027323943       -0.0035862931
	             0.0065606762       -0.0027602344       -0.0037873633
	             0.0012710839       -0.0003191810       -0.0136645356
	             0.0011452870       -0.0010789234       -0.0013195213
	            -0.0036896808        0.0017457401        0.0076555613
	            -0.0006859524       -0.0000973190       -0.0051065473
	             0.0034541702       -0.0014710799        0.0036560134
	            -0.0034330360        0.0014438210       -0.0049560400
	             0.0004361017        0.0002576684        0.0044184193
	            -0.0055743240       -0.0021319618       -0.0019049749
	             0.0016889663        0.0043943027        0.0045252018
	             0.0011166715       -0.0017168588       -0.0023423862
	             0.0022740007       -0.0006614424       -0.0003735812
	             0.0044922547       -0.0024099997       -0.0027171116
	            -0.0004187770        0.0000579799        0.0078190202

	Previous optimization step data not found.  Starting new optimization.

	---Fragment 1 Intrafragment Coordinates---
	 - Coordinate -           - BOHR/RAD -       - ANG/DEG -
	 R(1,3)           =         2.634350	       1.394038
	 R(1,9)           =         2.635962	       1.394891
	 R(1,14)          =         2.054947	       1.087431
	 R(2,4)           =         2.635263	       1.394521
	 R(2,9)           =         2.635830	       1.394821
	 R(2,15)          =         2.055702	       1.087831
	 R(3,11)          =         2.635830	       1.394821
	 R(3,16)          =         2.053941	       1.086899
	 R(4,11)          =         2.636938	       1.395407
	 R(4,17)          =         2.053239	       1.086527
	 R(5,7)           =         2.621950	       1.387476
	 R(5,10)          =         2.630003	       1.391738
	 R(5,18)          =         2.052943	       1.086371
	 R(6,8)           =         2.621430	       1.387201
	 R(6,10)          =         2.628883	       1.391145
	 R(6,19)          =         2.053737	       1.086791
	 R(7,12)          =         2.532092	       1.339925
	 R(7,20)          =         2.044024	       1.081651
	 R(8,12)          =         2.533467	       1.340653
	 R(8,21)          =         2.041682	       1.080411
	 R(9,10)          =         2.733384	       1.446444
	 R(11,13)         =         2.571662	       1.360865
	 R(12,22)         =         1.925690	       1.019031
	 R(13,23)         =         1.833410	       0.970199
	 B(1,3,11)        =         2.094553	     120.009056
	 B(1,3,16)        =         2.088505	     119.662516
	 B(1,9,2)         =         2.093692	     119.959722
	 B(1,9,10)        =         2.095161	     120.043881
	 B(2,4,11)        =         2.093699	     119.960108
	 B(2,4,17)        =         2.089577	     119.723926
	 B(2,9,10)        =         2.094332	     119.996376
	 B(3,1,9)         =         2.094940	     120.031219
	 B(3,1,14)        =         2.079469	     119.144799
	 B(3,11,4)        =         2.094306	     119.994870
	 B(3,11,13)       =         2.094549	     120.008801
	 B(4,2,9)         =         2.095181	     120.045019
	 B(4,2,15)        =         2.078675	     119.099297
	 B(4,11,13)       =         2.094331	     119.996326
	 B(5,7,12)        =         2.096858	     120.141122
	 B(5,7,20)        =         2.162085	     123.878322
	 B(5,10,6)        =         2.092540	     119.893702
	 B(5,10,9)        =         2.094255	     119.991963
	 B(6,8,12)        =         2.095041	     120.036993
	 B(6,8,21)        =         2.163071	     123.934819
	 B(6,10,9)        =         2.096391	     120.114329
	 B(7,5,10)        =         2.072504	     118.745745
	 B(7,5,18)        =         2.089710	     119.731583
	 B(7,12,8)        =         2.134968	     122.324641
	 B(7,12,22)       =         2.074293	     118.848231
	 B(8,6,10)        =         2.074460	     118.857786
	 B(8,6,19)        =         2.089303	     119.708272
	 B(8,12,22)       =         2.073923	     118.827038
	 B(9,1,14)        =         2.108776	     120.823969
	 B(9,2,15)        =         2.109330	     120.855683
	 B(10,5,18)       =         2.120971	     121.522669
	 B(10,6,19)       =         2.119422	     121.433938
	 B(11,3,16)       =         2.100127	     120.328425
	 B(11,4,17)       =         2.099910	     120.315955
	 B(11,13,23)      =         1.925489	     110.322421
	 B(12,7,20)       =         2.024242	     115.980508
	 B(12,8,21)       =         2.025074	     116.028186
	 D(1,3,11,4)      =        -0.000325	      -0.018609
	 D(1,3,11,13)     =         3.140978	     179.964785
	 D(1,9,2,4)       =         0.000325	       0.018608
	 D(1,9,2,15)      =        -3.141497	    -179.994534
	 D(1,9,10,5)      =        -1.047688	     -60.028112
	 D(1,9,10,6)      =         2.094419	     120.001384
	 D(2,4,11,3)      =         0.000301	       0.017261
	 D(2,4,11,13)     =        -3.141002	    -179.966135
	 D(2,9,1,3)       =        -0.000348	      -0.019945
	 D(2,9,1,14)      =        -3.141221	    -179.978731
	 D(2,9,10,5)      =         2.094821	     120.024391
	 D(2,9,10,6)      =        -1.046257	     -59.946113
	 D(3,1,9,10)      =        -3.141025	    -179.967461
	 D(3,11,4,17)     =         3.141223	     179.978848
	 D(3,11,13,23)    =         3.140828	     179.956172
	 D(4,2,9,10)      =         3.141002	     179.966149
	 D(4,11,3,16)     =         3.141593	     180.000000
	 D(4,11,13,23)    =        -0.001055	      -0.060434
	 D(5,7,12,8)      =         0.000713	       0.040859
	 D(5,7,12,22)     =         3.140376	     179.930309
	 D(5,10,6,8)      =         0.000154	       0.008795
	 D(5,10,6,19)     =        -3.141062	    -179.969593
	 D(6,8,12,7)      =        -0.000588	      -0.033685
	 D(6,8,12,22)     =        -3.140251	    -179.923157
	 D(6,10,5,7)      =        -0.000034	      -0.001920
	 D(6,10,5,18)     =        -3.141275	    -179.981825
	 D(7,5,10,9)      =        -3.141113	    -179.972489
	 D(7,12,8,21)     =         3.141287	     179.982493
	 D(8,6,10,9)      =         3.141232	     179.979328
	 D(8,12,7,20)     =         3.140974	     179.964528
	 D(9,1,3,11)      =         0.000348	       0.019955
	 D(9,1,3,16)      =        -3.141571	    -179.998735
	 D(9,2,4,11)      =        -0.000301	      -0.017270
	 D(9,2,4,17)      =        -3.141228	    -179.979086
	 D(9,10,5,18)     =         0.000831	       0.047605
	 D(9,10,6,19)     =         0.000016	       0.000941
	 D(10,5,7,12)     =        -0.000389	      -0.022314
	 D(10,5,7,20)     =        -3.140540	    -179.939665
	 D(10,6,8,12)     =         0.000145	       0.008282
	 D(10,6,8,21)     =         3.141431	     179.990761
	 D(10,9,1,14)     =         0.001287	       0.073752
	 D(10,9,2,15)     =        -0.000820	      -0.046992
	 D(11,3,1,14)     =         3.141234	     179.979432
	 D(11,4,2,15)     =         3.141517	     179.995641
	 D(12,7,5,18)     =         3.140859	     179.957960
	 D(12,8,6,19)     =         3.141367	     179.987051
	 D(13,11,3,16)    =        -0.000286	      -0.016400
	 D(13,11,4,17)    =        -0.000079	      -0.004548
	 D(14,1,3,16)     =        -0.000685	      -0.039257
	 D(15,2,4,17)     =         0.000590	       0.033826
	 D(18,5,7,20)     =         0.000709	       0.040609
	 D(19,6,8,21)     =        -0.000532	      -0.030470
	 D(20,7,12,22)    =        -0.002549	      -0.146022
	 D(21,8,12,22)    =         0.001624	       0.093021

	Current energy   :      -554.0939796934

	Generating empirical Hessian (Schlegel '84) for each fragment.
	Adding user-defined constraint: Fragment 1; Coordinate 66:
		Value =    -1.047688; Fixed value    =    -1.047198
		Force =     0.000245; Force constant =     0.500000
	Removing off-diagonal coupling between coordinate 66 and others.
	Taking RFO optimization step.
	Going to follow RFO solution 1.
	Using RFO vector 1.

	Determining step-restricting scale parameter for RS-RFO.
	Maximum step size allowed    0.10000

	 Iter      |step|        alpha        rfo_root  
	------------------------------------------------
	    0     0.25066       1.00000           1
	    1     0.17477       4.02122           1
	    2     0.13482       9.83496           1
	    3     0.11277      18.95104           1
	    4     0.10251      26.91106           1
	    5     0.10012      29.30321           1
	    6     0.10000      29.43245           1
	------------------------------------------------
	Norm of target step-size    0.10000
	Projected energy change by RFO approximation:        -0.0038233443

	Back-transformation to cartesian coordinates...
	Could not converge backtransformation.
	Using first guess instead.

	--- Internal Coordinate Step in ANG or DEG, aJ/ANG or AJ/DEG ---
	 ---------------------------------------------------------------------------
	   Coordinate                Previous        Force       Change         New 
	   ----------                --------       ------       ------       ------
	    1 R(1,3)          =      1.394038    -0.083318    -0.009262     1.384776
	    2 R(1,9)          =      1.394891    -0.007817    -0.000764     1.394127
	    3 R(1,14)         =      1.087431    -0.041938    -0.005772     1.081659
	    4 R(2,4)          =      1.394521    -0.083063    -0.009133     1.385388
	    5 R(2,9)          =      1.394821    -0.018130    -0.001851     1.392970
	    6 R(2,15)         =      1.087831    -0.042002    -0.005766     1.082065
	    7 R(3,11)         =      1.394821    -0.060111    -0.006741     1.388080
	    8 R(3,16)         =      1.086899    -0.047279    -0.006441     1.080458
	    9 R(4,11)         =      1.395407    -0.011494    -0.001301     1.394107
	   10 R(4,17)         =      1.086527    -0.036255    -0.004977     1.081550
	   11 R(5,7)          =      1.387476    -0.092681    -0.010013     1.377463
	   12 R(5,10)         =      1.391738     0.033009     0.003712     1.395450
	   13 R(5,18)         =      1.086371    -0.051168    -0.007032     1.079338
	   14 R(6,8)          =      1.387201    -0.091177    -0.009848     1.377353
	   15 R(6,10)         =      1.391145     0.036067     0.004046     1.395191
	   16 R(6,19)         =      1.086791    -0.053385    -0.007329     1.079462
	   17 R(7,12)         =      1.339925     0.018110     0.001734     1.341659
	   18 R(7,20)         =      1.081651    -0.022704    -0.003058     1.078593
	   19 R(8,12)         =      1.340653     0.013961     0.001371     1.342024
	   20 R(8,21)         =      1.080411    -0.016069    -0.002157     1.078254
	   21 R(9,10)         =      1.446444     0.072860     0.009342     1.455786
	   22 R(11,13)        =      1.360865    -0.093831    -0.008643     1.352222
	   23 R(12,22)        =      1.019031    -0.047589    -0.005457     1.013574
	   24 R(13,23)        =      0.970199    -0.063228    -0.006009     0.964190
	   25 B(1,3,11)       =    120.009056    -0.000051    -0.152165   119.856891
	   26 B(1,3,16)       =    119.662516     0.000204     0.567561   120.230077
	   27 B(1,9,2)        =    119.959722    -0.000182    -0.352802   119.606920
	   28 B(1,9,10)       =    120.043881     0.000085     0.167121   120.211003
	   29 B(2,4,11)       =    119.960108     0.000065     0.142208   120.102317
	   30 B(2,4,17)       =    119.723926    -0.000007    -0.003313   119.720613
	   31 B(2,9,10)       =    119.996376     0.000097     0.183975   120.180351
	   32 B(3,1,9)        =    120.031219     0.000170     0.374521   120.405740
	   33 B(3,1,14)       =    119.144799    -0.000040    -0.064271   119.080528
	   34 B(3,11,4)       =    119.994870     0.000023     0.016982   120.011852
	   35 B(3,11,13)      =    120.008801    -0.001018    -2.098512   117.910290
	   36 B(4,2,9)        =    120.045019    -0.000024    -0.029900   120.015119
	   37 B(4,2,15)       =    119.099297     0.000099     0.253605   119.352902
	   38 B(4,11,13)      =    119.996326     0.000995     2.081500   122.077827
	   39 B(5,7,12)       =    120.141122    -0.000322    -0.744847   119.396275
	   40 B(5,7,20)       =    123.878322     0.000055     0.082780   123.961102
	   41 B(5,10,6)       =    119.893702    -0.000536    -1.117035   118.776667
	   42 B(5,10,9)       =    119.991963     0.000275     0.573135   120.565098
	   43 B(6,8,12)       =    120.036993    -0.000299    -0.690609   119.346384
	   44 B(6,8,21)       =    123.934819     0.000046     0.062336   123.997155
	   45 B(6,10,9)       =    120.114329     0.000262     0.542468   120.656797
	   46 B(7,5,10)       =    118.745745     0.000429     0.948756   119.694501
	   47 B(7,5,18)       =    119.731583    -0.000175    -0.368527   119.363055
	   48 B(7,12,8)       =    122.324641     0.000325     0.714332   123.038973
	   49 B(7,12,22)      =    118.848231    -0.000165    -0.363372   118.484859
	   50 B(8,6,10)       =    118.857786     0.000403     0.889014   119.746801
	   51 B(8,6,19)       =    119.708272    -0.000165    -0.348427   119.359845
	   52 B(8,12,22)      =    118.827038    -0.000161    -0.351025   118.476012
	   53 B(9,1,14)       =    120.823969    -0.000130    -0.310610   120.513359
	   54 B(9,2,15)       =    120.855683    -0.000075    -0.224519   120.631164
	   55 B(10,5,18)      =    121.522669    -0.000254    -0.580253   120.942416
	   56 B(10,6,19)      =    121.433938    -0.000237    -0.540706   120.893233
	   57 B(11,3,16)      =    120.328425    -0.000153    -0.415396   119.913029
	   58 B(11,4,17)      =    120.315955    -0.000057    -0.138934   120.177020
	   59 B(11,13,23)     =    110.322421    -0.000217    -0.598008   109.724413
	   60 B(12,7,20)      =    115.980508     0.000267     0.662005   116.642513
	   61 B(12,8,21)      =    116.028186     0.000253     0.628112   116.656299
	   62 D(1,3,11,4)     =     -0.018609     0.000006     0.170588     0.151979
	   63 D(1,3,11,13)    =    179.964785     0.000006     0.123957   180.088742
	   64 D(1,9,2,4)      =      0.018608     0.000010     0.337982     0.356590
	   65 D(1,9,2,15)     =   -179.994534    -0.000003     0.020530  -179.974004
	   66 D(1,9,10,5)     =    -60.028112     0.000038     0.387940   -59.640172
	   67 D(1,9,10,6)     =    120.001384     0.000045     0.800147   120.801531
	   68 D(2,4,11,3)     =      0.017261     0.000004     0.091279     0.108540
	   69 D(2,4,11,13)    =   -179.966135     0.000005     0.140625  -179.825510
	   70 D(2,9,1,3)      =     -0.019945     0.000001    -0.076285    -0.096230
	   71 D(2,9,1,14)     =   -179.978731    -0.000010    -0.341558  -180.320289
	   72 D(2,9,10,5)     =    120.024391     0.000046     0.815255   120.839646
	   73 D(2,9,10,6)     =    -59.946113     0.000053     1.227462   -58.718650
	   74 D(3,1,9,10)     =   -179.967461     0.000009     0.348297  -179.619164
	   75 D(3,11,4,17)    =    179.978848     0.000003     0.048127   180.026975
	   76 D(3,11,13,23)   =    179.956172    -0.000001    -0.006622   179.949550
	   77 D(4,2,9,10)     =    179.966149     0.000001    -0.086477   179.879672
	   78 D(4,11,3,16)    =    180.000000     0.000006     0.170222   180.170222
	   79 D(4,11,13,23)   =     -0.060434    -0.000001    -0.054641    -0.115075
	   80 D(5,7,12,8)     =      0.040859    -0.000001    -0.002816     0.038044
	   81 D(5,7,12,22)    =    179.930309    -0.000001    -0.038004   179.892305
	   82 D(5,10,6,8)     =      0.008795     0.000002     0.166219     0.175014
	   83 D(5,10,6,19)    =   -179.969593    -0.000003     0.016776  -179.952816
	   84 D(6,8,12,7)     =     -0.033685    -0.000002    -0.064943    -0.098628
	   85 D(6,8,12,22)    =   -179.923157    -0.000002    -0.029744  -179.952901
	   86 D(6,10,5,7)     =     -0.001920    -0.000005    -0.232727    -0.234647
	   87 D(6,10,5,18)    =   -179.981825    -0.000009    -0.313212  -180.295037
	   88 D(7,5,10,9)     =   -179.972489     0.000002     0.171349  -179.801141
	   89 D(7,12,8,21)    =    179.982493     0.000004     0.059682   180.042174
	   90 D(8,6,10,9)     =    179.979328    -0.000005    -0.238231   179.741097
	   91 D(8,12,7,20)    =    179.964528     0.000006     0.189406   180.153935
	   92 D(9,1,3,11)     =      0.019955    -0.000009    -0.177523    -0.157569
	   93 D(9,1,3,16)     =   -179.998735    -0.000008    -0.177135  -180.175870
	   94 D(9,2,4,11)     =     -0.017270    -0.000012    -0.346051    -0.363321
	   95 D(9,2,4,17)     =   -179.979086    -0.000011    -0.303045  -180.282130
	   96 D(9,10,5,18)    =      0.047605    -0.000002     0.090864     0.138469
	   97 D(9,10,6,19)    =      0.000941    -0.000010    -0.387674    -0.386733
	   98 D(10,5,7,12)    =     -0.022314     0.000005     0.153956     0.131642
	   99 D(10,5,7,20)    =   -179.939665    -0.000003    -0.053584  -179.993248
	  100 D(10,6,8,12)    =      0.008282     0.000001    -0.020090    -0.011808
	  101 D(10,6,8,21)    =    179.990761    -0.000005    -0.154351   179.836411
	  102 D(10,9,1,14)    =      0.073752    -0.000002     0.083024     0.156777
	  103 D(10,9,2,15)    =     -0.046992    -0.000011    -0.403929    -0.450921
	  104 D(11,3,1,14)    =    179.979432     0.000002     0.083872   180.063305
	  105 D(11,4,2,15)    =    179.995641    -0.000000    -0.032599   179.963042
	  106 D(12,7,5,18)    =    179.957960     0.000009     0.233113   180.191073
	  107 D(12,8,6,19)    =    179.987051     0.000007     0.127001   180.114052
	  108 D(13,11,3,16)   =     -0.016400     0.000005     0.123385     0.106985
	  109 D(13,11,4,17)   =     -0.004548     0.000004     0.097473     0.092925
	  110 D(14,1,3,16)    =     -0.039257     0.000003     0.084260     0.045003
	  111 D(15,2,4,17)    =      0.033826     0.000001     0.010408     0.044233
	  112 D(18,5,7,20)    =      0.040609     0.000000     0.025573     0.066183
	  113 D(19,6,8,21)    =     -0.030470     0.000000    -0.007259    -0.037729
	  114 D(20,7,12,22)   =     -0.146022     0.000006     0.154218     0.008196
	  115 D(21,8,12,22)   =      0.093021     0.000004     0.094881     0.187901
	 ---------------------------------------------------------------------------
	Successfully symmetrized geometry.
	 Forces used to impose fixed constraints are not included.
	  Forces zeroed: 66 

  ==> Convergence Check <==

  Measures of convergence in internal coordinates in au.
  Criteria marked as inactive (o), active & met (*), and active & unmet ( ).
  --------------------------------------------------------------------------------------------- ~
   Step     Total Energy     Delta E     MAX Force     RMS Force      MAX Disp      RMS Disp    ~
  --------------------------------------------------------------------------------------------- ~
    Convergence Criteria    1.00e-06 *    3.00e-04 *             o    1.20e-03 *             o  ~
  --------------------------------------------------------------------------------------------- ~
      1    -554.09397969   -5.54e+02      1.34e-02      3.87e-03 o    3.66e-02      9.31e-03 o  ~
  ---------------------------------------------------------------------------------------------

	Writing optimization data to binary file.
	Structure for next step:
	Cartesian Geometry (in Angstrom)
	    C    -1.2847957904   0.7147539535  -0.5606301880
	    C    -0.2770063671   0.1116982215   1.5425800347
	    C    -2.3532677717   1.2868464032   0.1092082091
	    C    -1.3482877171   0.6790861738   2.2131965864
	    C     0.6829085493  -1.5140364004  -1.4615454009
	    C     2.1832113283  -0.0108225027  -0.3400473123
	    C     1.7609993314  -2.0645271913  -2.1188766056
	    C     3.2346143697  -0.5889101435  -1.0164109065
	    C    -0.2414373616   0.1232836758   0.1501125544
	    C     0.8837840428  -0.4695769348  -0.5581995152
	    C    -2.3885205436   1.2691034099   1.4967272005
	    N     2.9921425748  -1.5887221301  -1.8781600649
	    O    -3.4511636612   1.8373734423   2.1102107751
	    H    -1.2696480749   0.7365818391  -1.6419629708
	    H     0.5240871217  -0.3424558834   2.1107857228
	    H    -3.1589816445   1.7469842250  -0.4444042905
	    H    -1.3732348166   0.6633747852   3.2943448031
	    H    -0.3069286839  -1.8993031786  -1.6532807928
	    H     2.3777883852   0.7946383672   0.3517694532
	    H     1.6850399737  -2.8721862853  -2.8297065857
	    H     4.2635399690  -0.2872978791  -0.9025069620
	    H     3.7756452776  -2.0050397688  -2.3681959872
	    H    -3.3555463881   1.7582562480   3.0663800674
			--------------------------
			 OPTKING Finished Execution 
			--------------------------

    Structure for next step:
    Molecular point group: c1
    Full point group: C1

    Geometry (in Angstrom), charge = 1, multiplicity = 1:

    C           -1.285441159304     0.715540690772    -0.560056423841
    C           -0.277651736023     0.112484958760     1.543153798862
    C           -2.353913140602     1.287633140429     0.109781973270
    C           -1.348933085999     0.679872911024     2.213770350632
    C            0.682263180419    -1.513249663131    -1.460971636681
    C            2.182565959425    -0.010035765473    -0.339473548122
    C            1.760353962527    -2.063740454066    -2.118302841410
    C            3.233969000819    -0.588123406312    -1.015837142269
    C           -0.242082730482     0.124070413057     0.150686318558
    C            0.883138673901    -0.468790197609    -0.557625750994
    C           -2.389165912478     1.269890147088     1.497300964731
    N            2.991497205948    -1.587935392849    -1.877586300750
    O           -3.451809030055     1.838160179552     2.110784539342
    H           -1.270293443757     0.737368576322    -1.641389206607
    H            0.523441752769    -0.341669146209     2.111359487014
    H           -3.159627013355     1.747770962257    -0.443830526285
    H           -1.373880185475     0.664161522408     3.294918567256
    H           -0.307574052738    -1.898516441367    -1.652707028587
    H            2.377143016287     0.795425104425     0.352343217386
    H            1.684394604854    -2.871399548028    -2.829132821464
    H            4.262894600146    -0.286511141862    -0.901933197783
    H            3.774999908745    -2.004253031556    -2.367622223012
    H           -3.356191756979     1.759042985226     3.066953831601

gradient() will perform analytic gradient computation.

*** tstart() called on gpu-1-11.local
*** at Sun Nov 12 08:38:36 2017

    SCF Algorithm Type (re)set to DF.

*** tstart() called on gpu-1-11.local
*** at Sun Nov 12 08:38:36 2017

   => Loading Basis Set <=

    Name: AUG-CC-PVTZ
    Role: ORBITAL
    Keyword: BASIS
    atoms 1-11  entry C          line   221 file /cbio/jclab/home/chayas/anaconda/envs/py35/share/psi4/basis/aug-cc-pvtz.gbs 
    atoms 12    entry N          line   267 file /cbio/jclab/home/chayas/anaconda/envs/py35/share/psi4/basis/aug-cc-pvtz.gbs 
    atoms 13    entry O          line   313 file /cbio/jclab/home/chayas/anaconda/envs/py35/share/psi4/basis/aug-cc-pvtz.gbs 
    atoms 14-23 entry H          line    34 file /cbio/jclab/home/chayas/anaconda/envs/py35/share/psi4/basis/aug-cc-pvtz.gbs 


         ---------------------------------------------------------
                                   SCF
            by Justin Turney, Rob Parrish, and Andy Simmonett
                              RHF Reference
                        8 Threads,   4768 MiB Core
         ---------------------------------------------------------

  ==> Geometry <==

    Molecular point group: c1
    Full point group: C1

    Geometry (in Angstrom), charge = 1, multiplicity = 1:

       Center              X                  Y                   Z               Mass       
    ------------   -----------------  -----------------  -----------------  -----------------
           C         -1.285441159304     0.715540690772    -0.560056423841    12.000000000000
           C         -0.277651736023     0.112484958760     1.543153798862    12.000000000000
           C         -2.353913140602     1.287633140429     0.109781973270    12.000000000000
           C         -1.348933085999     0.679872911024     2.213770350632    12.000000000000
           C          0.682263180419    -1.513249663131    -1.460971636681    12.000000000000
           C          2.182565959425    -0.010035765473    -0.339473548122    12.000000000000
           C          1.760353962527    -2.063740454066    -2.118302841410    12.000000000000
           C          3.233969000819    -0.588123406312    -1.015837142269    12.000000000000
           C         -0.242082730482     0.124070413057     0.150686318558    12.000000000000
           C          0.883138673901    -0.468790197609    -0.557625750994    12.000000000000
           C         -2.389165912478     1.269890147088     1.497300964731    12.000000000000
           N          2.991497205948    -1.587935392849    -1.877586300750    14.003074004780
           O         -3.451809030055     1.838160179552     2.110784539342    15.994914619560
           H         -1.270293443757     0.737368576322    -1.641389206607     1.007825032070
           H          0.523441752769    -0.341669146209     2.111359487014     1.007825032070
           H         -3.159627013355     1.747770962257    -0.443830526285     1.007825032070
           H         -1.373880185475     0.664161522408     3.294918567256     1.007825032070
           H         -0.307574052738    -1.898516441367    -1.652707028587     1.007825032070
           H          2.377143016287     0.795425104425     0.352343217386     1.007825032070
           H          1.684394604854    -2.871399548028    -2.829132821464     1.007825032070
           H          4.262894600146    -0.286511141862    -0.901933197783     1.007825032070
           H          3.774999908745    -2.004253031556    -2.367622223012     1.007825032070
           H         -3.356191756979     1.759042985226     3.066953831601     1.007825032070

  Running in c1 symmetry.

  Rotational constants: A =      0.09641  B =      0.01302  C =      0.01218 [cm^-1]
  Rotational constants: A =   2890.16801  B =    390.34893  C =    365.12551 [MHz]
  Nuclear repulsion =  712.978361769773869

  Charge       = 1
  Multiplicity = 1
  Electrons    = 90
  Nalpha       = 45
  Nbeta        = 45

  ==> Algorithm <==

  SCF Algorithm Type is DF.
  DIIS enabled.
  MOM disabled.
  Fractional occupation disabled.
  Guess Type is READ.
  Energy threshold   = 1.00e-10
  Density threshold  = 1.00e-10
  Integral threshold = 0.00e+00

  ==> Primary Basis <==

  Basis Set: AUG-CC-PVTZ
    Blend: AUG-CC-PVTZ
    Number of shells: 272
    Number of basis function: 828
    Number of Cartesian functions: 965
    Spherical Harmonics?: true
    Max angular momentum: 3

   => Loading Basis Set <=

    Name: (AUG-CC-PVTZ AUX)
    Role: JKFIT
    Keyword: DF_BASIS_SCF
    atoms 1-11  entry C          line   161 file /cbio/jclab/home/chayas/anaconda/envs/py35/share/psi4/basis/aug-cc-pvtz-jkfit.gbs 
    atoms 12    entry N          line   223 file /cbio/jclab/home/chayas/anaconda/envs/py35/share/psi4/basis/aug-cc-pvtz-jkfit.gbs 
    atoms 13    entry O          line   285 file /cbio/jclab/home/chayas/anaconda/envs/py35/share/psi4/basis/aug-cc-pvtz-jkfit.gbs 
    atoms 14-23 entry H          line    69 file /cbio/jclab/home/chayas/anaconda/envs/py35/share/psi4/basis/aug-cc-pvtz-jkfit.gbs 

  Reading orbitals from file 180, no projection.

  ==> Pre-Iterations <==

   -------------------------------------------------------
    Irrep   Nso     Nmo     Nalpha   Nbeta   Ndocc  Nsocc
   -------------------------------------------------------
     A        828     828       0       0       0       0
   -------------------------------------------------------
    Total     828     828      45      45      45       0
   -------------------------------------------------------

  ==> Integral Setup <==

  ==> DFJK: Density-Fitted J/K Matrices <==

    J tasked:                  Yes
    K tasked:                  Yes
    wK tasked:                  No
    OpenMP threads:              8
    Integrals threads:           8
    Memory (MB):              3576
    Algorithm:                Disk
    Integral Cache:           NONE
    Schwarz Cutoff:          1E-12
    Fitting Condition:       1E-12

   => Auxiliary Basis Set <=

  Basis Set: (AUG-CC-PVTZ AUX)
    Blend: AUG-CC-PVTZ-JKFIT
    Number of shells: 530
    Number of basis function: 1812
    Number of Cartesian functions: 2253
    Spherical Harmonics?: true
    Max angular momentum: 4

  Minimum eigenvalue in the overlap matrix is 5.4487074137E-07.
  Using Symmetric Orthogonalization.

  SCF Guess: Orbitals guess was supplied from a previous computation.

  ==> Iterations <==

                           Total Energy        Delta E     RMS |[F,P]|

   @DF-RHF iter   0:  -551.75269786960473   -5.51753e+02   4.13919e-04 
   @DF-RHF iter   1:  -551.67714084830243    7.55570e-02   7.63475e-05 
   @DF-RHF iter   2:  -551.67738554965661   -2.44701e-04   5.11355e-05 DIIS
   @DF-RHF iter   3:  -551.67751111043833   -1.25561e-04   9.04819e-06 DIIS
   @DF-RHF iter   4:  -551.67751790762566   -6.79719e-06   3.69876e-06 DIIS
   @DF-RHF iter   5:  -551.67751953210120   -1.62448e-06   9.81861e-07 DIIS
   @DF-RHF iter   6:  -551.67751974694556   -2.14844e-07   4.85292e-07 DIIS
   @DF-RHF iter   7:  -551.67751980938556   -6.24400e-08   2.31796e-07 DIIS
   @DF-RHF iter   8:  -551.67751982986636   -2.04808e-08   9.36281e-08 DIIS
   @DF-RHF iter   9:  -551.67751983352252   -3.65617e-09   4.12455e-08 DIIS
   @DF-RHF iter  10:  -551.67751983383425   -3.11729e-10   1.47472e-08 DIIS
   @DF-RHF iter  11:  -551.67751983389246   -5.82077e-11   3.76353e-09 DIIS
   @DF-RHF iter  12:  -551.67751983389553   -3.06954e-12   1.48720e-09 DIIS
   @DF-RHF iter  13:  -551.67751983388848    7.04858e-12   6.33940e-10 DIIS
   @DF-RHF iter  14:  -551.67751983389394   -5.45697e-12   3.19443e-10 DIIS
   @DF-RHF iter  15:  -551.67751983388109    1.28466e-11   1.65293e-10 DIIS
   @DF-RHF iter  16:  -551.67751983389098   -9.89075e-12   6.03730e-11 DIIS

  ==> Post-Iterations <==

    Orbital Energies (a.u.)
    -----------------------

    Doubly Occupied:                                                      

       1A    -20.697177     2A    -15.839284     3A    -11.486722  
       4A    -11.486572     5A    -11.449856     6A    -11.422958  
       7A    -11.416464     8A    -11.416343     9A    -11.371805  
      10A    -11.369507    11A    -11.367961    12A    -11.350752  
      13A    -11.344608    14A     -1.517773    15A     -1.515809  
      16A     -1.318595    17A     -1.264476    18A     -1.243802  
      19A     -1.153379    20A     -1.147540    21A     -1.068689  
      22A     -1.057298    23A     -0.973656    24A     -0.967312  
      25A     -0.947596    26A     -0.873308    27A     -0.859986  
      28A     -0.851968    29A     -0.821269    30A     -0.803520  
      31A     -0.788601    32A     -0.775801    33A     -0.751833  
      34A     -0.730467    35A     -0.716329    36A     -0.711126  
      37A     -0.701308    38A     -0.685159    39A     -0.650704  
      40A     -0.621735    41A     -0.612412    42A     -0.573637  
      43A     -0.542326    44A     -0.466630    45A     -0.435666  

    Virtual:                                                              

      46A     -0.103887    47A     -0.086264    48A     -0.064703  
      49A     -0.063145    50A     -0.059260    51A     -0.052570  
      52A     -0.042185    53A     -0.039683    54A     -0.038061  
      55A     -0.031036    56A     -0.023647    57A     -0.021291  
      58A     -0.014082    59A     -0.009870    60A     -0.003276  
      61A     -0.002264    62A     -0.000588    63A      0.008480  
      64A      0.009392    65A      0.012513    66A      0.013424  
      67A      0.018714    68A      0.019327    69A      0.026642  
      70A      0.029753    71A      0.032958    72A      0.034382  
      73A      0.037349    74A      0.039796    75A      0.044315  
      76A      0.046272    77A      0.049053    78A      0.053522  
      79A      0.056649    80A      0.062971    81A      0.063378  
      82A      0.071088    83A      0.076540    84A      0.079258  
      85A      0.083746    86A      0.086416    87A      0.092831  
      88A      0.094833    89A      0.096883    90A      0.104969  
      91A      0.107748    92A      0.113115    93A      0.118727  
      94A      0.122115    95A      0.130449    96A      0.131917  
      97A      0.133657    98A      0.134736    99A      0.141311  
     100A      0.143916   101A      0.150394   102A      0.158229  
     103A      0.161381   104A      0.162415   105A      0.166615  
     106A      0.167558   107A      0.170816   108A      0.175163  
     109A      0.175644   110A      0.177447   111A      0.184478  
     112A      0.186904   113A      0.189536   114A      0.196491  
     115A      0.198292   116A      0.203949   117A      0.211320  
     118A      0.213421   119A      0.214714   120A      0.220236  
     121A      0.222000   122A      0.227584   123A      0.228748  
     124A      0.232411   125A      0.235169   126A      0.240767  
     127A      0.243832   128A      0.248287   129A      0.252576  
     130A      0.257808   131A      0.260430   132A      0.264374  
     133A      0.272327   134A      0.279989   135A      0.281340  
     136A      0.283454   137A      0.289155   138A      0.294012  
     139A      0.296715   140A      0.304447   141A      0.311527  
     142A      0.315145   143A      0.317531   144A      0.319995  
     145A      0.324333   146A      0.325332   147A      0.329403  
     148A      0.330965   149A      0.334551   150A      0.341354  
     151A      0.343101   152A      0.346416   153A      0.348561  
     154A      0.350671   155A      0.354054   156A      0.356861  
     157A      0.359754   158A      0.363382   159A      0.370486  
     160A      0.373538   161A      0.373824   162A      0.375123  
     163A      0.379158   164A      0.385710   165A      0.389804  
     166A      0.390660   167A      0.395186   168A      0.400955  
     169A      0.404053   170A      0.407781   171A      0.408621  
     172A      0.412797   173A      0.415993   174A      0.419556  
     175A      0.427356   176A      0.429900   177A      0.431107  
     178A      0.437564   179A      0.441238   180A      0.448281  
     181A      0.452709   182A      0.455991   183A      0.457649  
     184A      0.467145   185A      0.471784   186A      0.480403  
     187A      0.481447   188A      0.484021   189A      0.487995  
     190A      0.492542   191A      0.499733   192A      0.503589  
     193A      0.519486   194A      0.521991   195A      0.523675  
     196A      0.539436   197A      0.542778   198A      0.545779  
     199A      0.558126   200A      0.561559   201A      0.565657  
     202A      0.568734   203A      0.573963   204A      0.577523  
     205A      0.582551   206A      0.591114   207A      0.596105  
     208A      0.599287   209A      0.604031   210A      0.607014  
     211A      0.609666   212A      0.616809   213A      0.620145  
     214A      0.623246   215A      0.627771   216A      0.632778  
     217A      0.636454   218A      0.644091   219A      0.647362  
     220A      0.656676   221A      0.669552   222A      0.677854  
     223A      0.682969   224A      0.688936   225A      0.691649  
     226A      0.699409   227A      0.706437   228A      0.710924  
     229A      0.715041   230A      0.722929   231A      0.725781  
     232A      0.730041   233A      0.740441   234A      0.745946  
     235A      0.749359   236A      0.753373   237A      0.760689  
     238A      0.762409   239A      0.765568   240A      0.771628  
     241A      0.774173   242A      0.778434   243A      0.781155  
     244A      0.788189   245A      0.790245   246A      0.793890  
     247A      0.796881   248A      0.798111   249A      0.805315  
     250A      0.807933   251A      0.809513   252A      0.811202  
[...]
	 D(1,3,11,4)      =         0.018587	       1.064979
	 D(1,3,11,13)     =        -3.128805	    -179.267334
	 D(1,9,2,4)       =         0.060150	       3.446325
	 D(1,9,2,15)      =        -3.123613	    -178.969849
	 D(1,9,10,5)      =        -1.036266	     -59.373647
	 D(1,9,10,6)      =         2.193571	     125.682373
	 D(2,4,11,3)      =         0.003783	       0.216732
	 D(2,4,11,13)     =        -3.131611	    -179.428092
	 D(2,9,1,3)       =        -0.037745	      -2.162635
	 D(2,9,1,14)      =         3.087530	     176.902417
	 D(2,9,10,5)      =         2.220706	     127.237067
	 D(2,9,10,6)      =        -0.832643	     -47.706912
	 D(3,1,9,10)      =        -3.065061	    -175.615055
	 D(3,11,4,17)     =        -3.141258	    -179.980834
	 D(3,11,13,23)    =        -3.138397	    -179.816910
	 D(4,2,9,10)      =         3.087252	     176.886489
	 D(4,11,3,16)     =        -3.113231	    -178.375009
	 D(4,11,13,23)    =        -0.002820	      -0.161554
	 D(5,7,12,8)      =         0.003327	       0.190596
	 D(5,7,12,22)     =         3.137308	     179.754522
	 D(5,10,6,8)      =         0.036960	       2.117625
	 D(5,10,6,19)     =        -3.127488	    -179.191843
	 D(6,8,12,7)      =        -0.008079	      -0.462895
	 D(6,8,12,22)     =         3.141124	     179.973132
	 D(6,10,5,7)      =        -0.041731	      -2.391027
	 D(6,10,5,18)     =         3.095492	     177.358627
	 D(7,5,10,9)      =        -3.098026	    -177.503833
	 D(7,12,8,21)     =         3.139728	     179.893167
	 D(8,6,10,9)      =         3.093255	     177.230473
	 D(8,12,7,20)     =        -3.117242	    -178.604838
	 D(9,1,3,11)      =        -0.001374	      -0.078714
	 D(9,1,3,16)      =         3.130210	     179.347815
	 D(9,2,4,11)      =        -0.043387	      -2.485915
	 D(9,2,4,17)      =         3.101649	     177.711377
	 D(9,10,5,18)     =         0.039197	       2.245821
	 D(9,10,6,19)     =        -0.071192	      -4.078995
	 D(10,5,7,12)     =         0.022395	       1.283157
	 D(10,5,7,20)     =         3.141396	     179.988737
	 D(10,6,8,12)     =        -0.012895	      -0.738833
	 D(10,6,8,21)     =         3.122021	     178.878648
	 D(10,9,1,14)     =         0.060214	       3.449996
	 D(10,9,2,15)     =        -0.096511	      -5.529685
	 D(11,3,1,14)     =        -3.126735	    -179.148715
	 D(11,4,2,15)     =         3.140073	     179.912946
	 D(12,7,5,18)     =        -3.114876	    -178.469237
	 D(12,8,6,19)     =        -3.131894	    -179.444293
	 D(13,11,3,16)    =         0.022561	       1.292678
	 D(13,11,4,17)    =         0.006534	       0.374343
	 D(14,1,3,16)     =         0.004849	       0.277814
	 D(15,2,4,17)     =         0.001924	       0.110237
	 D(18,5,7,20)     =         0.004125	       0.236343
	 D(19,6,8,21)     =         0.003023	       0.173188
	 D(20,7,12,22)    =         0.016739	       0.959088
	 D(21,8,12,22)    =         0.005746	       0.329195

	Current energy   :      -554.0976018937

	Energy change for the previous step:
		Projected    :         0.0000161734
		Actual       :        -0.0000014357

	Performing BFGS update.
	Previous computed or guess Hessian on step 1.
	Steps to be used in Hessian update: 15 14
	Adding user-defined constraint: Fragment 1; Coordinate 66:
		Value =    -1.036266; Fixed value    =    -1.047200
		Force =    -0.009568; Force constant =     0.875000
	Removing off-diagonal coupling between coordinate 66 and others.
	Taking RFO optimization step.
	Going to follow RFO solution 1.
	Rejecting RFO root 1 because normalization gives large value.
	Rejecting RFO root 2 because normalization gives large value.
	Using RFO vector 3.
	Norm of target step-size    0.00369
	Projected energy change by RFO approximation:         0.0000005771

	Back-transformation to cartesian coordinates...
	Successfully converged to displaced geometry.

	--- Internal Coordinate Step in ANG or DEG, aJ/ANG or AJ/DEG ---
	 ---------------------------------------------------------------------------
	   Coordinate                Previous        Force       Change         New 
	   ----------                --------       ------       ------       ------
	    1 R(1,3)          =      1.379722    -0.000107    -0.000020     1.379702
	    2 R(1,9)          =      1.396708    -0.000219    -0.000029     1.396679
	    3 R(1,14)         =      1.080511    -0.000328    -0.000055     1.080456
	    4 R(2,4)          =      1.382371    -0.000108    -0.000024     1.382347
	    5 R(2,9)          =      1.394578    -0.000217    -0.000030     1.394549
	    6 R(2,15)         =      1.080512    -0.000363    -0.000064     1.080449
	    7 R(3,11)         =      1.392289    -0.000666    -0.000091     1.392198
	    8 R(3,16)         =      1.078565    -0.000197    -0.000036     1.078529
	    9 R(4,11)         =      1.392573    -0.000247    -0.000031     1.392542
	   10 R(4,17)         =      1.080431    -0.000310    -0.000059     1.080372
	   11 R(5,7)          =      1.374021    -0.000057    -0.000014     1.374007
	   12 R(5,10)         =      1.398100    -0.000301    -0.000041     1.398059
	   13 R(5,18)         =      1.078334    -0.000527    -0.000091     1.078244
	   14 R(6,8)          =      1.374153    -0.000096    -0.000018     1.374135
	   15 R(6,10)         =      1.397989    -0.000158    -0.000030     1.397960
	   16 R(6,19)         =      1.078203    -0.000562    -0.000097     1.078106
	   17 R(7,12)         =      1.343067    -0.000447    -0.000052     1.343015
	   18 R(7,20)         =      1.077265    -0.000192    -0.000035     1.077230
	   19 R(8,12)         =      1.342754    -0.000407    -0.000045     1.342709
	   20 R(8,21)         =      1.077306    -0.000211    -0.000041     1.077265
	   21 R(9,10)         =      1.450866     0.001217     0.000178     1.451045
	   22 R(11,13)        =      1.346288    -0.000050    -0.000001     1.346287
	   23 R(12,22)        =      1.012286    -0.000245    -0.000036     1.012250
	   24 R(13,23)        =      0.963449    -0.000447    -0.000057     0.963392
	   25 B(1,3,11)       =    119.957889     0.000000     0.000979   119.958869
	   26 B(1,3,16)       =    121.197022     0.000000     0.000857   121.197879
	   27 B(1,9,2)        =    119.314763    -0.000004    -0.010208   119.304555
	   28 B(1,9,10)       =    120.087387     0.000001     0.004128   120.091515
	   29 B(2,4,11)       =    120.010114     0.000000    -0.000084   120.010030
	   30 B(2,4,17)       =    119.925898    -0.000000    -0.000214   119.925684
	   31 B(2,9,10)       =    120.270841     0.000000     0.002890   120.273731
	   32 B(3,1,9)        =    120.429192     0.000002     0.005879   120.435071
	   33 B(3,1,14)       =    119.516413     0.000000     0.002205   119.518618
	   34 B(3,11,4)       =    119.936218    -0.000001    -0.003013   119.933205
	   35 B(3,11,13)      =    116.739006    -0.000002    -0.005138   116.733868
	   36 B(4,2,9)        =    120.272009     0.000001     0.004821   120.276830
	   37 B(4,2,15)       =    119.483248    -0.000000    -0.000213   119.483035
	   38 B(4,11,13)      =    123.323883     0.000003     0.008319   123.332202
	   39 B(5,7,12)       =    119.152167     0.000000    -0.000056   119.152111
	   40 B(5,7,20)       =    123.921932     0.000001     0.003474   123.925407
	   41 B(5,10,6)       =    117.639216    -0.000003    -0.009288   117.629928
	   42 B(5,10,9)       =    121.088431     0.000000     0.004323   121.092754
	   43 B(6,8,12)       =    119.219560    -0.000000    -0.001056   119.218504
	   44 B(6,8,21)       =    123.884945     0.000001     0.005346   123.890291
	   45 B(6,10,9)       =    121.087639     0.000002     0.007523   121.095161
	   46 B(7,5,10)       =    120.518965     0.000002     0.006031   120.524995
	   47 B(7,5,18)       =    119.188445    -0.000000    -0.001057   119.187389
	   48 B(7,12,8)       =    122.968722    -0.000000    -0.001986   122.966735
	   49 B(7,12,22)      =    118.520542     0.000000     0.001357   118.521899
	   50 B(8,6,10)       =    120.460184     0.000002     0.006759   120.466944
	   51 B(8,6,19)       =    119.189291    -0.000000    -0.000455   119.188836
	   52 B(8,12,22)      =    118.509344     0.000000     0.000481   118.509825
	   53 B(9,1,14)       =    120.047852    -0.000002    -0.009025   120.038828
	   54 B(9,2,15)       =    120.201057    -0.000001    -0.005194   120.195862
	   55 B(10,5,18)      =    120.292124    -0.000001    -0.005135   120.286988
	   56 B(10,6,19)      =    120.337774    -0.000002    -0.005715   120.332059
	   57 B(11,3,16)      =    118.842660    -0.000001    -0.001605   118.841055
	   58 B(11,4,17)      =    120.063694    -0.000000     0.000192   120.063885
	   59 B(11,13,23)     =    110.450304    -0.000001    -0.000493   110.449811
	   60 B(12,7,20)      =    116.914017    -0.000001    -0.003354   116.910663
	   61 B(12,8,21)      =    116.894458    -0.000001    -0.004388   116.890070
	   62 D(1,3,11,4)     =      1.064979     0.000000     0.026131     1.091110
	   63 D(1,3,11,13)    =   -179.267334     0.000000     0.059109  -179.208225
	   64 D(1,9,2,4)      =      3.446325     0.000002     0.028617     3.474943
	   65 D(1,9,2,15)     =   -178.969849     0.000001     0.012471  -178.957378
	   66 D(1,9,10,5)     =    -59.373647    -0.000009    -0.020912   -59.394559
	   67 D(1,9,10,6)     =    125.682373    -0.000005    -0.055509   125.626864
	   68 D(2,4,11,3)     =      0.216732    -0.000000     0.020506     0.237237
	   69 D(2,4,11,13)    =   -179.428092     0.000000    -0.014696  -179.442788
	   70 D(2,9,1,3)      =     -2.162635    -0.000001     0.018292    -2.144343
	   71 D(2,9,1,14)     =    176.902417    -0.000001    -0.046640   176.855776
	   72 D(2,9,10,5)     =    127.237067    -0.000004     0.011806   127.248874
	   73 D(2,9,10,6)     =    -47.706912    -0.000000    -0.022791   -47.729703
	   74 D(3,1,9,10)     =   -175.615055     0.000003     0.049839  -175.565215
	   75 D(3,11,4,17)    =   -179.980834    -0.000001    -0.012225  -179.993059
	   76 D(3,11,13,23)   =   -179.816910    -0.000000    -0.031929  -179.848839
	   77 D(4,2,9,10)     =    176.886489    -0.000003    -0.002908   176.883581
	   78 D(4,11,3,16)    =   -178.375009     0.000000    -0.001235  -178.376243
	   79 D(4,11,13,23)   =     -0.161554    -0.000000     0.002233    -0.159320
	   80 D(5,7,12,8)     =      0.190596     0.000000     0.031532     0.222128
	   81 D(5,7,12,22)    =    179.754522    -0.000000     0.008848   179.763370
	   82 D(5,10,6,8)     =      2.117625     0.000001    -0.020203     2.097422
	   83 D(5,10,6,19)    =   -179.191843     0.000001     0.010434  -179.181409
	   84 D(6,8,12,7)     =     -0.462895    -0.000000    -0.036954    -0.499850
	   85 D(6,8,12,22)    =    179.973132    -0.000000    -0.014276   179.958856
	   86 D(6,10,5,7)     =     -2.391027    -0.000001     0.014802    -2.376225
	   87 D(6,10,5,18)    =    177.358627    -0.000001    -0.025367   177.333260
	   88 D(7,5,10,9)     =   -177.503833     0.000003    -0.019432  -177.523266
	   89 D(7,12,8,21)    =    179.893167    -0.000000    -0.020491   179.872676
	   90 D(8,6,10,9)     =    177.230473    -0.000003     0.013867   177.244339
	   91 D(8,12,7,20)    =   -178.604838     0.000001     0.028192  -178.576646
	   92 D(9,1,3,11)     =     -0.078714     0.000000    -0.045388    -0.124102
	   93 D(9,1,3,16)     =    179.347815     0.000000    -0.017378   179.330438
	   94 D(9,2,4,11)     =     -2.485915    -0.000001    -0.048147    -2.534061
	   95 D(9,2,4,17)     =    177.711377    -0.000001    -0.015462   177.695915
	   96 D(9,10,5,18)    =      2.245821     0.000003    -0.059602     2.186219
	   97 D(9,10,6,19)    =     -4.078995    -0.000003     0.044504    -4.034492
	   98 D(10,5,7,12)    =      1.283157     0.000000    -0.019826     1.263331
	   99 D(10,5,7,20)    =    179.988737     0.000000    -0.016328   179.972410
	  100 D(10,6,8,12)    =     -0.738833    -0.000000     0.030687    -0.708146
	  101 D(10,6,8,21)    =    178.878648    -0.000000     0.012959   178.891608
	  102 D(10,9,1,14)    =      3.449996     0.000003    -0.015093     3.434903
	  103 D(10,9,2,15)    =     -5.529685    -0.000004    -0.019054    -5.548740
	  104 D(11,3,1,14)    =   -179.148715     0.000000     0.019313  -179.129402
	  105 D(11,4,2,15)    =    179.912946    -0.000000    -0.031994   179.880952
	  106 D(12,7,5,18)    =   -178.469237     0.000000     0.019916  -178.449321
	  107 D(12,8,6,19)    =   -179.444293    -0.000000     0.000468  -179.443825
	  108 D(13,11,3,16)   =      1.292678     0.000000     0.031743     1.324421
	  109 D(13,11,4,17)   =      0.374343    -0.000000    -0.047427     0.326915
	  110 D(14,1,3,16)    =      0.277814     0.000000     0.047323     0.325137
	  111 D(15,2,4,17)    =      0.110237     0.000000     0.000691     0.110928
	  112 D(18,5,7,20)    =      0.236343     0.000000     0.023414     0.259757
	  113 D(19,6,8,21)    =      0.173188    -0.000000    -0.017260     0.155929
	  114 D(20,7,12,22)   =      0.959088     0.000000     0.005508     0.964596
	  115 D(21,8,12,22)   =      0.329195    -0.000000     0.002187     0.331382
	 ---------------------------------------------------------------------------
	Successfully symmetrized geometry.
	 Forces used to impose fixed constraints are not included.
	  Forces zeroed: 66 

  ==> Convergence Check <==

  Measures of convergence in internal coordinates in au.
  Criteria marked as inactive (o), active & met (*), and active & unmet ( ).
  ---------------------------------------------------------------------------------------------
   Step     Total Energy     Delta E     MAX Force     RMS Force      MAX Disp      RMS Disp   
  ---------------------------------------------------------------------------------------------
    Convergence Criteria    1.00e-06 *    3.00e-04 *             o    1.20e-03 *             o
  ---------------------------------------------------------------------------------------------
     16    -554.09760189   -1.44e-06      2.85e-04 *    6.56e-05 o    1.04e-03 *    3.44e-04 o  ~
  ---------------------------------------------------------------------------------------------


  **** Optimization is complete! (in 16 steps) ****

  ==> Optimization Summary <==

  Measures of convergence in internal coordinates in au.
  --------------------------------------------------------------------------------------------------------------- ~
   Step         Total Energy             Delta E       MAX Force       RMS Force        MAX Disp        RMS Disp  ~
  --------------------------------------------------------------------------------------------------------------- ~
      1    -554.093979693367   -554.093979693367      0.01337912      0.00387544      0.03662594      0.00931190  ~
      2    -554.096517922134     -0.002538228768      0.00452285      0.00114608      0.05304227      0.00931824  ~
      3    -554.097178841657     -0.000660919522      0.00189913      0.00041097      0.05976194      0.00931746  ~
      4    -554.097485618858     -0.000306777201      0.00110916      0.00021358      0.06045333      0.00931735  ~
      5    -554.097683177881     -0.000197559023      0.00121103      0.00021106      0.02622790      0.00431549  ~
      6    -554.097703239792     -0.000020061911      0.00120797      0.00018119      0.00143314      0.00038431  ~
      7    -554.097692724091      0.000010515701      0.00119200      0.00017527      0.00069904      0.00026547  ~
      8    -554.097695189815     -0.000002465724      0.00142356      0.00021279      0.00249893      0.00084912  ~
      9    -554.097683656622      0.000011533193      0.00139620      0.00022510      0.00381813      0.00123301  ~
     10    -554.097674214325      0.000009442297      0.00139656      0.00023229      0.00367213      0.00110671  ~
     11    -554.097666149752      0.000008064572      0.00134186      0.00020241      0.00416476      0.00103271  ~
     12    -554.097657884713      0.000008265039      0.00131654      0.00019617      0.00609282      0.00150521  ~
     13    -554.097650588855      0.000007295858      0.00132399      0.00019922      0.01721255      0.00415621  ~
     14    -554.097623335673      0.000027253182      0.00122197      0.00024896      0.02153800      0.00538702  ~
     15    -554.097600457911      0.000022877762      0.00066985      0.00016460      0.00959191      0.00241412  ~
     16    -554.097601893656     -0.000001435746      0.00050357      0.00008069      0.00104024      0.00034435  ~
  --------------------------------------------------------------------------------------------------------------- ~

	Writing optimization data to binary file.
	Final energy is   -554.0976018936561
	Final (previous) structure:
	Cartesian Geometry (in Angstrom)
	    C    -1.3431800502   0.6535504486  -0.5581733845
	    C    -0.2525033255   0.1486249324   1.5295166688
	    C    -2.3829934347   1.2493303857   0.1255428761
	    C    -1.3060749642   0.7215120532   2.2170753443
	    C     0.6938674880  -1.4894688062  -1.5234370018
	    C     2.1606202947  -0.0483106603  -0.3010705463
	    C     1.7827478079  -2.0269806628  -2.1663626436
	    C     3.2303097452  -0.6091398001  -0.9564573643
	    C    -0.2779110091   0.0767510831   0.1370235477
	    C     0.8568152533  -0.4630111801  -0.5882806189
	    C    -2.3747652500   1.2763266711   1.5175461082
	    N     3.0101828823  -1.5717783576  -1.8663255975
	    O    -3.4285370554   1.8604039781   2.1183032697
	    H    -1.3499838188   0.6488295378  -1.6386522447
	    H     0.5729990658  -0.2781127068   2.0808308469
	    H    -3.2065620170   1.7075963245  -0.3988896531
	    H    -1.2977165244   0.7410535100   3.2972968069
	    H    -0.2896455464  -1.8717194258  -1.7456796058
	    H     2.3372262492   0.7309383808   0.4228784019
	    H     1.7206484840  -2.8179747185  -2.8950403662
	    H     4.2547847252  -0.3196571980  -0.7914155878
	    H     3.8059105611  -1.9771558505  -2.3429908924
	    H    -3.3286965446   1.8312730661   3.0761226162
	Saving final (previous) structure.
			--------------------------
			 OPTKING Finished Execution 
			--------------------------

    Final optimized geometry and variables:
    Molecular point group: c1
    Full point group: C1

    Geometry (in Angstrom), charge = 1, multiplicity = 1:

    C           -1.343180050229     0.653550448572    -0.558173384466
    C           -0.252503325453     0.148624932446     1.529516668809
    C           -2.382993434670     1.249330385716     0.125542876102
    C           -1.306074964177     0.721512053231     2.217075344294
    C            0.693867488034    -1.489468806230    -1.523437001838
    C            2.160620294673    -0.048310660345    -0.301070546342
    C            1.782747807901    -2.026980662757    -2.166362643593
    C            3.230309745218    -0.609139800088    -0.956457364304
    C           -0.277911009052     0.076751083059     0.137023547737
    C            0.856815253291    -0.463011180056    -0.588280618907
    C           -2.374765249957     1.276326671057     1.517546108220
    N            3.010182882288    -1.571778357600    -1.866325597543
    O           -3.428537055397     1.860403978072     2.118303269680
    H           -1.349983818817     0.648829537762    -1.638652244705
    H            0.572999065804    -0.278112706802     2.080830846947
    H           -3.206562017015     1.707596324535    -0.398889653106
    H           -1.297716524401     0.741053510044     3.297296806899
    H           -0.289645546390    -1.871719425794    -1.745679605777
    H            2.337226249224     0.730938380844     0.422878401935
    H            1.720648483981    -2.817974718515    -2.895040366192
    H            4.254784725190    -0.319657197998    -0.791415587823
    H            3.805910561055    -1.977155850480    -2.342990892437
    H           -3.328696544604     1.831273066104     3.076122616234

	Cleaning optimization helper files.

*** Psi4 exiting successfully. Buy a developer a beer!
