
    -----------------------------------------------------------------------
          Psi4: An Open-Source Ab Initio Electronic Structure Package
                               Psi4 1.1 release

                         Git: Rev {HEAD} add49b9 


    R. M. Parrish, L. A. Burns, D. G. A. Smith, A. C. Simmonett,
    A. E. DePrince III, E. G. Hohenstein, U. Bozkaya, A. Yu. Sokolov,
    R. Di Remigio, R. M. Richard, J. F. Gonthier, A. M. James,
    H. R. McAlexander, A. Kumar, M. Saitow, X. Wang, B. P. Pritchard,
    P. Verma, H. F. Schaefer III, K. Patkowski, R. A. King, E. F. Valeev,
    F. A. Evangelista, J. M. Turney, T. D. Crawford, and C. D. Sherrill,
    J. Chem. Theory Comput. in press (2017).
    (doi: 10.1021/acs.jctc.7b00174)

    -----------------------------------------------------------------------


    Psi4 started on: Saturday, 11 November 2017 06:16PM

    Process ID:  25605
    PSIDATADIR: /cbio/jclab/home/chayas/anaconda/envs/py35/share/psi4
    Memory:     500.0 MiB
    Threads:    8
    
  ==> Input File <==

--------------------------------------------------------------------------

memory 5 Gb

molecule phepyrFOH_cation {
  symmetry C1
  1 1 
  C      1.885   -1.036   -0.112
  C      0.807   -0.463   0.561
  C      4.142   -3.609   -0.193
  C      5.009   -1.413   -0.673
  C      1.800   -1.079   2.676
  C      5.224   -4.150   -0.873
  C      6.069   -2.010   -1.340
  C      2.921   -1.631   0.608
  C      4.038   -2.225   -0.095
  C      0.764   -0.484   1.955
  C      2.878   -1.652   2.002
  N      6.145   -3.346   -1.420
  O      -0.289   0.076   2.612
  F      3.866   -2.220   2.709
  H      1.904   -1.012   -1.199
  H      0.002   -0.002   -0.006
  H      3.399   -4.266   0.248
  H      4.953   -0.330   -0.611
  H      1.772   -1.099   3.762
  H      5.386   -5.212   -0.999
  H      6.867   -1.460   -1.819
  H      6.933   -3.764   -1.914
  H      -0.175   -0.018   3.571
  units Angstrom
}

dih_string = "1 8 9 3 255"
set optking fixed_dihedral = $dih_string

optimize('MP2/aug-cc-PVTZ')
--------------------------------------------------------------------------

  Memory set to   4.657 GiB by Python driver.
gradient() will perform analytic gradient computation.

*** tstart() called on gpu-1-15.local
*** at Sat Nov 11 18:16:21 2017

    SCF Algorithm Type (re)set to DF.

*** tstart() called on gpu-1-15.local
*** at Sat Nov 11 18:16:21 2017

   => Loading Basis Set <=

    Name: AUG-CC-PVTZ
    Role: ORBITAL
    Keyword: BASIS
    atoms 1-11  entry C          line   221 file /cbio/jclab/home/chayas/anaconda/envs/py35/share/psi4/basis/aug-cc-pvtz.gbs 
    atoms 12    entry N          line   267 file /cbio/jclab/home/chayas/anaconda/envs/py35/share/psi4/basis/aug-cc-pvtz.gbs 
    atoms 13    entry O          line   313 file /cbio/jclab/home/chayas/anaconda/envs/py35/share/psi4/basis/aug-cc-pvtz.gbs 
    atoms 14    entry F          line   359 file /cbio/jclab/home/chayas/anaconda/envs/py35/share/psi4/basis/aug-cc-pvtz.gbs 
    atoms 15-23 entry H          line    34 file /cbio/jclab/home/chayas/anaconda/envs/py35/share/psi4/basis/aug-cc-pvtz.gbs 


         ---------------------------------------------------------
                                   SCF
            by Justin Turney, Rob Parrish, and Andy Simmonett
                              RHF Reference
                        8 Threads,   4768 MiB Core
         ---------------------------------------------------------

  ==> Geometry <==

    Molecular point group: c1
    Full point group: C1

    Geometry (in Angstrom), charge = 1, multiplicity = 1:

       Center              X                  Y                   Z               Mass       
    ------------   -----------------  -----------------  -----------------  -----------------
           C         -1.338088029497     0.764085009289    -0.788573172679    12.000000000000
           C         -2.416088029497     1.337085009289    -0.115573172679    12.000000000000
           C          0.918911970503    -1.808914990711    -0.869573172679    12.000000000000
           C          1.785911970503     0.387085009289    -1.349573172679    12.000000000000
           C         -1.423088029497     0.721085009289     1.999426827321    12.000000000000
           C          2.000911970503    -2.349914990711    -1.549573172679    12.000000000000
           C          2.845911970503    -0.209914990711    -2.016573172679    12.000000000000
           C         -0.302088029497     0.169085009289    -0.068573172679    12.000000000000
           C          0.814911970503    -0.424914990711    -0.771573172679    12.000000000000
           C         -2.459088029497     1.316085009289     1.278426827321    12.000000000000
           C         -0.345088029497     0.148085009289     1.325426827321    12.000000000000
           N          2.921911970503    -1.545914990711    -2.096573172679    14.003074004780
           O         -3.512088029497     1.876085009289     1.935426827321    15.994914619560
           F          0.642911970503    -0.419914990711     2.032426827321    18.998403224000
           H         -1.319088029497     0.788085009289    -1.875573172679     1.007825032070
           H         -3.221088029497     1.798085009289    -0.682573172679     1.007825032070
           H          0.175911970503    -2.465914990711    -0.428573172679     1.007825032070
           H          1.729911970503     1.470085009289    -1.287573172679     1.007825032070
           H         -1.451088029497     0.701085009289     3.085426827321     1.007825032070
           H          2.162911970503    -3.411914990711    -1.675573172679     1.007825032070
           H          3.643911970503     0.340085009289    -2.495573172679     1.007825032070
           H          3.709911970503    -1.963914990711    -2.590573172679     1.007825032070
           H         -3.398088029497     1.782085009289     2.894426827321     1.007825032070

  Running in c1 symmetry.

  Rotational constants: A =      0.06291  B =      0.01269  C =      0.01167 [cm^-1]
  Rotational constants: A =   1886.09754  B =    380.31208  C =    349.78009 [MHz]
  Nuclear repulsion =  828.671201313425286

  Charge       = 1
  Multiplicity = 1
  Electrons    = 98
  Nalpha       = 49
  Nbeta        = 49

  ==> Algorithm <==

  SCF Algorithm Type is DF.
  DIIS enabled.
  MOM disabled.
  Fractional occupation disabled.
  Guess Type is SAD.
  Energy threshold   = 1.00e-10
  Density threshold  = 1.00e-10
  Integral threshold = 0.00e+00

  ==> Primary Basis <==

  Basis Set: AUG-CC-PVTZ
    Blend: AUG-CC-PVTZ
    Number of shells: 277
    Number of basis function: 851
    Number of Cartesian functions: 995
    Spherical Harmonics?: true
    Max angular momentum: 3

   => Loading Basis Set <=

    Name: (AUG-CC-PVTZ AUX)
    Role: JKFIT
    Keyword: DF_BASIS_SCF
    atoms 1-11  entry C          line   161 file /cbio/jclab/home/chayas/anaconda/envs/py35/share/psi4/basis/aug-cc-pvtz-jkfit.gbs 
    atoms 12    entry N          line   223 file /cbio/jclab/home/chayas/anaconda/envs/py35/share/psi4/basis/aug-cc-pvtz-jkfit.gbs 
    atoms 13    entry O          line   285 file /cbio/jclab/home/chayas/anaconda/envs/py35/share/psi4/basis/aug-cc-pvtz-jkfit.gbs 
    atoms 14    entry F          line   347 file /cbio/jclab/home/chayas/anaconda/envs/py35/share/psi4/basis/aug-cc-pvtz-jkfit.gbs 
    atoms 15-23 entry H          line    69 file /cbio/jclab/home/chayas/anaconda/envs/py35/share/psi4/basis/aug-cc-pvtz-jkfit.gbs 

  ==> Pre-Iterations <==

   -------------------------------------------------------
    Irrep   Nso     Nmo     Nalpha   Nbeta   Ndocc  Nsocc
   -------------------------------------------------------
     A        851     851       0       0       0       0
   -------------------------------------------------------
    Total     851     851      49      49      49       0
   -------------------------------------------------------

  ==> Integral Setup <==

  ==> DFJK: Density-Fitted J/K Matrices <==

    J tasked:                  Yes
    K tasked:                  Yes
    wK tasked:                  No
    OpenMP threads:              8
    Integrals threads:           8
    Memory (MB):              3576
    Algorithm:                Disk
    Integral Cache:           NONE
    Schwarz Cutoff:          1E-12
    Fitting Condition:       1E-12

   => Auxiliary Basis Set <=

  Basis Set: (AUG-CC-PVTZ AUX)
    Blend: AUG-CC-PVTZ-JKFIT
    Number of shells: 546
    Number of basis function: 1870
    Number of Cartesian functions: 2329
    Spherical Harmonics?: true
    Max angular momentum: 4

  Minimum eigenvalue in the overlap matrix is 6.9434375739E-07.
  Using Symmetric Orthogonalization.

  SCF Guess: Superposition of Atomic Densities via on-the-fly atomic UHF.

  ==> Iterations <==

                           Total Energy        Delta E     RMS |[F,P]|

   @DF-RHF iter   0:  -653.48930964900626   -6.53489e+02   2.15804e-02 
   @DF-RHF iter   1:  -650.17888548406131    3.31042e+00   1.68164e-03 
   @DF-RHF iter   2:  -650.49536090938830   -3.16475e-01   6.79841e-04 DIIS
   @DF-RHF iter   3:  -650.54296143630165   -4.76005e-02   2.81139e-04 DIIS
   @DF-RHF iter   4:  -650.55525531581645   -1.22939e-02   8.77498e-05 DIIS
   @DF-RHF iter   5:  -650.55662810568481   -1.37279e-03   3.79735e-05 DIIS
   @DF-RHF iter   6:  -650.55691159275113   -2.83487e-04   1.29593e-05 DIIS
   @DF-RHF iter   7:  -650.55694998322599   -3.83905e-05   4.90178e-06 DIIS
   @DF-RHF iter   8:  -650.55695452183511   -4.53861e-06   1.24744e-06 DIIS
   @DF-RHF iter   9:  -650.55695507002633   -5.48191e-07   5.75192e-07 DIIS
   @DF-RHF iter  10:  -650.55695519599988   -1.25974e-07   2.88760e-07 DIIS
   @DF-RHF iter  11:  -650.55695523728252   -4.12826e-08   1.68598e-07 DIIS
   @DF-RHF iter  12:  -650.55695524493012   -7.64760e-09   6.10586e-08 DIIS
   @DF-RHF iter  13:  -650.55695524578096   -8.50832e-10   2.55199e-08 DIIS
   @DF-RHF iter  14:  -650.55695524590192   -1.20963e-10   7.42524e-09 DIIS
   @DF-RHF iter  15:  -650.55695524595171   -4.97948e-11   3.59113e-09 DIIS
   @DF-RHF iter  16:  -650.55695524593523    1.64846e-11   1.27647e-09 DIIS
   @DF-RHF iter  17:  -650.55695524596706   -3.18323e-11   4.26191e-10 DIIS
   @DF-RHF iter  18:  -650.55695524591999    4.70664e-11   1.68280e-10 DIIS
   @DF-RHF iter  19:  -650.55695524594603   -2.60343e-11   8.50746e-11 DIIS

  ==> Post-Iterations <==

    Orbital Energies (a.u.)
    -----------------------

    Doubly Occupied:                                                      

       1A    -26.441795     2A    -20.702282     3A    -15.847250  
       4A    -11.492183     5A    -11.491556     6A    -11.466437  
       7A    -11.453110     8A    -11.434429     9A    -11.423857  
      10A    -11.423247    11A    -11.381811    12A    -11.376231  
      13A    -11.359252    14A    -11.351886    15A     -1.759764  
      16A     -1.521361    17A     -1.517087    18A     -1.325357  
      19A     -1.269956    20A     -1.245213    21A     -1.162947  
      22A     -1.149367    23A     -1.074328    24A     -1.062154  
      25A     -0.989027    26A     -0.970997    27A     -0.962227  
      28A     -0.886392    29A     -0.877073    30A     -0.860211  
      31A     -0.854093    32A     -0.825690    33A     -0.822965  
      34A     -0.804841    35A     -0.801879    36A     -0.782676  
      37A     -0.755719    38A     -0.746929    39A     -0.726682  
      40A     -0.719256    41A     -0.702674    42A     -0.686520  
      43A     -0.651958    44A     -0.642527    45A     -0.610830  
      46A     -0.581111    47A     -0.542490    48A     -0.468356  
      49A     -0.445341  

    Virtual:                                                              

      50A     -0.105174    51A     -0.087777    52A     -0.070412  
      53A     -0.063392    54A     -0.059449    55A     -0.051259  
      56A     -0.041457    57A     -0.039949    58A     -0.035223  
      59A     -0.030751    60A     -0.024699    61A     -0.016284  
      62A     -0.011325    63A     -0.010903    64A     -0.006343  
      65A     -0.003377    66A      0.000515    67A      0.008676  
      68A      0.010711    69A      0.013433    70A      0.016003  
      71A      0.017513    72A      0.023851    73A      0.026809  
      74A      0.028695    75A      0.031698    76A      0.032522  
      77A      0.037562    78A      0.039802    79A      0.041320  
      80A      0.044685    81A      0.052069    82A      0.056898  
      83A      0.060496    84A      0.062862    85A      0.066905  
      86A      0.068819    87A      0.076842    88A      0.081695  
      89A      0.086651    90A      0.087809    91A      0.092184  
      92A      0.094547    93A      0.098786    94A      0.101127  
      95A      0.105604    96A      0.116570    97A      0.116951  
      98A      0.126690    99A      0.130429   100A      0.134036  
     101A      0.136196   102A      0.139934   103A      0.143318  
     104A      0.145099   105A      0.150696   106A      0.151773  
     107A      0.160569   108A      0.162092   109A      0.163785  
     110A      0.168388   111A      0.170297   112A      0.173270  
     113A      0.174276   114A      0.182362   115A      0.184964  
     116A      0.189179   117A      0.194322   118A      0.195393  
     119A      0.200280   120A      0.204869   121A      0.207663  
     122A      0.212999   123A      0.214738   124A      0.219426  
     125A      0.224532   126A      0.226213   127A      0.229382  
     128A      0.231539   129A      0.236298   130A      0.243293  
     131A      0.245338   132A      0.248700   133A      0.254543  
     134A      0.255734   135A      0.258039   136A      0.263301  
     137A      0.274478   138A      0.275533   139A      0.279527  
     140A      0.280465   141A      0.283428   142A      0.291104  
     143A      0.293769   144A      0.299625   145A      0.301485  
     146A      0.310176   147A      0.314719   148A      0.318215  
     149A      0.322565   150A      0.325577   151A      0.327079  
     152A      0.330887   153A      0.332976   154A      0.335841  
     155A      0.336604   156A      0.340939   157A      0.344128  
     158A      0.349538   159A      0.351084   160A      0.356676  
     161A      0.358334   162A      0.363396   163A      0.368736  
     164A      0.371602   165A      0.372421   166A      0.375996  
     167A      0.378325   168A      0.384335   169A      0.386301  
     170A      0.392380   171A      0.398727   172A      0.399742  
     173A      0.402376   174A      0.408388   175A      0.410492  
     176A      0.413242   177A      0.416062   178A      0.422491  
     179A      0.426391   180A      0.427899   181A      0.430025  
     182A      0.437077   183A      0.441392   184A      0.446778  
     185A      0.448159   186A      0.453100   187A      0.456015  
     188A      0.465708   189A      0.471081   190A      0.476245  
     191A      0.483290   192A      0.488867   193A      0.492019  
     194A      0.493970   195A      0.498942   196A      0.503045  
     197A      0.515784   198A      0.521882   199A      0.528096  
     200A      0.530370   201A      0.539615   202A      0.544318  
     203A      0.551990   204A      0.560954   205A      0.567156  
     206A      0.570600   207A      0.577151   208A      0.578140  
     209A      0.580531   210A      0.587997   211A      0.592178  
     212A      0.597822   213A      0.602856   214A      0.606391  
     215A      0.610704   216A      0.615623   217A      0.619667  
     218A      0.621951   219A      0.632542   220A      0.634565  
     221A      0.636889   222A      0.641624   223A      0.643687  
     224A      0.650819   225A      0.657486   226A      0.666418  
     227A      0.674593   228A      0.677917   229A      0.687987  
     230A      0.692660   231A      0.695967   232A      0.706146  
     233A      0.709616   234A      0.720509   235A      0.722648  
     236A      0.733081   237A      0.736907   238A      0.741420  
     239A      0.746077   240A      0.751271   241A      0.753205  
     242A      0.757875   243A      0.768781   244A      0.770181  
     245A      0.772714   246A      0.775651   247A      0.777600  
     248A      0.782396   249A      0.785190   250A      0.788834  
     251A      0.792802   252A      0.797228   253A      0.803614  
     254A      0.807430   255A      0.812225   256A      0.818556  
     257A      0.824071   258A      0.829482   259A      0.832922  
     260A      0.837134   261A      0.840444   262A      0.842840  
     263A      0.848533   264A      0.853361   265A      0.861661  
     266A      0.866405   267A      0.869119   268A      0.874270  
     269A      0.877021   270A      0.889706   271A      0.892399  
     272A      0.894189   273A      0.901347   274A      0.906370  
     275A      0.908650   276A      0.915778   277A      0.923190  
     278A      0.923476   279A      0.932029   280A      0.934727  
     281A      0.938658   282A      0.942721   283A      0.949753  
     284A      0.952303   285A      0.954883   286A      0.956174  
     287A      0.962617   288A      0.970767   289A      0.973780  
     290A      0.976497   291A      0.979276   292A      0.981647  
     293A      0.986857   294A      0.991103   295A      0.999472  
     296A      1.004466   297A      1.013926   298A      1.014635  
     299A      1.017051   300A      1.022207   301A      1.030933  
     302A      1.034270   303A      1.036399   304A      1.039323  
     305A      1.042456   306A      1.047662   307A      1.054600  
     308A      1.057915   309A      1.064043   310A      1.066314  
     311A      1.070275   312A      1.078895   313A      1.081595  
     314A      1.087586   315A      1.092826   316A      1.098497  
     317A      1.105752   318A      1.108412   319A      1.112433  
     320A      1.120319   321A      1.124170   322A      1.129977  
     323A      1.131724   324A      1.139347   325A      1.144184  
     326A      1.147317   327A      1.153339   328A      1.160975  
     329A      1.164713   330A      1.172442   331A      1.182160  
     332A      1.192354   333A      1.201952   334A      1.208522  
     335A      1.212534   336A      1.222259   337A      1.229742  
     338A      1.233933   339A      1.236159   340A      1.243437  
     341A      1.248441   342A      1.253865   343A      1.259116  
     344A      1.262101   345A      1.269832   346A      1.278331  
     347A      1.282350   348A      1.285987   349A      1.288408  
     350A      1.303271   351A      1.305117   352A      1.310321  
     353A      1.317770   354A      1.329491   355A      1.336018  
     356A      1.345913   357A      1.352027   358A      1.354105  
     359A      1.366106   360A      1.373903   361A      1.382133  
     362A      1.389560   363A      1.399211   364A      1.401227  
     365A      1.408119   366A      1.416074   367A      1.424128  
     368A      1.427374   369A      1.430729   370A      1.433547  
     371A      1.452698   372A      1.454512   373A      1.456992  
     374A      1.465568   375A      1.474486   376A      1.477252  
     377A      1.492675   378A      1.498384   379A      1.502369  
     380A      1.510126   381A      1.510985   382A      1.523160  
     383A      1.528765   384A      1.537454   385A      1.538934  
     386A      1.540510   387A      1.547670   388A      1.567339  
     389A      1.572635   390A      1.577953   391A      1.588497  
     392A      1.598731   393A      1.608451   394A      1.618560  
     395A      1.621925   396A      1.634999   397A      1.638563  
     398A      1.647064   399A      1.652582   400A      1.657001  
     401A      1.667532   402A      1.671899   403A      1.678900  
     404A      1.686362   405A      1.691242   406A      1.708995  
     407A      1.712230   408A      1.717997   409A      1.722274  
     410A      1.740151   411A      1.741300   412A      1.743616  
     413A      1.747334   414A      1.762998   415A      1.771877  
     416A      1.785304   417A      1.788835   418A      1.794632  
     419A      1.803290   420A      1.815740   421A      1.817318  
     422A      1.819694   423A      1.826156   424A      1.838402  
     425A      1.843174   426A      1.852529   427A      1.862858  
     428A      1.865224   429A      1.877629   430A      1.884810  
     431A      1.892430   432A      1.896204   433A      1.903263  
     434A      1.914191   435A      1.919441   436A      1.932478  
     437A      1.934412   438A      1.938449   439A      1.950740  
     440A      1.961191   441A      1.967965   442A      1.975636  
     443A      1.985477   444A      1.990513   445A      1.998955  
     446A      2.007843   447A      2.013750   448A      2.019475  
     449A      2.022868   450A      2.042286   451A      2.045663  
     452A      2.053353   453A      2.055593   454A      2.066501  
     455A      2.080556   456A      2.084765   457A      2.086897  
     458A      2.105460   459A      2.107728   460A      2.117809  
     461A      2.134840   462A      2.149188   463A      2.150781  
     464A      2.171575   465A      2.181463   466A      2.190302  
     467A      2.198211   468A      2.200111   469A      2.217135  
     470A      2.225442   471A      2.232909   472A      2.241898  
     473A      2.251138   474A      2.257811   475A      2.264583  
     476A      2.267283   477A      2.281542   478A      2.292587  
     479A      2.300255   480A      2.315100   481A      2.323758  
     482A      2.336449   483A      2.348198   484A      2.359168  
     485A      2.372083   486A      2.392863   487A      2.400621  
     488A      2.407773   489A      2.416937   490A      2.420568  
     491A      2.426194   492A      2.443481   493A      2.466585  
     494A      2.478065   495A      2.489092   496A      2.496125  
     497A      2.506843   498A      2.514207   499A      2.524715  
     500A      2.532227   501A      2.547242   502A      2.564255  
     503A      2.582882   504A      2.589882   505A      2.608938  
     506A      2.618326   507A      2.632069   508A      2.640975  
     509A      2.667493   510A      2.705700   511A      2.712731  
     512A      2.721635   513A      2.746515   514A      2.756597  
     515A      2.763752   516A      2.788951   517A      2.804170  
     518A      2.825308   519A      2.838553   520A      2.859385  
     521A      2.898681   522A      2.915285   523A      2.922999  
     524A      2.928360   525A      2.945789   526A      2.950710  
     527A      2.952440   528A      2.963151   529A      3.014751  
     530A      3.021252   531A      3.024233   532A      3.045081  
     533A      3.052255   534A      3.067233   535A      3.073306  
     536A      3.081410   537A      3.082073   538A      3.101273  
     539A      3.122649   540A      3.132110   541A      3.145774  
     542A      3.157109   543A      3.167967   544A      3.175231  
     545A      3.198365   546A      3.207509   547A      3.218414  
     548A      3.234632   549A      3.237919   550A      3.246537  
     551A      3.256675   552A      3.261675   553A      3.272608  
     554A      3.294705   555A      3.297869   556A      3.307572  
     557A      3.319920   558A      3.321776   559A      3.326086  
     560A      3.346127   561A      3.349254   562A      3.358302  
     563A      3.364769   564A      3.370900   565A      3.380395  
     566A      3.385194   567A      3.392391   568A      3.397193  
     569A      3.408614   570A      3.414607   571A      3.424942  
     572A      3.437923   573A      3.442041   574A      3.452704  
     575A      3.460936   576A      3.472856   577A      3.479912  
     578A      3.494279   579A      3.495292   580A      3.508147  
     581A      3.519572   582A      3.520723   583A      3.531598  
     584A      3.542684   585A      3.555564   586A      3.565917  
     587A      3.572876   588A      3.587798   589A      3.595603  
     590A      3.601518   591A      3.613687   592A      3.616806  
     593A      3.631247   594A      3.637276   595A      3.643341  
     596A      3.654250   597A      3.662425   598A      3.670519  
     599A      3.680098   600A      3.689537   601A      3.694784  
     602A      3.711498   603A      3.712211   604A      3.717389  
     605A      3.729321   606A      3.737273   607A      3.744101  
     608A      3.751399   609A      3.759394   610A      3.766692  
     611A      3.777525   612A      3.789447   613A      3.797220  
     614A      3.804275   615A      3.808673   616A      3.818332  
     617A      3.824886   618A      3.829534   619A      3.842744  
     620A      3.849855   621A      3.863127   622A      3.868348  
     623A      3.889233   624A      3.894050   625A      3.898892  
     626A      3.909617   627A      3.913201   628A      3.923672  
     629A      3.929975   630A      3.949005   631A      3.956408  
     632A      3.965577   633A      3.980496   634A      3.985151  
     635A      3.992047   636A      4.001651   637A      4.007868  
     638A      4.013074   639A      4.030209   640A      4.035832  
     641A      4.038367   642A      4.042834   643A      4.055271  
     644A      4.065941   645A      4.071488   646A      4.079466  
     647A      4.087903   648A      4.093752   649A      4.099168  
     650A      4.113995   651A      4.126444   652A      4.127587  
     653A      4.132117   654A      4.158720   655A      4.162921  
     656A      4.170263   657A      4.176828   658A      4.190323  
     659A      4.199679   660A      4.213667   661A      4.219320  
     662A      4.225640   663A      4.231673   664A      4.244168  
     665A      4.250714   666A      4.257989   667A      4.268099  
     668A      4.282776   669A      4.288373   670A      4.291325  
     671A      4.301692   672A      4.302776   673A      4.307872  
     674A      4.320535   675A      4.325573   676A      4.342112  
     677A      4.348519   678A      4.359239   679A      4.366853  
     680A      4.372149   681A      4.381369   682A      4.407054  
     683A      4.413510   684A      4.420736   685A      4.426569  
     686A      4.438555   687A      4.453880   688A      4.461721  
     689A      4.469017   690A      4.482101   691A      4.488088  
     692A      4.493923   693A      4.518240   694A      4.554536  
     695A      4.570076   696A      4.583849   697A      4.594126  
     698A      4.601059   699A      4.608071   700A      4.624086  
     701A      4.630848   702A      4.642440   703A      4.652076  
     704A      4.677375   705A      4.680348   706A      4.686312  
     707A      4.712603   708A      4.726437   709A      4.734328  
     710A      4.750826   711A      4.758277   712A      4.771097  
     713A      4.790883   714A      4.803818   715A      4.808273  
     716A      4.812237   717A      4.824097   718A      4.833953  
     719A      4.853136   720A      4.859692   721A      4.902163  
     722A      4.907968   723A      4.911706   724A      4.914609  
     725A      4.932063   726A      4.933283   727A      4.941651  
     728A      4.958513   729A      4.974063   730A      4.988700  
     731A      4.992996   732A      5.007944   733A      5.019690  
     734A      5.025776   735A      5.036235   736A      5.040040  
     737A      5.049281   738A      5.055172   739A      5.084673  
     740A      5.087266   741A      5.124109   742A      5.154883  
     743A      5.166057   744A      5.172920   745A      5.195321  
     746A      5.197940   747A      5.203633   748A      5.213161  
     749A      5.240464   750A      5.252719   751A      5.266441  
     752A      5.282829   753A      5.314918   754A      5.318723  
     755A      5.337774   756A      5.362190   757A      5.362676  
     758A      5.387695   759A      5.397948   760A      5.418130  
     761A      5.450995   762A      5.461658   763A      5.475455  
     764A      5.498282   765A      5.516694   766A      5.562493  
     767A      5.582706   768A      5.601541   769A      5.604374  
     770A      5.627396   771A      5.650691   772A      5.665126  
     773A      5.691488   774A      5.702387   775A      5.732102  
     776A      5.756864   777A      5.776399   778A      5.826397  
     779A      5.830270   780A      5.891524   781A      5.917828  
     782A      5.934007   783A      5.969151   784A      5.983217  
     785A      5.993465   786A      6.044816   787A      6.059227  
     788A      6.140802   789A      6.160052   790A      6.197878  
     791A      6.212945   792A      6.268459   793A      6.291940  
     794A      6.333818   795A      6.364308   796A      6.403107  
     797A      6.421811   798A      6.470571   799A      6.518721  
     800A      6.551669   801A      6.600047   802A      6.625618  
     803A      6.647143   804A      6.728300   805A      6.741854  
     806A      6.794282   807A      6.828123   808A      6.853385  
     809A      6.901084   810A      6.904451   811A      6.950063  
     812A      6.959295   813A      7.077713   814A      7.161696  
     815A      7.291800   816A      7.321908   817A      7.367361  
     818A      7.437105   819A      7.537817   820A      7.584090  
     821A      7.591424   822A      7.652541   823A      7.905486  
     824A      8.286433   825A      8.540014   826A      8.874260  
     827A      8.927911   828A      9.156327   829A      9.172136  
     830A      9.287846   831A      9.400118   832A      9.418460  
     833A      9.476571   834A      9.532729   835A      9.594123  
     836A      9.908019   837A      9.963899   838A     15.864029  
     839A     16.019114   840A     16.419494   841A     16.511393  
     842A     16.703595   843A     16.908314   844A     18.743842  
     845A     19.111485   846A     19.602118   847A     19.700198  
     848A     20.095377   849A     20.114438   850A     20.341922  
     851A     21.737834  

    Final Occupation by Irrep:
              A 
    DOCC [    49 ]

  Energy converged.

  @DF-RHF Final Energy:  -650.55695524594603

   => Energetics <=

    Nuclear Repulsion Energy =            828.6712013134252857
    One-Electron Energy =               -2517.5536690007324978
    Two-Electron Energy =                1038.3255124413612975
    DFT Exchange-Correlation Energy =       0.0000000000000000
    Empirical Dispersion Energy =           0.0000000000000000
    PCM Polarization Energy =               0.0000000000000000
    EFP Energy =                            0.0000000000000000
    Total Energy =                       -650.5569552459460283



Properties will be evaluated at   0.000000,   0.000000,   0.000000 Bohr

Properties computed using the SCF density matrix

  Nuclear Dipole Moment: (a.u.)
     X:     1.2742      Y:    -0.4924      Z:    -6.6419

  Electronic Dipole Moment: (a.u.)
     X:     1.8392      Y:    -1.1533      Z:     4.1973

  Dipole Moment: (a.u.)
     X:     3.1134      Y:    -1.6457      Z:    -2.4446     Total:     4.2869

  Dipole Moment: (Debye)
     X:     7.9136      Y:    -4.1830      Z:    -6.2135     Total:    10.8963


*** tstop() called on gpu-1-15.local at Sat Nov 11 18:25:36 2017
Module time:
	user time   =    1267.14 seconds =      21.12 minutes
	system time =      58.12 seconds =       0.97 minutes
	total time  =        555 seconds =       9.25 minutes
Total time:
	user time   =    1267.15 seconds =      21.12 minutes
	system time =      58.12 seconds =       0.97 minutes
	total time  =        555 seconds =       9.25 minutes

  //>>>>>>>>>>>>>>>>>>>>>>>>>>>>>>>>>>>//
  //               DFMP2               //
  //<<<<<<<<<<<<<<<<<<<<<<<<<<<<<<<<<<<//

   => Loading Basis Set <=

    Name: (AUG-CC-PVTZ AUX)
    Role: RIFIT
    Keyword: DF_BASIS_MP2
    atoms 1-11  entry C          line   147 file /cbio/jclab/home/chayas/anaconda/envs/py35/share/psi4/basis/aug-cc-pvtz-ri.gbs 
    atoms 12    entry N          line   205 file /cbio/jclab/home/chayas/anaconda/envs/py35/share/psi4/basis/aug-cc-pvtz-ri.gbs 
    atoms 13    entry O          line   263 file /cbio/jclab/home/chayas/anaconda/envs/py35/share/psi4/basis/aug-cc-pvtz-ri.gbs 
    atoms 14    entry F          line   321 file /cbio/jclab/home/chayas/anaconda/envs/py35/share/psi4/basis/aug-cc-pvtz-ri.gbs 
    atoms 15-23 entry H          line    29 file /cbio/jclab/home/chayas/anaconda/envs/py35/share/psi4/basis/aug-cc-pvtz-ri.gbs 

	 --------------------------------------------------------
	                          DF-MP2                         
	      2nd-Order Density-Fitted Moller-Plesset Theory     
	              RMP2 Wavefunction,   8 Threads             
	                                                         
	        Rob Parrish, Justin Turney, Andy Simmonett,      
	           Ed Hohenstein, and C. David Sherrill          
	 --------------------------------------------------------

   => Auxiliary Basis Set <=

  Basis Set: (AUG-CC-PVTZ AUX)
    Blend: AUG-CC-PVTZ-RI
    Number of shells: 518
    Number of basis function: 1898
    Number of Cartesian functions: 2399
    Spherical Harmonics?: true
    Max angular momentum: 4

	 --------------------------------------------------------
	                 NBF =   851, NAUX =  1898
	 --------------------------------------------------------
	   CLASS    FOCC     OCC    AOCC    AVIR     VIR    FVIR
	   PAIRS       0      49      49     802     802       0
	 --------------------------------------------------------


         ------------------------------------------------------------
                                     CPHF                           
                                  Rob Parrish                       
         ------------------------------------------------------------

  ==> Geometry <==

    Molecular point group: c1
    Full point group: C1

    Geometry (in Angstrom), charge = 1, multiplicity = 1:

       Center              X                  Y                   Z               Mass       
    ------------   -----------------  -----------------  -----------------  -----------------
           C         -1.338088029497     0.764085009289    -0.788573172679    12.000000000000
           C         -2.416088029497     1.337085009289    -0.115573172679    12.000000000000
           C          0.918911970503    -1.808914990711    -0.869573172679    12.000000000000
           C          1.785911970503     0.387085009289    -1.349573172679    12.000000000000
           C         -1.423088029497     0.721085009289     1.999426827321    12.000000000000
           C          2.000911970503    -2.349914990711    -1.549573172679    12.000000000000
           C          2.845911970503    -0.209914990711    -2.016573172679    12.000000000000
           C         -0.302088029497     0.169085009289    -0.068573172679    12.000000000000
           C          0.814911970503    -0.424914990711    -0.771573172679    12.000000000000
           C         -2.459088029497     1.316085009289     1.278426827321    12.000000000000
           C         -0.345088029497     0.148085009289     1.325426827321    12.000000000000
           N          2.921911970503    -1.545914990711    -2.096573172679    14.003074004780
           O         -3.512088029497     1.876085009289     1.935426827321    15.994914619560
           F          0.642911970503    -0.419914990711     2.032426827321    18.998403224000
           H         -1.319088029497     0.788085009289    -1.875573172679     1.007825032070
           H         -3.221088029497     1.798085009289    -0.682573172679     1.007825032070
           H          0.175911970503    -2.465914990711    -0.428573172679     1.007825032070
           H          1.729911970503     1.470085009289    -1.287573172679     1.007825032070
           H         -1.451088029497     0.701085009289     3.085426827321     1.007825032070
           H          2.162911970503    -3.411914990711    -1.675573172679     1.007825032070
           H          3.643911970503     0.340085009289    -2.495573172679     1.007825032070
           H          3.709911970503    -1.963914990711    -2.590573172679     1.007825032070
           H         -3.398088029497     1.782085009289     2.894426827321     1.007825032070

  Nuclear repulsion =  828.671201313425286
  Reference energy  = -650.556955245946028

  ==> Basis Set <==

  Basis Set: AUG-CC-PVTZ
    Blend: AUG-CC-PVTZ
    Number of shells: 277
    Number of basis function: 851
    Number of Cartesian functions: 995
    Spherical Harmonics?: true
    Max angular momentum: 3

  ==> CGRSolver (by Rob Parrish) <==

   Number of roots    =         1
   Preconditioning    =    JACOBI
   Convergence cutoff =     1E-06
   Maximum iterations =       100

  ==> CPHFRHamiltonian (by Rob Parrish) <== 

  ==> DFJK: Density-Fitted J/K Matrices <==

    J tasked:                  Yes
    K tasked:                  Yes
    wK tasked:                  No
    OpenMP threads:              8
    Integrals threads:           8
    Memory (MB):              3576
    Algorithm:                Disk
    Integral Cache:           NONE
    Schwarz Cutoff:          1E-12
    Fitting Condition:       1E-12

   => Auxiliary Basis Set <=

  Basis Set: (AUG-CC-PVTZ AUX)
    Blend: AUG-CC-PVTZ-JKFIT
    Number of shells: 546
    Number of basis function: 1870
    Number of Cartesian functions: 2329
    Spherical Harmonics?: true
    Max angular momentum: 4

  ==> CPHF Iterations <==

  => Iterations <=

             Iter  Converged  Remaining    Residual
  CGR           1          0          1   1.187E-01
  CGR           2          0          1   4.676E-02
  CGR           3          0          1   2.741E-02
  CGR           4          0          1   8.911E-03
  CGR           5          0          1   3.564E-03
  CGR           6          0          1   1.396E-03
  CGR           7          0          1   4.440E-04
  CGR           8          0          1   1.842E-04
  CGR           9          0          1   8.208E-05
  CGR          10          0          1   3.537E-05
  CGR          11          0          1   1.494E-05
  CGR          12          0          1   4.836E-06
  CGR          13          0          1   1.779E-06
  CGR          14          1          0   6.547E-07

    CGRSolver converged.

  ==> DFCorrGrad: Density-Fitted Correlated Gradients <==

    OpenMP threads:              8
    Integrals threads:           8
    Memory (MB):              3576
    Schwarz Cutoff:          0E+00
    Fitting Condition:       1E-12

   => Auxiliary Basis Set <=

  Basis Set: (AUG-CC-PVTZ AUX)
    Blend: AUG-CC-PVTZ-JKFIT
    Number of shells: 546
    Number of basis function: 1870
    Number of Cartesian functions: 2329
    Spherical Harmonics?: true
    Max angular momentum: 4

	-----------------------------------------------------------
	 ==================> DF-MP2 Energies <==================== 
	-----------------------------------------------------------
	 Reference Energy          =    -650.5569552459460283 [Eh]
	 Singles Energy            =      -0.0000000000000002 [Eh]
	 Same-Spin Energy          =      -0.6688526662875280 [Eh]
	 Opposite-Spin Energy      =      -2.0140092624893939 [Eh]
	 Correlation Energy        =      -2.6828619287769224 [Eh]
	 Total Energy              =    -653.2398171747229298 [Eh]
	-----------------------------------------------------------
	 ================> DF-SCS-MP2 Energies <================== 
	-----------------------------------------------------------
	 SCS Same-Spin Scale       =       0.3333333333333333 [-]
	 SCS Opposite-Spin Scale   =       1.2000000000000000 [-]
	 SCS Same-Spin Energy      =      -0.2229508887625093 [Eh]
	 SCS Opposite-Spin Energy  =      -2.4168111149872726 [Eh]
	 SCS Correlation Energy    =      -2.6397620037497824 [Eh]
	 SCS Total Energy          =    -653.1967172496957801 [Eh]
	-----------------------------------------------------------


  -Total Gradient:
     Atom            X                  Y                   Z
    ------   -----------------  -----------------  -----------------
       1        0.009012307479    -0.007789086453    -0.010513465827
       2        0.002134312402    -0.001113354122     0.005834196891
       3       -0.013396421284     0.004825235440     0.006151675095
       4       -0.009734549128     0.006777432274     0.008422611671
       5       -0.009819494482     0.005167932280     0.002382257252
       6        0.006470091614     0.009229618260    -0.004306778706
       7       -0.000883797367    -0.010159269737     0.001508428870
       8        0.000644545763    -0.000503016613    -0.006037568007
       9       -0.000689455438     0.000404610571    -0.002144438656
      10       -0.001172121483     0.001099333054    -0.010939131241
      11        0.023377830983    -0.009891247969     0.001210551792
      12        0.002063967302    -0.002356244939    -0.001541723655
      13       -0.005581442312     0.002887006695     0.007077859487
      14       -0.000302863454     0.000024258717     0.004893298571
      15       -0.001446773652     0.001205174571    -0.005743033062
      16       -0.003493058537     0.002344806072    -0.005041758256
      17       -0.003563831578    -0.003670031822     0.002098208844
      18       -0.000062473780     0.005995145968    -0.000295907946
      19       -0.001785948671     0.000487893561     0.004762819268
      20        0.001517001878    -0.002487037835    -0.000843625230
      21        0.002153576143     0.000108839212    -0.001717486489
      22        0.004619636580    -0.002311376715    -0.002926147692
      23       -0.000061038991    -0.000276620474     0.007709157045


*** tstop() called on gpu-1-15.local at Sat Nov 11 19:07:37 2017
Module time:
	user time   =    6536.19 seconds =     108.94 minutes
	system time =     138.94 seconds =       2.32 minutes
	total time  =       3076 seconds =      51.27 minutes
Total time:
	user time   =    6536.20 seconds =     108.94 minutes
	system time =     138.94 seconds =       2.32 minutes
	total time  =       3076 seconds =      51.27 minutes

			-----------------------------------------
			 OPTKING 2.0: for geometry optimizations 
			  - R.A. King,  Bethel University        
			-----------------------------------------

	Internal coordinates to be generated automatically.
	Detected frag 1 with atoms:  1 2 3 4 5 6 7 8 9 10 11 12 13 14 15 16 17 18 19 20
	 21 22 23
	---Fragment 1 Bond Connectivity---
	 1 : 2 8 15
	 2 : 1 10 16
	 3 : 6 9 17
	 4 : 7 9 18
	 5 : 10 11 19
	 6 : 3 12 20
	 7 : 4 12 21
	 8 : 1 9 11
	 9 : 3 4 8
	 10 : 2 5 13
	 11 : 5 8 14
	 12 : 6 7 22
	 13 : 10 23
	 14 : 11
	 15 : 1
	 16 : 2
	 17 : 3
	 18 : 4
	 19 : 5
	 20 : 6
	 21 : 7
	 22 : 12
	 23 : 13

	Assuming in current code that numbering for constraints corresponds to unified fragment.
	Fixed dihedral atom list: 
	     1     8     9     3
	---Fragment 1 Geometry and Gradient---
	 C          -2.5286199174        1.4439114098       -1.4901873321
	 C          -4.5657446887        2.5267244839       -0.2184016447
	 C           1.7364919645       -3.4183539301       -1.6432551489
	 C           3.3748845217        0.7314846577       -2.5503236927
	 C          -2.6892466387        1.3626531861        3.7783691264
	 C           3.7811756403       -4.4406957680       -2.9282689192
	 C           5.3779942226       -0.3966818436       -3.8107710233
	 C          -0.5708636438        0.3195243607       -0.1295845164
	 C           1.5399604467       -0.8029729622       -1.4580619878
	 C          -4.6470029124        2.4870402352        2.4158765846
	 C          -0.6521218675        0.2798401119        2.5046937128
	 N           5.5216134087       -2.9213559572       -3.9619491139
	 O          -6.6368845303        3.5452868696        3.6574266539
	 F           1.2149275518       -0.7935243315        3.8407300888
	 H          -2.4927151209        1.4892648370       -3.5443196386
	 H          -6.0869742257        3.3978882312       -1.2898763620
	 H           0.3324254477       -4.6599039994       -0.8098859243
	 H           3.2690598583        2.7780580596       -2.4331606724
	 H          -2.7421589705        1.3248586634        5.8306117067
	 H           4.0873112738       -6.4475849211       -3.1663744120
	 H           6.8859956766        0.6426675295       -4.7159498409
	 H           7.0107176014       -3.7112614807       -4.8954738236
	 H          -6.4214557512        3.3676526131        5.4696740153
	             0.0090123075       -0.0077890865       -0.0105134658
	             0.0021343124       -0.0011133541        0.0058341969
	            -0.0133964213        0.0048252354        0.0061516751
	            -0.0097345491        0.0067774323        0.0084226117
	            -0.0098194945        0.0051679323        0.0023822573
	             0.0064700916        0.0092296183       -0.0043067787
	            -0.0008837974       -0.0101592697        0.0015084289
	             0.0006445458       -0.0005030166       -0.0060375680
	            -0.0006894554        0.0004046106       -0.0021444387
	            -0.0011721215        0.0010993331       -0.0109391312
	             0.0233778310       -0.0098912480        0.0012105518
	             0.0020639673       -0.0023562449       -0.0015417237
	            -0.0055814423        0.0028870067        0.0070778595
	            -0.0003028635        0.0000242587        0.0048932986
	            -0.0014467737        0.0012051746       -0.0057430331
	            -0.0034930585        0.0023448061       -0.0050417583
	            -0.0035638316       -0.0036700318        0.0020982088
	            -0.0000624738        0.0059951460       -0.0002959079
	            -0.0017859487        0.0004878936        0.0047628193
	             0.0015170019       -0.0024870378       -0.0008436252
	             0.0021535761        0.0001088392       -0.0017174865
	             0.0046196366       -0.0023113767       -0.0029261477
	            -0.0000610390       -0.0002766205        0.0077091570

	Previous optimization step data not found.  Starting new optimization.

	---Fragment 1 Intrafragment Coordinates---
	 - Coordinate -           - BOHR/RAD -       - ANG/DEG -
	 R(1,2)           =         2.634350	       1.394038
	 R(1,8)           =         2.635962	       1.394891
	 R(1,15)          =         2.054947	       1.087431
	 R(2,10)          =         2.635830	       1.394821
	 R(2,16)          =         2.054537	       1.087214
	 R(3,6)           =         2.622437	       1.387734
	 R(3,9)           =         2.629285	       1.391358
	 R(3,17)          =         2.051183	       1.085440
	 R(4,7)           =         2.621819	       1.387407
	 R(4,9)           =         2.629552	       1.391499
	 R(4,18)          =         2.052654	       1.086218
	 R(5,10)          =         2.636938	       1.395407
	 R(5,11)          =         2.635263	       1.394521
	 R(5,19)          =         2.053272	       1.086545
	 R(6,12)          =         2.531010	       1.339353
	 R(6,20)          =         2.044020	       1.081649
	 R(7,12)          =         2.533271	       1.340549
	 R(7,21)          =         2.042955	       1.081085
	 R(8,9)           =         2.735038	       1.447320
	 R(8,11)          =         2.635830	       1.394821
	 R(10,13)         =         2.573123	       1.361638
	 R(11,14)         =         2.534359	       1.341125
	 R(12,22)         =         1.926876	       1.019659
	 R(13,23)         =         1.833631	       0.970316
	 B(1,2,10)        =         2.094553	     120.009056
	 B(1,2,16)        =         2.088723	     119.675016
	 B(1,8,9)         =         2.091569	     119.838095
	 B(1,8,11)        =         2.093692	     119.959722
	 B(2,1,8)         =         2.094940	     120.031219
	 B(2,1,15)        =         2.079469	     119.144799
	 B(2,10,5)        =         2.094306	     119.994870
	 B(2,10,13)       =         2.094247	     119.991510
	 B(3,6,12)        =         2.096997	     120.149093
	 B(3,6,20)        =         2.161105	     123.822224
	 B(3,9,4)         =         2.093288	     119.936589
	 B(3,9,8)         =         2.094561	     120.009477
	 B(4,7,12)        =         2.095369	     120.055807
	 B(4,7,21)        =         2.162831	     123.921097
	 B(4,9,8)         =         2.095336	     120.053931
	 B(5,10,13)       =         2.094633	     120.013619
	 B(5,11,8)        =         2.095181	     120.045019
	 B(5,11,14)       =         2.081414	     119.256220
	 B(6,3,9)         =         2.072107	     118.723013
	 B(6,3,17)        =         2.090734	     119.790207
	 B(6,12,7)        =         2.135180	     122.336828
	 B(6,12,22)       =         2.075099	     118.894419
	 B(7,4,9)         =         2.073428	     118.798657
	 B(7,4,18)        =         2.089614	     119.726085
	 B(7,12,22)       =         2.072905	     118.768703
	 B(8,1,15)        =         2.108776	     120.823969
	 B(8,11,14)       =         2.106591	     120.698759
	 B(9,3,17)        =         2.120344	     121.486768
	 B(9,4,18)        =         2.120143	     121.475227
	 B(9,8,11)        =         2.097924	     120.202184
	 B(10,2,16)       =         2.099909	     120.315896
	 B(10,5,11)       =         2.093699	     119.960108
	 B(10,5,19)       =         2.100355	     120.341451
	 B(10,13,23)      =         1.924294	     110.253909
	 B(11,5,19)       =         2.089132	     119.698439
	 B(12,6,20)       =         2.025082	     116.028678
	 B(12,7,21)       =         2.024984	     116.023035
	 D(1,2,10,5)      =        -0.000325	      -0.018609
	 D(1,2,10,13)     =         3.141388	     179.988267
	 D(1,8,9,3)       =        -1.832874	    -105.015939
	 D(1,8,9,4)       =         1.309125	      75.007337
	 D(1,8,11,5)      =         0.000325	       0.018608
	 D(1,8,11,14)     =        -3.141528	    -179.996269
	 D(2,1,8,9)       =         3.141277	     179.981897
	 D(2,1,8,11)      =        -0.000348	      -0.019945
	 D(2,10,5,11)     =         0.000301	       0.017261
	 D(2,10,5,19)     =        -3.141029	    -179.967685
	 D(2,10,13,23)    =         3.141285	     179.982383
	 D(3,6,12,7)      =        -0.000318	      -0.018229
	 D(3,6,12,22)     =         3.139843	     179.899747
	 D(3,9,4,7)       =        -0.000264	      -0.015113
	 D(3,9,4,18)      =        -3.140726	    -179.950347
	 D(3,9,8,11)      =         1.308751	      74.985907
	 D(4,7,12,6)      =        -0.000284	      -0.016250
	 D(4,7,12,22)     =        -3.140446	    -179.934326
	 D(4,9,3,6)       =        -0.000315	      -0.018043
	 D(4,9,3,17)      =        -3.141220	    -179.978657
	 D(4,9,8,11)      =        -1.832435	    -104.990817
	 D(5,10,2,16)     =         3.140149	     179.917291
	 D(5,10,13,23)    =        -0.000187	      -0.010740
	 D(5,11,8,9)      =        -3.141300	    -179.983240
	 D(6,3,9,8)       =        -3.141502	    -179.994794
	 D(6,12,7,21)     =        -3.140360	    -179.929350
	 D(7,4,9,8)       =         3.140923	     179.961628
	 D(7,12,6,20)     =        -3.141477	    -179.993383
	 D(8,1,2,10)      =         0.000348	       0.019955
	 D(8,1,2,16)      =        -3.140133	    -179.916358
	 D(8,9,3,17)      =         0.000778	       0.044592
	 D(8,9,4,18)      =         0.000461	       0.026394
	 D(8,11,5,10)     =        -0.000301	      -0.017270
	 D(8,11,5,19)     =         3.141030	     179.967774
	 D(9,3,6,12)      =         0.000611	       0.035012
	 D(9,3,6,20)      =        -3.141451	    -179.991862
	 D(9,4,7,12)      =         0.000569	       0.032585
	 D(9,4,7,21)      =         3.140519	     179.938478
	 D(9,8,1,15)      =         0.000403	       0.023110
	 D(9,8,11,14)     =         0.000033	       0.001883
	 D(10,2,1,15)     =         3.141234	     179.979432
	 D(10,5,11,14)    =         3.141547	     179.997392
	 D(11,5,10,13)    =        -3.141411	    -179.989616
	 D(11,8,1,15)     =        -3.141221	    -179.978731
	 D(12,6,3,17)     =         3.141528	     179.996311
	 D(12,7,4,18)     =         3.141051	     179.968977
	 D(13,10,2,16)    =        -0.001324	      -0.075833
	 D(13,10,5,19)    =         0.000444	       0.025437
	 D(14,11,5,19)    =        -0.000307	      -0.017564
	 D(15,1,2,16)     =         0.000753	       0.043120
	 D(17,3,6,20)     =        -0.000533	      -0.030563
	 D(18,4,7,21)     =        -0.002184	      -0.125129
	 D(20,6,12,22)    =        -0.001316	      -0.075406
	 D(21,7,12,22)    =         0.002663	       0.152575
	 R(3,14)          =         6.102119	       3.229102

	Current energy   :      -653.2398171747

	Generating empirical Hessian (Schlegel '84) for each fragment.
	Adding user-defined constraint: Fragment 1; Coordinate 64:
		Value =    -1.832874; Fixed value    =    -1.832596
		Force =     0.000139; Force constant =     0.500000
	Removing off-diagonal coupling between coordinate 64 and others.
	Taking RFO optimization step.
	Going to follow RFO solution 1.
	Using RFO vector 1.

	Determining step-restricting scale parameter for RS-RFO.
	Maximum step size allowed    0.10000

	 Iter      |step|        alpha        rfo_root  
	------------------------------------------------
	    0     0.19159       1.00000           1
	    1     0.15011       4.49458           1
	    2     0.12321      13.13345           1
	    3     0.10640      25.28586           1
	    4     0.10065      31.46483           1
	    5     0.10001      32.23666           1
	------------------------------------------------
	Norm of target step-size    0.10001
	Projected energy change by RFO approximation:        -0.0045609131

	Back-transformation to cartesian coordinates...
	Could not converge backtransformation.
	Using first guess instead.

	--- Internal Coordinate Step in ANG or DEG, aJ/ANG or AJ/DEG ---
	 ---------------------------------------------------------------------------
	   Coordinate                Previous        Force       Change         New 
	   ----------                --------       ------       ------       ------
	    1 R(1,2)          =      1.394038    -0.083589    -0.008686     1.385352
	    2 R(1,8)          =      1.394891    -0.015623    -0.001540     1.393351
	    3 R(1,15)         =      1.087431    -0.047307    -0.006105     1.081326
	    4 R(2,10)         =      1.394821    -0.061008    -0.006300     1.388521
	    5 R(2,16)         =      1.087214    -0.051162    -0.006543     1.080671
	    6 R(3,6)          =      1.387734    -0.086939    -0.008917     1.378817
	    7 R(3,9)          =      1.391358     0.026826     0.002788     1.394145
	    8 R(3,17)         =      1.085440    -0.045423    -0.005833     1.079606
	    9 R(4,7)          =      1.387407    -0.082605    -0.008479     1.378928
	   10 R(4,9)          =      1.391499     0.018051     0.001897     1.393396
	   11 R(4,18)         =      1.086218    -0.049133    -0.006321     1.079896
	   12 R(5,10)         =      1.395407    -0.031730    -0.003318     1.392089
	   13 R(5,11)         =      1.394521    -0.125160    -0.013116     1.381405
	   14 R(5,19)         =      1.086545    -0.039525    -0.004994     1.081551
	   15 R(6,12)         =      1.339353     0.014766     0.001383     1.340736
	   16 R(6,20)         =      1.081649    -0.022799    -0.002896     1.078753
	   17 R(7,12)         =      1.340549     0.007162     0.000679     1.341228
	   18 R(7,21)         =      1.081085    -0.019822    -0.002504     1.078581
	   19 R(8,9)          =      1.447320     0.120311     0.014439     1.461759
	   20 R(8,11)         =      1.394821    -0.068072    -0.007267     1.387554
	   21 R(10,13)        =      1.361638    -0.103577    -0.009446     1.352192
	   22 R(11,14)        =      1.341125    -0.016627    -0.001420     1.339706
	   23 R(12,22)        =      1.019659    -0.048899    -0.005319     1.014340
	   24 R(13,23)        =      0.970316    -0.062935    -0.005770     0.964546
	   25 B(1,2,10)       =    120.009056    -0.000148    -0.280126   119.728930
	   26 B(1,2,16)       =    119.675016     0.000240     0.550129   120.225145
	   27 B(1,8,9)        =    119.838095     0.000411     0.807034   120.645129
	   28 B(1,8,11)       =    119.959722    -0.000625    -1.194354   118.765367
	   29 B(2,1,8)        =    120.031219     0.000324     0.674895   120.706114
	   30 B(2,1,15)       =    119.144799    -0.000016     0.023096   119.167896
	   31 B(2,10,5)       =    119.994870     0.000057     0.122709   120.117580
	   32 B(2,10,13)      =    119.991510    -0.000929    -1.782268   118.209242
	   33 B(3,6,12)       =    120.149093    -0.000362    -0.751957   119.397136
	   34 B(3,6,20)       =    123.822224     0.000085     0.140863   123.963087
	   35 B(3,9,4)        =    119.936589    -0.000499    -0.959896   118.976693
	   36 B(3,9,8)        =    120.009477     0.000331     0.622119   120.631596
	   37 B(4,7,12)       =    120.055807    -0.000332    -0.699017   119.356790
	   38 B(4,7,21)       =    123.921097     0.000065     0.101172   124.022269
	   39 B(4,9,8)        =    120.053931     0.000169     0.337437   120.391368
	   40 B(5,10,13)      =    120.013619     0.000872     1.659560   121.673178
	   41 B(5,11,8)       =    120.045019     0.000615     1.158483   121.203502
	   42 B(5,11,14)      =    119.256220    -0.000018    -0.011343   119.244878
	   43 B(6,3,9)        =    118.723013     0.000424     0.857262   119.580275
	   44 B(6,3,17)       =    119.790207    -0.000179    -0.350159   119.440048
	   45 B(6,12,7)       =    122.336828     0.000359     0.730580   123.067408
	   46 B(6,12,22)      =    118.894419    -0.000189    -0.388819   118.505600
	   47 B(7,4,9)        =    118.798657     0.000411     0.822947   119.621604
	   48 B(7,4,18)       =    119.726085    -0.000163    -0.308303   119.417781
	   49 B(7,12,22)      =    118.768703    -0.000170    -0.341738   118.426965
	   50 B(8,1,15)       =    120.823969    -0.000309    -0.698157   120.125812
	   51 B(8,11,14)      =    120.698759    -0.000598    -1.147336   119.551423
	   52 B(9,3,17)       =    121.486768    -0.000245    -0.507091   120.979678
	   53 B(9,4,18)       =    121.475227    -0.000248    -0.514726   120.960501
	   54 B(9,8,11)       =    120.202184     0.000214     0.387213   120.589397
	   55 B(10,2,16)      =    120.315896    -0.000092    -0.269990   120.045907
	   56 B(10,5,11)      =    119.960108    -0.000224    -0.481767   119.478341
	   57 B(10,5,19)      =    120.341451     0.000247     0.573842   120.915293
	   58 B(10,13,23)     =    110.253909    -0.000150    -0.372322   109.881587
	   59 B(11,5,19)      =    119.698439    -0.000024    -0.092077   119.606362
	   60 B(12,6,20)      =    116.028678     0.000277     0.611092   116.639769
	   61 B(12,7,21)      =    116.023035     0.000267     0.597906   116.620940
	   62 D(1,2,10,5)     =     -0.018609    -0.000003    -0.057098    -0.075706
	   63 D(1,2,10,13)    =    179.988267    -0.000003    -0.062184   179.926083
	   64 D(1,8,9,3)      =   -105.015939    -0.000015    -0.145686  -105.161626
	   65 D(1,8,9,4)      =     75.007337    -0.000024    -0.384343    74.622995
	   66 D(1,8,11,5)     =      0.018608    -0.000003    -0.101834    -0.083227
	   67 D(1,8,11,14)    =   -179.996269     0.000006     0.075535  -179.920734
	   68 D(2,1,8,9)      =    179.981897    -0.000005    -0.137371   179.844525
	   69 D(2,1,8,11)     =     -0.019945    -0.000003    -0.017033    -0.036978
	   70 D(2,10,5,11)    =      0.017261    -0.000003    -0.059238    -0.041977
	   71 D(2,10,5,19)    =   -179.967685    -0.000003    -0.053668  -180.021353
	   72 D(2,10,13,23)   =    179.982383     0.000001     0.018952   180.001336
	   73 D(3,6,12,7)     =     -0.018229    -0.000000    -0.009269    -0.027498
	   74 D(3,6,12,22)    =    179.899747     0.000001     0.013002   179.912750
	   75 D(3,9,4,7)      =     -0.015113    -0.000003    -0.076689    -0.091802
	   76 D(3,9,4,18)     =   -179.950347     0.000000    -0.018046  -179.968393
	   77 D(3,9,8,11)     =     74.985907    -0.000017    -0.268198    74.717708
	   78 D(4,7,12,6)     =     -0.016250     0.000003     0.063720     0.047469
	   79 D(4,7,12,22)    =   -179.934326     0.000002     0.041503  -179.892823
	   80 D(4,9,3,6)      =     -0.018043     0.000005     0.129466     0.111424
	   81 D(4,9,3,17)     =   -179.978657     0.000004     0.092671  -179.885986
	   82 D(4,9,8,11)     =   -104.990817    -0.000026    -0.506855  -105.497672
	   83 D(5,10,2,16)    =    179.917291    -0.000002    -0.041355   179.875936
	   84 D(5,10,13,23)   =     -0.010740     0.000000     0.013894     0.003154
	   85 D(5,11,8,9)     =   -179.983240    -0.000001     0.018442  -179.964798
	   86 D(6,3,9,8)      =   -179.994794    -0.000004    -0.106152  -180.100946
	   87 D(6,12,7,21)    =   -179.929350    -0.000002    -0.032410  -179.961760
	   88 D(7,4,9,8)      =    179.961628     0.000006     0.158416   180.120044
	   89 D(7,12,6,20)    =   -179.993383    -0.000003    -0.064041  -180.057424
	   90 D(8,1,2,10)     =      0.019955     0.000005     0.095714     0.115668
	   91 D(8,1,2,16)     =   -179.916358     0.000005     0.080472  -179.835886
	   92 D(8,9,3,17)     =      0.044592    -0.000005    -0.142948    -0.098355
	   93 D(8,9,4,18)     =      0.026394     0.000009     0.217059     0.243453
	   94 D(8,11,5,10)    =     -0.017270     0.000006     0.139884     0.122614
	   95 D(8,11,5,19)    =    179.967774     0.000006     0.134490   180.102263
	   96 D(9,3,6,12)     =      0.035012    -0.000004    -0.088465    -0.053454
	   97 D(9,3,6,20)     =   -179.991862    -0.000001    -0.029340  -180.021202
	   98 D(9,4,7,12)     =      0.032585    -0.000002    -0.018582     0.014002
	   99 D(9,4,7,21)     =    179.938478     0.000004     0.085480   180.023958
	  100 D(9,8,1,15)     =      0.023110     0.000001    -0.023110     0.000000
	  101 D(9,8,11,14)    =      0.001883     0.000008     0.195811     0.197694
	  102 D(10,2,1,15)    =    179.979432    -0.000000    -0.017335   179.962097
	  103 D(10,5,11,14)   =    179.997392    -0.000003    -0.036782   179.960611
	  104 D(11,5,10,13)   =   -179.989616    -0.000002    -0.054213  -180.043829
	  105 D(11,8,1,15)    =   -179.978731     0.000003     0.096792  -179.881939
	  106 D(12,6,3,17)    =    179.996311    -0.000002    -0.052315   179.943996
	  107 D(12,7,4,18)    =    179.968977    -0.000004    -0.076466   179.892512
	  108 D(13,10,2,16)   =     -0.075833    -0.000002    -0.046442    -0.122275
	  109 D(13,10,5,19)   =      0.025437    -0.000002    -0.048643    -0.023206
	  110 D(14,11,5,19)   =     -0.017564    -0.000003    -0.042176    -0.059740
	  111 D(15,1,2,16)    =      0.043120    -0.000001    -0.032577     0.010543
	  112 D(17,3,6,20)    =     -0.030563     0.000001     0.006810    -0.023753
	  113 D(18,4,7,21)    =     -0.125129     0.000001     0.027596    -0.097533
	  114 D(20,6,12,22)   =     -0.075406    -0.000002    -0.041770    -0.117176
	  115 D(21,7,12,22)   =      0.152575    -0.000003    -0.054627     0.097947
	  116 R(3,14)         =      3.229102    -0.011823    -0.004205     3.224897
	 ---------------------------------------------------------------------------
	Successfully symmetrized geometry.
	 Forces used to impose fixed constraints are not included.
	  Forces zeroed: 64 

  ==> Convergence Check <==

  Measures of convergence in internal coordinates in au.
  Criteria marked as inactive (o), active & met (*), and active & unmet ( ).
  --------------------------------------------------------------------------------------------- ~
   Step     Total Energy     Delta E     MAX Force     RMS Force      MAX Disp      RMS Disp    ~
  --------------------------------------------------------------------------------------------- ~
    Convergence Criteria    1.00e-06 *    3.00e-04 *             o    1.20e-03 *             o  ~
  --------------------------------------------------------------------------------------------- ~
      1    -653.23981717   -6.53e+02      1.52e-02      4.36e-03 o    3.11e-02      9.28e-03 o  ~
  ---------------------------------------------------------------------------------------------

	Writing optimization data to binary file.
	Structure for next step:
	Cartesian Geometry (in Angstrom)
	    C    -1.3489658916   0.7744169355  -0.7682271483
	    C    -2.4204525888   1.3426407557  -0.0987212208
	    C     0.9363117278  -1.8144118154  -0.8755020461
	    C     1.7954592487   0.3756937084  -1.3578834510
	    C    -1.4234121073   0.7188239360   2.0042475793
	    C     2.0084156335  -2.3592060773  -1.5499862545
	    C     2.8517586500  -0.2091132626  -2.0239716730
	    C    -0.3078419358   0.1731835099  -0.0639507952
	    C     0.8204499929  -0.4289614179  -0.7718471908
	    C    -2.4578305709   1.3157866544   1.2890369082
	    C    -0.3629251129   0.1542859889   1.3223803043
	    N     2.9234876422  -1.5464113590  -2.0973267759
	    O    -3.5172862411   1.8807574766   1.9109569780
	    F     0.6304285970  -0.4182664423   2.0153762104
	    H    -1.3294279688   0.7999001875  -1.8490766066
	    H    -3.2250686566   1.8045928513  -0.6528365489
	    H     0.1985715208  -2.4682407912  -0.4352788291
	    H     1.7376581556   1.4523060106  -1.2967186638
	    H    -1.4391861648   0.6909151454   3.0853236920
	    H     2.1677959601  -3.4190549008  -1.6725668025
	    H     3.6444533816   0.3443509605  -2.5021439935
	    H     3.7073584012  -1.9616660924  -2.5892568863
	    H    -3.4207763512   1.7946332519   2.8667902426
			--------------------------
			 OPTKING Finished Execution 
			--------------------------

    Structure for next step:
    Molecular point group: c1
    Full point group: C1

    Geometry (in Angstrom), charge = 1, multiplicity = 1:

    C           -1.347941062783     0.774261611711    -0.766475943186
    C           -2.419427759987     1.342485431877    -0.096970015692
    C            0.937336556564    -1.814567139170    -0.873750840964
    C            1.796484077500     0.375538384564    -1.356132245924
    C           -1.422387278513     0.718668612205     2.005998784340
    C            2.009440462348    -2.359361401074    -1.548235049440
    C            2.852783478785    -0.209268586382    -2.022220467931
    C           -0.306817106996     0.173028186088    -0.062199590093
    C            0.821474821715    -0.429116741693    -0.770095985748
    C           -2.456805742090     1.315631330630     1.290788113329
    C           -0.361900284072     0.154130665097     1.324131509358
    N            2.924512470981    -1.546566682804    -2.095575570831
    O           -3.516261412323     1.880602152814     1.912708183084
    F            0.631453425775    -0.418421766070     2.017127415466
    H           -1.328403139954     0.799744863725    -1.847325401538
    H           -3.224043827827     1.804437527483    -0.651085343847
    H            0.199596349563    -2.468396114939    -0.433527623982
    H            1.738682984378     1.452150686793    -1.294967458736
    H           -1.438161335978     0.690759821572     3.087074897118
    H            2.168820788909    -3.419210224545    -1.670815597370
    H            3.645478210358     0.344195636724    -2.500392788386
    H            3.708383229997    -1.961821416174    -2.587505681239
    H           -3.419751522403     1.794477928120     2.868541447648

gradient() will perform analytic gradient computation.

*** tstart() called on gpu-1-15.local
*** at Sat Nov 11 19:07:39 2017

    SCF Algorithm Type (re)set to DF.

*** tstart() called on gpu-1-15.local
*** at Sat Nov 11 19:07:39 2017

   => Loading Basis Set <=

    Name: AUG-CC-PVTZ
    Role: ORBITAL
    Keyword: BASIS
    atoms 1-11  entry C          line   221 file /cbio/jclab/home/chayas/anaconda/envs/py35/share/psi4/basis/aug-cc-pvtz.gbs 
    atoms 12    entry N          line   267 file /cbio/jclab/home/chayas/anaconda/envs/py35/share/psi4/basis/aug-cc-pvtz.gbs 
    atoms 13    entry O          line   313 file /cbio/jclab/home/chayas/anaconda/envs/py35/share/psi4/basis/aug-cc-pvtz.gbs 
    atoms 14    entry F          line   359 file /cbio/jclab/home/chayas/anaconda/envs/py35/share/psi4/basis/aug-cc-pvtz.gbs 
    atoms 15-23 entry H          line    34 file /cbio/jclab/home/chayas/anaconda/envs/py35/share/psi4/basis/aug-cc-pvtz.gbs 


         ---------------------------------------------------------
                                   SCF
            by Justin Turney, Rob Parrish, and Andy Simmonett
                              RHF Reference
                        8 Threads,   4768 MiB Core
         ---------------------------------------------------------

  ==> Geometry <==

    Molecular point group: c1
    Full point group: C1

    Geometry (in Angstrom), charge = 1, multiplicity = 1:

       Center              X                  Y                   Z               Mass       
    ------------   -----------------  -----------------  -----------------  -----------------
           C         -1.347941062783     0.774261611711    -0.766475943186    12.000000000000
           C         -2.419427759987     1.342485431877    -0.096970015692    12.000000000000
           C          0.937336556564    -1.814567139170    -0.873750840964    12.000000000000
           C          1.796484077500     0.375538384564    -1.356132245924    12.000000000000
           C         -1.422387278513     0.718668612205     2.005998784340    12.000000000000
           C          2.009440462348    -2.359361401074    -1.548235049440    12.000000000000
           C          2.852783478785    -0.209268586382    -2.022220467931    12.000000000000
           C         -0.306817106996     0.173028186088    -0.062199590093    12.000000000000
           C          0.821474821715    -0.429116741693    -0.770095985748    12.000000000000
           C         -2.456805742090     1.315631330630     1.290788113329    12.000000000000
           C         -0.361900284072     0.154130665097     1.324131509358    12.000000000000
           N          2.924512470981    -1.546566682804    -2.095575570831    14.003074004780
           O         -3.516261412323     1.880602152814     1.912708183084    15.994914619560
           F          0.631453425775    -0.418421766070     2.017127415466    18.998403224000
           H         -1.328403139954     0.799744863725    -1.847325401538     1.007825032070
           H         -3.224043827827     1.804437527483    -0.651085343847     1.007825032070
           H          0.199596349563    -2.468396114939    -0.433527623982     1.007825032070
           H          1.738682984378     1.452150686793    -1.294967458736     1.007825032070
           H         -1.438161335978     0.690759821572     3.087074897118     1.007825032070
           H          2.168820788909    -3.419210224545    -1.670815597370     1.007825032070
           H          3.645478210358     0.344195636724    -2.500392788386     1.007825032070
           H          3.708383229997    -1.961821416174    -2.587505681239     1.007825032070
           H         -3.419751522403     1.794477928120     2.868541447648     1.007825032070

  Running in c1 symmetry.

  Rotational constants: A =      0.06353  B =      0.01264  C =      0.01165 [cm^-1]
  Rotational constants: A =   1904.71357  B =    379.05382  C =    349.14257 [MHz]
  Nuclear repulsion =  829.764389915568927

  Charge       = 1
  Multiplicity = 1
  Electrons    = 98
  Nalpha       = 49
  Nbeta        = 49

  ==> Algorithm <==

  SCF Algorithm Type is DF.
  DIIS enabled.
  MOM disabled.
  Fractional occupation disabled.
  Guess Type is READ.
  Energy threshold   = 1.00e-10
  Density threshold  = 1.00e-10
  Integral threshold = 0.00e+00

  ==> Primary Basis <==

  Basis Set: AUG-CC-PVTZ
    Blend: AUG-CC-PVTZ
    Number of shells: 277
    Number of basis function: 851
    Number of Cartesian functions: 995
    Spherical Harmonics?: true
    Max angular momentum: 3

   => Loading Basis Set <=

    Name: (AUG-CC-PVTZ AUX)
    Role: JKFIT
    Keyword: DF_BASIS_SCF
    atoms 1-11  entry C          line   161 file /cbio/jclab/home/chayas/anaconda/envs/py35/share/psi4/basis/aug-cc-pvtz-jkfit.gbs 
    atoms 12    entry N          line   223 file /cbio/jclab/home/chayas/anaconda/envs/py35/share/psi4/basis/aug-cc-pvtz-jkfit.gbs 
    atoms 13    entry O          line   285 file /cbio/jclab/home/chayas/anaconda/envs/py35/share/psi4/basis/aug-cc-pvtz-jkfit.gbs 
    atoms 14    entry F          line   347 file /cbio/jclab/home/chayas/anaconda/envs/py35/share/psi4/basis/aug-cc-pvtz-jkfit.gbs 
    atoms 15-23 entry H          line    69 file /cbio/jclab/home/chayas/anaconda/envs/py35/share/psi4/basis/aug-cc-pvtz-jkfit.gbs 

  Reading orbitals from file 180, no projection.

  ==> Pre-Iterations <==

   -------------------------------------------------------
    Irrep   Nso     Nmo     Nalpha   Nbeta   Ndocc  Nsocc
   -------------------------------------------------------
     A        851     851       0       0       0       0
   -------------------------------------------------------
    Total     851     851      49      49      49       0
   -------------------------------------------------------

  ==> Integral Setup <==

  ==> DFJK: Density-Fitted J/K Matrices <==

    J tasked:                  Yes
    K tasked:                  Yes
    wK tasked:                  No
    OpenMP threads:              8
    Integrals threads:           8
    Memory (MB):              3576
    Algorithm:                Disk
    Integral Cache:           NONE
    Schwarz Cutoff:          1E-12
    Fitting Condition:       1E-12

   => Auxiliary Basis Set <=

  Basis Set: (AUG-CC-PVTZ AUX)
    Blend: AUG-CC-PVTZ-JKFIT
    Number of shells: 546
    Number of basis function: 1870
    Number of Cartesian functions: 2329
    Spherical Harmonics?: true
    Max angular momentum: 4

  Minimum eigenvalue in the overlap matrix is 6.6767982288E-07.
  Using Symmetric Orthogonalization.

  SCF Guess: Orbitals guess was supplied from a previous computation.

  ==> Iterations <==

                           Total Energy        Delta E     RMS |[F,P]|

   @DF-RHF iter   0:  -650.60054104367555   -6.50601e+02   2.96474e-04 
   @DF-RHF iter   1:  -650.56222171599416    3.83193e-02   6.38033e-05 
   @DF-RHF iter   2:  -650.56240203987750   -1.80324e-04   3.72033e-05 DIIS
   @DF-RHF iter   3:  -650.56246897764800   -6.69378e-05   7.67791e-06 DIIS
   @DF-RHF iter   4:  -650.56247407293597   -5.09529e-06   3.30751e-06 DIIS
   @DF-RHF iter   5:  -650.56247543837628   -1.36544e-06   1.38402e-06 DIIS
   @DF-RHF iter   6:  -650.56247575295049   -3.14574e-07   7.12814e-07 DIIS
   @DF-RHF iter   7:  -650.56247586207178   -1.09121e-07   3.18206e-07 DIIS
   @DF-RHF iter   8:  -650.56247589124678   -2.91750e-08   9.53638e-08 DIIS
   @DF-RHF iter   9:  -650.56247589378040   -2.53362e-09   4.10749e-08 DIIS
   @DF-RHF iter  10:  -650.56247589401357   -2.33172e-10   1.29217e-08 DIIS
   @DF-RHF iter  11:  -650.56247589405712   -4.35421e-11   3.29646e-09 DIIS
   @DF-RHF iter  12:  -650.56247589400095    5.61613e-11   1.38614e-09 DIIS
   @DF-RHF iter  13:  -650.56247589404302   -4.20641e-11   4.94208e-10 DIIS
   @DF-RHF iter  14:  -650.56247589402631    1.67120e-11   2.82440e-10 DIIS
   @DF-RHF iter  15:  -650.56247589403563   -9.32232e-12   1.22864e-10 DIIS
   @DF-RHF iter  16:  -650.56247589403733   -1.70530e-12   4.43101e-11 DIIS

  ==> Post-Iterations <==

    Orbital Energies (a.u.)
    -----------------------

    Doubly Occupied:                                                      

       1A    -26.439649     2A    -20.703269     3A    -15.845688  
       4A    -11.490928     5A    -11.490092     6A    -11.463184  
       7A    -11.455671     8A    -11.432649     9A    -11.421717  
      10A    -11.421286    11A    -11.378979    12A    -11.375178  
      13A    -11.356182    14A    -11.347151    15A     -1.759203  
      16A     -1.523727    17A     -1.520921    18A     -1.323596  
      19A     -1.273311    20A     -1.247686    21A     -1.163952  
      22A     -1.151871    23A     -1.073098    24A     -1.064333  
      25A     -0.991325    26A     -0.972128    27A     -0.962761  
      28A     -0.887882    29A     -0.877401    30A     -0.861942  
      31A     -0.854836    32A     -0.825175    33A     -0.822539  
      34A     -0.806357    35A     -0.803849    36A     -0.782462  
      37A     -0.756891    38A     -0.747486    39A     -0.727544  
      40A     -0.717473    41A     -0.706371    42A     -0.687985  
      43A     -0.655319    44A     -0.642943    45A     -0.612470  
      46A     -0.580923    47A     -0.544354    48A     -0.470065  
      49A     -0.445298  

    Virtual:                                                              

      50A     -0.106190    51A     -0.087307    52A     -0.068146  
      53A     -0.063244    54A     -0.059227    55A     -0.051139  
      56A     -0.041561    57A     -0.039779    58A     -0.035057  
      59A     -0.030537    60A     -0.024652    61A     -0.015707  
      62A     -0.011250    63A     -0.010661    64A     -0.005939  
      65A     -0.003009    66A      0.001640    67A      0.008890  
      68A      0.010825    69A      0.013597    70A      0.016422  
      71A      0.017913    72A      0.023985    73A      0.026845  
      74A      0.028943    75A      0.031686    76A      0.032802  
      77A      0.037876    78A      0.040090    79A      0.041355  
      80A      0.044583    81A      0.052422    82A      0.057190  
      83A      0.060288    84A      0.063081    85A      0.067173  
      86A      0.068996    87A      0.076773    88A      0.081844  
      89A      0.086791    90A      0.087928    91A      0.092146  
      92A      0.094571    93A      0.098885    94A      0.101561  
      95A      0.106379    96A      0.116866    97A      0.117432  
      98A      0.126796    99A      0.130417   100A      0.134271  
     101A      0.136303   102A      0.139896   103A      0.143649  
     104A      0.145313   105A      0.151027   106A      0.151721  
     107A      0.161003   108A      0.162174   109A      0.163958  
     110A      0.167891   111A      0.170640   112A      0.173011  
     113A      0.175335   114A      0.182351   115A      0.185011  
     116A      0.189472   117A      0.194694   118A      0.195744  
     119A      0.201009   120A      0.205107   121A      0.208600  
     122A      0.214136   123A      0.215795   124A      0.220426  
     125A      0.224105   126A      0.226788   127A      0.230018  
     128A      0.232680   129A      0.236995   130A      0.244315  
     131A      0.245397   132A      0.249137   133A      0.254651  
     134A      0.255793   135A      0.258561   136A      0.264386  
     137A      0.274225   138A      0.276525   139A      0.280101  
     140A      0.280690   141A      0.283643   142A      0.291257  
     143A      0.293619   144A      0.299920   145A      0.301526  
     146A      0.310089   147A      0.316416   148A      0.319316  
     149A      0.323456   150A      0.325707   151A      0.327695  
     152A      0.331067   153A      0.333916   154A      0.335738  
     155A      0.337855   156A      0.341780   157A      0.344437  
     158A      0.349949   159A      0.352243   160A      0.357421  
     161A      0.358636   162A      0.363323   163A      0.369116  
     164A      0.371388   165A      0.373173   166A      0.376262  
     167A      0.378512   168A      0.384527   169A      0.387148  
     170A      0.393281   171A      0.399917   172A      0.401360  
     173A      0.403617   174A      0.409336   175A      0.410928  
     176A      0.412990   177A      0.416487   178A      0.424574  
     179A      0.427317   180A      0.428830   181A      0.430815  
     182A      0.438116   183A      0.441275   184A      0.447179  
     185A      0.450141   186A      0.453239   187A      0.455992  
     188A      0.466223   189A      0.471917   190A      0.475287  
     191A      0.482941   192A      0.489713   193A      0.492069  
     194A      0.494523   195A      0.500048   196A      0.505373  
     197A      0.516813   198A      0.521999   199A      0.528803  
[...]
     128A      0.232990   129A      0.237800   130A      0.243581  
     131A      0.245174   132A      0.250838   133A      0.252483  
     134A      0.258062   135A      0.259409   136A      0.264574  
     137A      0.272096   138A      0.275755   139A      0.280425  
     140A      0.282001   141A      0.285665   142A      0.291264  
     143A      0.294601   144A      0.297155   145A      0.302859  
     146A      0.312247   147A      0.315679   148A      0.320835  
     149A      0.323972   150A      0.325223   151A      0.329541  
     152A      0.331952   153A      0.334685   154A      0.335734  
     155A      0.338475   156A      0.343338   157A      0.345909  
     158A      0.347012   159A      0.351148   160A      0.356981  
     161A      0.359254   162A      0.363229   163A      0.370623  
     164A      0.370884   165A      0.374114   166A      0.376110  
     167A      0.381863   168A      0.384279   169A      0.388408  
     170A      0.392414   171A      0.398496   172A      0.402587  
     173A      0.404328   174A      0.408269   175A      0.410625  
     176A      0.413730   177A      0.418928   178A      0.425953  
     179A      0.427055   180A      0.428655   181A      0.432070  
     182A      0.434931   183A      0.443257   184A      0.447205  
     185A      0.449007   186A      0.454721   187A      0.458952  
     188A      0.463883   189A      0.472174   190A      0.475924  
     191A      0.482020   192A      0.486312   193A      0.490526  
     194A      0.499220   195A      0.502831   196A      0.508143  
     197A      0.518581   198A      0.523574   199A      0.531110  
     200A      0.532139   201A      0.540678   202A      0.543228  
     203A      0.548737   204A      0.561633   205A      0.568156  
     206A      0.570775   207A      0.575068   208A      0.577273  
     209A      0.579043   210A      0.588432   211A      0.591809  
     212A      0.599042   213A      0.601523   214A      0.607509  
     215A      0.614037   216A      0.614327   217A      0.620147  
     218A      0.623959   219A      0.631977   220A      0.633689  
     221A      0.638175   222A      0.643356   223A      0.649762  
     224A      0.656749   225A      0.663225   226A      0.666873  
     227A      0.679472   228A      0.683547   229A      0.692056  
     230A      0.694381   231A      0.701275   232A      0.702196  
     233A      0.713025   234A      0.716290   235A      0.723838  
     236A      0.731540   237A      0.740471   238A      0.742457  
     239A      0.748575   240A      0.749536   241A      0.753185  
     242A      0.761403   243A      0.767902   244A      0.770864  
     245A      0.774492   246A      0.776490   247A      0.778783  
     248A      0.780806   249A      0.786161   250A      0.790583  
     251A      0.796366   252A      0.799168   253A      0.803532  
     254A      0.806659   255A      0.813063   256A      0.819243  
     257A      0.822742   258A      0.826581   259A      0.828564  
     260A      0.836758   261A      0.839842   262A      0.844595  
     263A      0.851567   264A      0.856348   265A      0.862497  
     266A      0.865991   267A      0.871545   268A      0.873803  
     269A      0.880191   270A      0.885764   271A      0.888577  
     272A      0.894115   273A      0.901146   274A      0.906248  
     275A      0.911078   276A      0.917366   277A      0.924309  
     278A      0.927451   279A      0.934023   280A      0.934946  
     281A      0.938709   282A      0.945274   283A      0.946976  
     284A      0.949294   285A      0.954314   286A      0.960917  
     287A      0.965671   288A      0.971022   289A      0.974092  
     290A      0.978247   291A      0.981852   292A      0.984484  
     293A      0.988881   294A      0.991396   295A      0.997561  
     296A      0.999850   297A      1.010538   298A      1.015886  
     299A      1.018899   300A      1.024724   301A      1.027835  
     302A      1.033731   303A      1.035267   304A      1.043516  
     305A      1.048080   306A      1.048310   307A      1.049816  
     308A      1.058147   309A      1.063062   310A      1.071153  
     311A      1.075098   312A      1.078875   313A      1.085337  
     314A      1.092042   315A      1.096943   316A      1.102466  
     317A      1.104899   318A      1.109008   319A      1.115405  
     320A      1.123075   321A      1.130524   322A      1.132028  
     323A      1.137213   324A      1.140429   325A      1.146514  
     326A      1.150619   327A      1.159840   328A      1.162893  
     329A      1.168936   330A      1.173755   331A      1.181803  
     332A      1.191636   333A      1.202430   334A      1.210951  
     335A      1.213485   336A      1.224141   337A      1.232022  
     338A      1.241253   339A      1.242273   340A      1.247718  
     341A      1.248986   342A      1.257309   343A      1.260513  
     344A      1.267530   345A      1.272946   346A      1.274834  
     347A      1.280134   348A      1.283904   349A      1.288238  
     350A      1.300078   351A      1.304173   352A      1.311619  
     353A      1.324864   354A      1.335611   355A      1.337533  
     356A      1.347050   357A      1.351252   358A      1.353873  
     359A      1.365993   360A      1.378132   361A      1.382613  
     362A      1.392567   363A      1.397515   364A      1.406600  
     365A      1.407556   366A      1.416665   367A      1.424598  
     368A      1.427118   369A      1.433833   370A      1.438050  
     371A      1.441966   372A      1.452708   373A      1.455033  
     374A      1.471372   375A      1.477304   376A      1.481206  
     377A      1.496254   378A      1.502128   379A      1.510240  
     380A      1.514992   381A      1.518102   382A      1.525001  
     383A      1.530379   384A      1.535628   385A      1.538028  
     386A      1.544278   387A      1.554738   388A      1.566749  
     389A      1.575175   390A      1.578815   391A      1.589681  
     392A      1.592552   393A      1.605096   394A      1.623847  
     395A      1.625651   396A      1.630432   397A      1.637292  
     398A      1.648445   399A      1.653112   400A      1.662243  
     401A      1.670685   402A      1.672770   403A      1.683646  
     404A      1.689928   405A      1.697705   406A      1.709896  
     407A      1.718961   408A      1.725586   409A      1.726837  
     410A      1.739270   411A      1.743277   412A      1.752254  
     413A      1.758085   414A      1.774780   415A      1.776794  
     416A      1.784802   417A      1.793293   418A      1.796009  
     419A      1.808340   420A      1.810246   421A      1.820035  
     422A      1.828567   423A      1.832410   424A      1.838175  
     425A      1.846451   426A      1.857187   427A      1.862478  
     428A      1.871981   429A      1.876970   430A      1.887498  
     431A      1.894155   432A      1.898599   433A      1.903594  
     434A      1.913384   435A      1.919473   436A      1.924437  
     437A      1.936261   438A      1.947943   439A      1.948489  
     440A      1.961742   441A      1.964514   442A      1.972108  
     443A      1.987237   444A      1.992371   445A      2.005861  
     446A      2.013472   447A      2.018805   448A      2.027720  
     449A      2.033316   450A      2.041536   451A      2.047649  
     452A      2.052889   453A      2.060345   454A      2.064086  
     455A      2.079193   456A      2.081219   457A      2.084547  
     458A      2.093665   459A      2.111356   460A      2.117727  
     461A      2.136774   462A      2.145305   463A      2.153509  
     464A      2.173414   465A      2.190573   466A      2.197411  
     467A      2.205505   468A      2.211581   469A      2.216701  
     470A      2.232088   471A      2.235923   472A      2.245884  
     473A      2.249002   474A      2.259640   475A      2.266759  
     476A      2.284614   477A      2.290398   478A      2.304532  
     479A      2.308387   480A      2.316960   481A      2.325215  
     482A      2.336314   483A      2.357037   484A      2.363367  
     485A      2.374767   486A      2.393400   487A      2.406865  
     488A      2.414172   489A      2.418738   490A      2.424702  
     491A      2.439733   492A      2.448821   493A      2.477342  
     494A      2.483935   495A      2.495699   496A      2.496621  
     497A      2.501595   498A      2.518880   499A      2.524287  
     500A      2.539883   501A      2.544004   502A      2.568287  
     503A      2.579898   504A      2.594402   505A      2.621151  
     506A      2.627411   507A      2.634866   508A      2.648463  
     509A      2.673595   510A      2.693871   511A      2.707624  
     512A      2.722477   513A      2.741463   514A      2.770304  
     515A      2.785898   516A      2.797447   517A      2.810121  
     518A      2.822783   519A      2.841956   520A      2.859409  
     521A      2.899469   522A      2.914474   523A      2.927341  
     524A      2.932475   525A      2.941484   526A      2.957467  
     527A      2.966372   528A      2.980292   529A      3.001125  
     530A      3.022136   531A      3.031906   532A      3.046411  
     533A      3.055578   534A      3.063749   535A      3.073194  
     536A      3.082401   537A      3.095894   538A      3.104081  
     539A      3.127756   540A      3.136691   541A      3.140285  
     542A      3.154957   543A      3.170453   544A      3.179443  
     545A      3.189001   546A      3.199256   547A      3.224327  
     548A      3.232281   549A      3.237140   550A      3.247010  
     551A      3.256060   552A      3.268340   553A      3.279976  
     554A      3.290650   555A      3.302015   556A      3.318962  
     557A      3.323100   558A      3.329909   559A      3.332209  
     560A      3.339811   561A      3.353461   562A      3.355046  
     563A      3.365638   564A      3.375121   565A      3.378633  
     566A      3.384648   567A      3.397634   568A      3.405005  
     569A      3.413847   570A      3.423169   571A      3.430917  
     572A      3.433652   573A      3.446200   574A      3.447963  
     575A      3.469668   576A      3.472758   577A      3.485079  
     578A      3.490412   579A      3.497162   580A      3.501562  
     581A      3.519322   582A      3.529163   583A      3.532212  
     584A      3.539711   585A      3.553581   586A      3.570025  
     587A      3.580271   588A      3.592477   589A      3.599105  
     590A      3.617492   591A      3.623044   592A      3.627155  
     593A      3.633411   594A      3.645524   595A      3.654587  
     596A      3.656199   597A      3.663282   598A      3.678304  
     599A      3.684583   600A      3.697464   601A      3.701663  
     602A      3.716068   603A      3.719481   604A      3.727300  
     605A      3.741761   606A      3.744257   607A      3.750080  
     608A      3.754662   609A      3.765504   610A      3.776497  
     611A      3.784972   612A      3.786675   613A      3.801239  
     614A      3.806140   615A      3.822797   616A      3.826225  
     617A      3.832126   618A      3.846137   619A      3.854481  
     620A      3.860318   621A      3.863894   622A      3.871502  
     623A      3.893594   624A      3.898043   625A      3.906705  
     626A      3.909447   627A      3.926485   628A      3.931437  
     629A      3.942546   630A      3.952286   631A      3.959751  
     632A      3.972095   633A      3.987297   634A      3.990984  
     635A      3.994785   636A      4.003563   637A      4.014370  
     638A      4.016104   639A      4.030782   640A      4.037451  
     641A      4.049335   642A      4.052400   643A      4.057344  
     644A      4.068267   645A      4.079806   646A      4.082151  
     647A      4.093633   648A      4.098208   649A      4.112021  
     650A      4.121044   651A      4.123485   652A      4.136646  
     653A      4.140468   654A      4.165336   655A      4.173379  
     656A      4.180144   657A      4.192970   658A      4.202083  
     659A      4.212860   660A      4.219500   661A      4.224731  
     662A      4.231858   663A      4.236100   664A      4.256406  
     665A      4.258643   666A      4.262020   667A      4.275287  
     668A      4.283717   669A      4.293386   670A      4.299891  
     671A      4.313362   672A      4.318318   673A      4.321508  
     674A      4.333874   675A      4.341081   676A      4.357795  
     677A      4.361224   678A      4.372992   679A      4.381964  
     680A      4.386952   681A      4.400197   682A      4.405972  
     683A      4.422197   684A      4.429064   685A      4.442794  
     686A      4.451814   687A      4.460374   688A      4.469527  
     689A      4.475984   690A      4.481925   691A      4.495997  
     692A      4.510585   693A      4.520449   694A      4.554365  
     695A      4.570422   696A      4.601275   697A      4.605357  
     698A      4.615518   699A      4.620346   700A      4.622648  
     701A      4.645242   702A      4.655372   703A      4.662607  
     704A      4.682269   705A      4.698366   706A      4.714217  
     707A      4.725393   708A      4.740822   709A      4.747357  
     710A      4.754281   711A      4.771899   712A      4.779650  
     713A      4.803355   714A      4.810410   715A      4.819890  
     716A      4.834324   717A      4.840866   718A      4.860527  
     719A      4.872394   720A      4.877017   721A      4.907887  
     722A      4.917275   723A      4.929241   724A      4.937950  
     725A      4.944156   726A      4.948917   727A      4.955688  
     728A      4.964258   729A      4.990418   730A      5.009114  
     731A      5.010582   732A      5.023638   733A      5.028637  
     734A      5.042983   735A      5.057977   736A      5.063963  
     737A      5.065493   738A      5.075747   739A      5.103941  
     740A      5.114246   741A      5.124092   742A      5.173532  
     743A      5.183755   744A      5.189145   745A      5.204651  
     746A      5.221425   747A      5.236818   748A      5.243378  
     749A      5.265623   750A      5.278872   751A      5.286767  
     752A      5.293107   753A      5.333567   754A      5.339194  
     755A      5.356030   756A      5.371169   757A      5.373310  
     758A      5.389811   759A      5.408272   760A      5.417814  
     761A      5.470857   762A      5.479387   763A      5.502842  
     764A      5.508604   765A      5.536351   766A      5.581474  
     767A      5.601787   768A      5.608810   769A      5.636547  
     770A      5.656070   771A      5.668989   772A      5.689646  
     773A      5.698436   774A      5.710854   775A      5.753225  
     776A      5.773387   777A      5.795497   778A      5.830580  
     779A      5.868738   780A      5.911799   781A      5.930760  
     782A      5.970209   783A      5.977961   784A      6.007636  
     785A      6.020628   786A      6.039897   787A      6.065940  
     788A      6.154350   789A      6.173934   790A      6.210956  
     791A      6.240821   792A      6.286168   793A      6.307667  
     794A      6.340967   795A      6.384418   796A      6.420061  
     797A      6.428864   798A      6.465513   799A      6.520058  
     800A      6.556428   801A      6.613058   802A      6.641814  
     803A      6.680380   804A      6.757734   805A      6.765982  
     806A      6.792093   807A      6.838626   808A      6.870153  
     809A      6.912255   810A      6.912829   811A      6.958280  
     812A      6.978625   813A      7.143767   814A      7.173894  
     815A      7.306799   816A      7.323970   817A      7.378119  
     818A      7.444433   819A      7.548929   820A      7.591898  
     821A      7.598192   822A      7.679608   823A      7.901653  
     824A      8.304832   825A      8.578981   826A      8.885672  
     827A      8.937835   828A      9.160300   829A      9.176122  
     830A      9.296552   831A      9.404239   832A      9.429145  
     833A      9.477933   834A      9.540623   835A      9.593254  
     836A      9.922506   837A      9.978230   838A     15.971106  
     839A     16.366609   840A     16.563959   841A     16.666971  
     842A     16.952733   843A     16.988666   844A     18.848871  
     845A     19.231167   846A     19.669066   847A     19.871380  
     848A     20.259774   849A     20.418327   850A     20.513113  
     851A     21.670127  

    Final Occupation by Irrep:
              A 
    DOCC [    49 ]

  Energy converged.

  @DF-RHF Final Energy:  -650.56372646805607

   => Energetics <=

    Nuclear Repulsion Energy =            830.6665623696208058
    One-Electron Energy =               -2521.5209979221867798
    Two-Electron Energy =                1040.2907090845098992
    DFT Exchange-Correlation Energy =       0.0000000000000000
    Empirical Dispersion Energy =           0.0000000000000000
    PCM Polarization Energy =               0.0000000000000000
    EFP Energy =                            0.0000000000000000
    Total Energy =                       -650.5637264680560747



Properties will be evaluated at   0.000000,   0.000000,   0.000000 Bohr

Properties computed using the SCF density matrix

  Nuclear Dipole Moment: (a.u.)
     X:     1.1242      Y:    -0.3751      Z:    -6.6702

  Electronic Dipole Moment: (a.u.)
     X:     1.7684      Y:    -1.1736      Z:     4.2258

  Dipole Moment: (a.u.)
     X:     2.8925      Y:    -1.5487      Z:    -2.4444     Total:     4.0915

  Dipole Moment: (Debye)
     X:     7.3521      Y:    -3.9363      Z:    -6.2129     Total:    10.3994


*** tstop() called on gpu-1-15.local at Sun Nov 12 18:08:57 2017
Module time:
	user time   =    1050.16 seconds =      17.50 minutes
	system time =      49.21 seconds =       0.82 minutes
	total time  =        473 seconds =       7.88 minutes
Total time:
	user time   =  179422.03 seconds =    2990.37 minutes
	system time =    3628.50 seconds =      60.48 minutes
	total time  =      85956 seconds =    1432.60 minutes

  //>>>>>>>>>>>>>>>>>>>>>>>>>>>>>>>>>>>//
  //               DFMP2               //
  //<<<<<<<<<<<<<<<<<<<<<<<<<<<<<<<<<<<//

   => Loading Basis Set <=

    Name: (AUG-CC-PVTZ AUX)
    Role: RIFIT
    Keyword: DF_BASIS_MP2
    atoms 1-11  entry C          line   147 file /cbio/jclab/home/chayas/anaconda/envs/py35/share/psi4/basis/aug-cc-pvtz-ri.gbs 
    atoms 12    entry N          line   205 file /cbio/jclab/home/chayas/anaconda/envs/py35/share/psi4/basis/aug-cc-pvtz-ri.gbs 
    atoms 13    entry O          line   263 file /cbio/jclab/home/chayas/anaconda/envs/py35/share/psi4/basis/aug-cc-pvtz-ri.gbs 
    atoms 14    entry F          line   321 file /cbio/jclab/home/chayas/anaconda/envs/py35/share/psi4/basis/aug-cc-pvtz-ri.gbs 
    atoms 15-23 entry H          line    29 file /cbio/jclab/home/chayas/anaconda/envs/py35/share/psi4/basis/aug-cc-pvtz-ri.gbs 

	 --------------------------------------------------------
	                          DF-MP2                         
	      2nd-Order Density-Fitted Moller-Plesset Theory     
	              RMP2 Wavefunction,   8 Threads             
	                                                         
	        Rob Parrish, Justin Turney, Andy Simmonett,      
	           Ed Hohenstein, and C. David Sherrill          
	 --------------------------------------------------------

   => Auxiliary Basis Set <=

  Basis Set: (AUG-CC-PVTZ AUX)
    Blend: AUG-CC-PVTZ-RI
    Number of shells: 518
    Number of basis function: 1898
    Number of Cartesian functions: 2399
    Spherical Harmonics?: true
    Max angular momentum: 4

	 --------------------------------------------------------
	                 NBF =   851, NAUX =  1898
	 --------------------------------------------------------
	   CLASS    FOCC     OCC    AOCC    AVIR     VIR    FVIR
	   PAIRS       0      49      49     802     802       0
	 --------------------------------------------------------

