
    -----------------------------------------------------------------------
          Psi4: An Open-Source Ab Initio Electronic Structure Package
                               Psi4 1.1 release

                         Git: Rev {HEAD} add49b9 


    R. M. Parrish, L. A. Burns, D. G. A. Smith, A. C. Simmonett,
    A. E. DePrince III, E. G. Hohenstein, U. Bozkaya, A. Yu. Sokolov,
    R. Di Remigio, R. M. Richard, J. F. Gonthier, A. M. James,
    H. R. McAlexander, A. Kumar, M. Saitow, X. Wang, B. P. Pritchard,
    P. Verma, H. F. Schaefer III, K. Patkowski, R. A. King, E. F. Valeev,
    F. A. Evangelista, J. M. Turney, T. D. Crawford, and C. D. Sherrill,
    J. Chem. Theory Comput. in press (2017).
    (doi: 10.1021/acs.jctc.7b00174)

    -----------------------------------------------------------------------


    Psi4 started on: Sunday, 12 November 2017 12:37PM

    Process ID:  19004
    PSIDATADIR: /cbio/jclab/home/chayas/anaconda/envs/py35/share/psi4
    Memory:     500.0 MiB
    Threads:    8
    
  ==> Input File <==

--------------------------------------------------------------------------

memory 5 Gb

molecule phepyrOH_neutral {
  symmetry C1
  0 1 
  C      1.885   -1.036   -0.112
  C      2.878   -1.652   2.002
  C      0.807   -0.463   0.561
  C      1.800   -1.079   2.676
  C      3.891   -3.450   -0.732
  C      5.268   -1.574   -0.123
  C      4.992   -3.976   -1.388
  C      6.307   -2.184   -0.806
  C      2.921   -1.631   0.608
  C      4.040   -2.225   -0.090
  C      0.764   -0.484   1.955
  N      6.201   -3.372   -1.442
  O      -0.288   0.076   2.612
  H      1.904   -1.012   -1.199
  H      3.678   -2.112   2.578
  H      0.003   -0.001   -0.006
  H      1.772   -1.098   3.762
  H      2.948   -3.987   -0.730
  H      5.421   -0.618   0.367
  H      4.928   -4.927   -1.906
  H      7.285   -1.717   -0.860
  H      -0.175   -0.018   3.571
  units Angstrom
}

dih_string = "1 9 10 5 285"
set optking fixed_dihedral = $dih_string

optimize('MP2/aug-cc-PVTZ')
--------------------------------------------------------------------------

  Memory set to   4.657 GiB by Python driver.
gradient() will perform analytic gradient computation.

*** tstart() called on gpu-2-4.local
*** at Sun Nov 12 12:37:55 2017

    SCF Algorithm Type (re)set to DF.

*** tstart() called on gpu-2-4.local
*** at Sun Nov 12 12:37:55 2017

   => Loading Basis Set <=

    Name: AUG-CC-PVTZ
    Role: ORBITAL
    Keyword: BASIS
    atoms 1-11  entry C          line   221 file /cbio/jclab/home/chayas/anaconda/envs/py35/share/psi4/basis/aug-cc-pvtz.gbs 
    atoms 12    entry N          line   267 file /cbio/jclab/home/chayas/anaconda/envs/py35/share/psi4/basis/aug-cc-pvtz.gbs 
    atoms 13    entry O          line   313 file /cbio/jclab/home/chayas/anaconda/envs/py35/share/psi4/basis/aug-cc-pvtz.gbs 
    atoms 14-22 entry H          line    34 file /cbio/jclab/home/chayas/anaconda/envs/py35/share/psi4/basis/aug-cc-pvtz.gbs 


         ---------------------------------------------------------
                                   SCF
            by Justin Turney, Rob Parrish, and Andy Simmonett
                              RHF Reference
                        8 Threads,   4768 MiB Core
         ---------------------------------------------------------

  ==> Geometry <==

    Molecular point group: c1
    Full point group: C1

    Geometry (in Angstrom), charge = 0, multiplicity = 1:

       Center              X                  Y                   Z               Mass       
    ------------   -----------------  -----------------  -----------------  -----------------
           C         -1.253181785895     0.709862692874    -0.590281890875    12.000000000000
           C         -0.260181785895     0.093862692874     1.523718109125    12.000000000000
           C         -2.331181785895     1.282862692874     0.082718109125    12.000000000000
           C         -1.338181785895     0.666862692874     2.197718109125    12.000000000000
           C          0.752818214105    -1.704137307126    -1.210281890875    12.000000000000
           C          2.129818214105     0.171862692874    -0.601281890875    12.000000000000
           C          1.853818214105    -2.230137307126    -1.866281890875    12.000000000000
           C          3.168818214105    -0.438137307126    -1.284281890875    12.000000000000
           C         -0.217181785895     0.114862692874     0.129718109125    12.000000000000
           C          0.901818214105    -0.479137307126    -0.568281890875    12.000000000000
           C         -2.374181785895     1.261862692874     1.476718109125    12.000000000000
           N          3.062818214105    -1.626137307126    -1.920281890875    14.003074004780
           O         -3.426181785895     1.821862692874     2.133718109125    15.994914619560
           H         -1.234181785895     0.733862692874    -1.677281890875     1.007825032070
           H          0.539818214105    -0.366137307126     2.099718109125     1.007825032070
           H         -3.135181785895     1.744862692874    -0.484281890875     1.007825032070
           H         -1.366181785895     0.647862692874     3.283718109125     1.007825032070
           H         -0.190181785895    -2.241137307126    -1.208281890875     1.007825032070
           H          2.282818214105     1.127862692874    -0.111281890875     1.007825032070
           H          1.789818214105    -3.181137307126    -2.384281890875     1.007825032070
           H          4.146818214105     0.028862692874    -1.338281890875     1.007825032070
           H         -3.313181785895     1.727862692874     3.092718109125     1.007825032070

  Running in c1 symmetry.

  Rotational constants: A =      0.09693  B =      0.01300  C =      0.01256 [cm^-1]
  Rotational constants: A =   2905.86663  B =    389.64947  C =    376.53023 [MHz]
  Nuclear repulsion =  697.221832570402057

  Charge       = 0
  Multiplicity = 1
  Electrons    = 90
  Nalpha       = 45
  Nbeta        = 45

  ==> Algorithm <==

  SCF Algorithm Type is DF.
  DIIS enabled.
  MOM disabled.
  Fractional occupation disabled.
  Guess Type is SAD.
  Energy threshold   = 1.00e-10
  Density threshold  = 1.00e-10
  Integral threshold = 0.00e+00

  ==> Primary Basis <==

  Basis Set: AUG-CC-PVTZ
    Blend: AUG-CC-PVTZ
    Number of shells: 263
    Number of basis function: 805
    Number of Cartesian functions: 940
    Spherical Harmonics?: true
    Max angular momentum: 3

   => Loading Basis Set <=

    Name: (AUG-CC-PVTZ AUX)
    Role: JKFIT
    Keyword: DF_BASIS_SCF
    atoms 1-11  entry C          line   161 file /cbio/jclab/home/chayas/anaconda/envs/py35/share/psi4/basis/aug-cc-pvtz-jkfit.gbs 
    atoms 12    entry N          line   223 file /cbio/jclab/home/chayas/anaconda/envs/py35/share/psi4/basis/aug-cc-pvtz-jkfit.gbs 
    atoms 13    entry O          line   285 file /cbio/jclab/home/chayas/anaconda/envs/py35/share/psi4/basis/aug-cc-pvtz-jkfit.gbs 
    atoms 14-22 entry H          line    69 file /cbio/jclab/home/chayas/anaconda/envs/py35/share/psi4/basis/aug-cc-pvtz-jkfit.gbs 

  ==> Pre-Iterations <==

   -------------------------------------------------------
    Irrep   Nso     Nmo     Nalpha   Nbeta   Ndocc  Nsocc
   -------------------------------------------------------
     A        805     805       0       0       0       0
   -------------------------------------------------------
    Total     805     805      45      45      45       0
   -------------------------------------------------------

  ==> Integral Setup <==

  ==> DFJK: Density-Fitted J/K Matrices <==

    J tasked:                  Yes
    K tasked:                  Yes
    wK tasked:                  No
    OpenMP threads:              8
    Integrals threads:           8
    Memory (MB):              3576
    Algorithm:                Disk
    Integral Cache:           NONE
    Schwarz Cutoff:          1E-12
    Fitting Condition:       1E-12

   => Auxiliary Basis Set <=

  Basis Set: (AUG-CC-PVTZ AUX)
    Blend: AUG-CC-PVTZ-JKFIT
    Number of shells: 516
    Number of basis function: 1766
    Number of Cartesian functions: 2198
    Spherical Harmonics?: true
    Max angular momentum: 4

  Minimum eigenvalue in the overlap matrix is 5.8616322152E-07.
  Using Symmetric Orthogonalization.

  SCF Guess: Superposition of Atomic Densities via on-the-fly atomic UHF.

  ==> Iterations <==

                           Total Energy        Delta E     RMS |[F,P]|

   @DF-RHF iter   0:  -556.47641412203484   -5.56476e+02   1.92519e-02 
   @DF-RHF iter   1:  -550.90336653382735    5.57305e+00   1.98781e-03 
   @DF-RHF iter   2:  -551.22180001461311   -3.18433e-01   8.10512e-04 DIIS
   @DF-RHF iter   3:  -551.26926092162125   -4.74609e-02   3.82321e-04 DIIS
   @DF-RHF iter   4:  -551.28294939360683   -1.36885e-02   1.12080e-04 DIIS
   @DF-RHF iter   5:  -551.28439812003705   -1.44873e-03   4.81475e-05 DIIS
   @DF-RHF iter   6:  -551.28469528925245   -2.97169e-04   1.80865e-05 DIIS
   @DF-RHF iter   7:  -551.28474285498260   -4.75657e-05   6.22903e-06 DIIS
   @DF-RHF iter   8:  -551.28474734348333   -4.48850e-06   1.62414e-06 DIIS
   @DF-RHF iter   9:  -551.28474789223731   -5.48754e-07   7.72941e-07 DIIS
   @DF-RHF iter  10:  -551.28474805171197   -1.59475e-07   3.97370e-07 DIIS
   @DF-RHF iter  11:  -551.28474810807234   -5.63604e-08   1.51601e-07 DIIS
   @DF-RHF iter  12:  -551.28474811688523   -8.81289e-09   3.85659e-08 DIIS
   @DF-RHF iter  13:  -551.28474811749959   -6.14364e-10   1.35922e-08 DIIS
   @DF-RHF iter  14:  -551.28474811756587   -6.62794e-11   6.16845e-09 DIIS
   @DF-RHF iter  15:  -551.28474811758974   -2.38742e-11   2.77451e-09 DIIS
   @DF-RHF iter  16:  -551.28474811757962    1.01181e-11   1.06933e-09 DIIS
   @DF-RHF iter  17:  -551.28474811756757    1.20508e-11   6.53196e-10 DIIS
   @DF-RHF iter  18:  -551.28474811759349   -2.59206e-11   3.01046e-10 DIIS
   @DF-RHF iter  19:  -551.28474811759077    2.72848e-12   1.28084e-10 DIIS
   @DF-RHF iter  20:  -551.28474811759838   -7.61702e-12   5.11319e-11 DIIS

  ==> Post-Iterations <==

    Orbital Energies (a.u.)
    -----------------------

    Doubly Occupied:                                                      

       1A    -20.598292     2A    -15.564799     3A    -11.312449  
       4A    -11.274501     5A    -11.274441     6A    -11.261765  
       7A    -11.252418     8A    -11.251212     9A    -11.243773  
      10A    -11.242532    11A    -11.240368    12A    -11.237545  
      13A    -11.237431    14A     -1.413641    15A     -1.249873  
      16A     -1.171454    17A     -1.103275    18A     -1.034885  
      19A     -1.030352    20A     -1.009057    21A     -0.879965  
      22A     -0.859862    23A     -0.850586    24A     -0.809967  
      25A     -0.744262    26A     -0.724163    27A     -0.677198  
      28A     -0.664299    29A     -0.656733    30A     -0.634795  
      31A     -0.615284    32A     -0.600456    33A     -0.599905  
      34A     -0.597945    35A     -0.576985    36A     -0.535838  
      37A     -0.525635    38A     -0.523442    39A     -0.505217  
      40A     -0.487395    41A     -0.418599    42A     -0.377090  
      43A     -0.356184    44A     -0.346729    45A     -0.319802  

    Virtual:                                                              

      46A      0.022183    47A      0.031000    48A      0.033316  
      49A      0.035811    50A      0.042263    51A      0.048988  
      52A      0.050158    53A      0.052685    54A      0.061819  
      55A      0.083031    56A      0.085100    57A      0.088329  
      58A      0.091047    59A      0.097091    60A      0.099212  
      61A      0.100413    62A      0.105827    63A      0.107320  
      64A      0.109181    65A      0.111195    66A      0.114124  
      67A      0.117321    68A      0.120806    69A      0.124683  
      70A      0.126034    71A      0.127426    72A      0.131977  
      73A      0.135878    74A      0.140455    75A      0.141998  
      76A      0.144359    77A      0.144806    78A      0.153012  
      79A      0.154681    80A      0.157102    81A      0.159578  
      82A      0.167436    83A      0.171207    84A      0.175487  
      85A      0.188287    86A      0.190208    87A      0.196351  
      88A      0.202423    89A      0.206116    90A      0.218929  
      91A      0.224275    92A      0.229017    93A      0.232392  
      94A      0.238024    95A      0.240234    96A      0.243697  
      97A      0.244954    98A      0.250148    99A      0.254305  
     100A      0.256902   101A      0.258155   102A      0.262957  
     103A      0.266560   104A      0.270448   105A      0.273653  
     106A      0.280081   107A      0.283147   108A      0.284697  
     109A      0.288435   110A      0.294172   111A      0.301856  
     112A      0.305842   113A      0.307004   114A      0.311515  
     115A      0.314317   116A      0.316824   117A      0.318940  
     118A      0.326161   119A      0.327156   120A      0.334309  
     121A      0.338863   122A      0.342923   123A      0.346233  
     124A      0.351026   125A      0.354488   126A      0.363743  
     127A      0.368980   128A      0.372573   129A      0.379216  
     130A      0.389930   131A      0.395330   132A      0.400335  
     133A      0.402237   134A      0.408167   135A      0.411477  
     136A      0.412921   137A      0.417299   138A      0.423101  
     139A      0.430028   140A      0.435306   141A      0.438461  
     142A      0.440456   143A      0.442194   144A      0.445044  
     145A      0.447679   146A      0.448587   147A      0.457596  
     148A      0.462159   149A      0.468404   150A      0.472370  
     151A      0.473488   152A      0.476128   153A      0.477025  
     154A      0.484897   155A      0.487429   156A      0.488846  
     157A      0.494880   158A      0.495763   159A      0.498174  
     160A      0.503678   161A      0.508333   162A      0.509381  
     163A      0.513094   164A      0.513588   165A      0.518345  
     166A      0.524030   167A      0.527930   168A      0.535360  
     169A      0.537185   170A      0.542251   171A      0.543227  
     172A      0.545037   173A      0.549917   174A      0.552699  
     175A      0.558678   176A      0.564854   177A      0.570676  
     178A      0.575429   179A      0.583540   180A      0.586273  
     181A      0.590664   182A      0.596739   183A      0.610201  
     184A      0.612790   185A      0.616597   186A      0.622172  
     187A      0.627151   188A      0.634383   189A      0.636543  
     190A      0.637500   191A      0.641158   192A      0.655813  
     193A      0.664571   194A      0.673428   195A      0.676857  
     196A      0.680585   197A      0.690504   198A      0.695001  
     199A      0.697020   200A      0.703612   201A      0.711338  
     202A      0.714866   203A      0.724836   204A      0.726438  
     205A      0.732518   206A      0.739478   207A      0.741698  
     208A      0.743452   209A      0.751570   210A      0.759676  
     211A      0.763010   212A      0.771993   213A      0.779145  
     214A      0.785976   215A      0.787644   216A      0.789265  
     217A      0.791802   218A      0.800692   219A      0.802220  
     220A      0.806631   221A      0.813828   222A      0.817008  
     223A      0.826596   224A      0.837251   225A      0.846012  
     226A      0.847304   227A      0.851720   228A      0.859678  
     229A      0.869698   230A      0.880720   231A      0.883670  
     232A      0.887612   233A      0.890781   234A      0.892550  
     235A      0.896291   236A      0.903010   237A      0.907496  
     238A      0.912011   239A      0.914250   240A      0.919543  
     241A      0.924373   242A      0.926850   243A      0.931210  
     244A      0.935358   245A      0.941084   246A      0.948758  
     247A      0.952664   248A      0.956465   249A      0.958863  
     250A      0.959806   251A      0.964194   252A      0.965705  
     253A      0.981995   254A      0.985147   255A      0.986035  
     256A      0.991639   257A      0.993237   258A      0.999451  
     259A      1.003429   260A      1.011080   261A      1.013693  
     262A      1.018266   263A      1.021874   264A      1.026876  
     265A      1.031750   266A      1.037254   267A      1.039448  
     268A      1.047065   269A      1.050565   270A      1.051328  
     271A      1.057685   272A      1.058425   273A      1.068283  
     274A      1.072771   275A      1.081143   276A      1.084540  
     277A      1.088810   278A      1.092349   279A      1.095052  
     280A      1.102759   281A      1.108937   282A      1.112920  
     283A      1.117862   284A      1.124468   285A      1.126104  
     286A      1.132985   287A      1.138423   288A      1.148347  
     289A      1.151882   290A      1.154304   291A      1.156819  
     292A      1.160687   293A      1.167308   294A      1.174527  
     295A      1.175331   296A      1.179639   297A      1.185050  
     298A      1.189759   299A      1.192425   300A      1.194606  
     301A      1.202396   302A      1.207976   303A      1.214639  
     304A      1.218379   305A      1.225444   306A      1.228637  
     307A      1.236538   308A      1.242348   309A      1.246684  
     310A      1.253439   311A      1.264444   312A      1.265750  
     313A      1.274233   314A      1.277639   315A      1.289037  
     316A      1.290183   317A      1.294192   318A      1.299882  
     319A      1.304183   320A      1.316254   321A      1.318683  
     322A      1.322230   323A      1.329510   324A      1.330127  
     325A      1.337036   326A      1.350887   327A      1.368089  
     328A      1.373062   329A      1.377493   330A      1.385987  
     331A      1.393704   332A      1.406879   333A      1.412063  
     334A      1.418937   335A      1.421465   336A      1.427147  
     337A      1.429312   338A      1.439928   339A      1.448743  
     340A      1.458885   341A      1.463832   342A      1.481816  
     343A      1.488924   344A      1.491156   345A      1.498778  
     346A      1.505218   347A      1.511155   348A      1.520906  
     349A      1.535724   350A      1.540191   351A      1.545202  
     352A      1.552344   353A      1.563003   354A      1.565117  
     355A      1.573398   356A      1.575210   357A      1.580507  
     358A      1.593129   359A      1.601631   360A      1.612726  
     361A      1.613175   362A      1.625003   363A      1.633429  
     364A      1.638459   365A      1.647050   366A      1.661615  
     367A      1.668532   368A      1.671703   369A      1.677068  
     370A      1.687149   371A      1.692991   372A      1.704334  
     373A      1.710427   374A      1.713837   375A      1.725055  
     376A      1.735461   377A      1.744195   378A      1.745052  
     379A      1.750787   380A      1.755999   381A      1.763941  
     382A      1.772960   383A      1.780168   384A      1.786838  
     385A      1.789004   386A      1.799890   387A      1.806906  
     388A      1.818552   389A      1.823733   390A      1.837452  
     391A      1.846705   392A      1.851496   393A      1.853557  
     394A      1.860973   395A      1.870622   396A      1.881839  
     397A      1.894454   398A      1.895823   399A      1.902071  
     400A      1.906923   401A      1.919354   402A      1.920656  
     403A      1.940494   404A      1.946299   405A      1.947345  
     406A      1.955231   407A      1.964677   408A      1.976186  
     409A      1.979106   410A      1.984590   411A      1.998658  
     412A      2.001603   413A      2.028119   414A      2.031887  
     415A      2.034966   416A      2.043247   417A      2.046888  
     418A      2.051682   419A      2.055378   420A      2.063134  
     421A      2.078150   422A      2.083301   423A      2.100681  
     424A      2.103965   425A      2.109935   426A      2.120558  
     427A      2.122659   428A      2.130442   429A      2.138463  
     430A      2.139428   431A      2.144328   432A      2.157582  
     433A      2.164080   434A      2.178758   435A      2.180786  
     436A      2.185581   437A      2.201079   438A      2.202617  
     439A      2.209860   440A      2.215165   441A      2.224448  
     442A      2.243483   443A      2.251720   444A      2.259479  
     445A      2.265216   446A      2.274873   447A      2.282217  
     448A      2.287550   449A      2.297906   450A      2.309152  
     451A      2.319090   452A      2.341694   453A      2.345634  
     454A      2.350611   455A      2.372905   456A      2.382850  
     457A      2.386168   458A      2.391568   459A      2.411268  
     460A      2.416496   461A      2.428874   462A      2.433037  
     463A      2.438800   464A      2.450702   465A      2.455695  
     466A      2.473563   467A      2.491934   468A      2.499123  
     469A      2.523012   470A      2.526692   471A      2.548158  
     472A      2.562885   473A      2.570189   474A      2.574784  
     475A      2.587437   476A      2.592009   477A      2.599120  
     478A      2.606771   479A      2.609843   480A      2.628027  
     481A      2.645047   482A      2.655919   483A      2.664188  
     484A      2.669814   485A      2.695874   486A      2.730982  
     487A      2.741684   488A      2.754731   489A      2.765278  
     490A      2.802613   491A      2.820094   492A      2.824259  
     493A      2.845879   494A      2.849724   495A      2.861496  
     496A      2.874132   497A      2.883559   498A      2.890885  
     499A      2.927504   500A      2.938863   501A      2.972920  
     502A      2.998105   503A      3.008419   504A      3.038925  
     505A      3.064622   506A      3.066490   507A      3.074949  
     508A      3.119154   509A      3.153929   510A      3.159658  
     511A      3.200600   512A      3.211809   513A      3.226410  
     514A      3.229671   515A      3.238375   516A      3.243886  
     517A      3.266730   518A      3.274677   519A      3.279810  
     520A      3.293375   521A      3.313535   522A      3.318570  
     523A      3.342832   524A      3.366938   525A      3.384772  
     526A      3.392755   527A      3.396783   528A      3.410115  
     529A      3.416117   530A      3.423193   531A      3.428502  
     532A      3.436579   533A      3.446939   534A      3.454372  
     535A      3.462188   536A      3.472017   537A      3.480393  
     538A      3.487103   539A      3.497189   540A      3.514470  
     541A      3.529852   542A      3.533249   543A      3.535975  
     544A      3.544658   545A      3.549617   546A      3.554386  
     547A      3.556467   548A      3.576908   549A      3.580666  
     550A      3.583631   551A      3.592436   552A      3.598888  
     553A      3.615543   554A      3.618806   555A      3.622162  
     556A      3.632447   557A      3.647791   558A      3.655363  
     559A      3.662555   560A      3.673063   561A      3.685937  
     562A      3.689672   563A      3.708678   564A      3.717512  
     565A      3.729207   566A      3.733218   567A      3.747276  
     568A      3.760542   569A      3.780827   570A      3.783144  
     571A      3.785337   572A      3.788111   573A      3.811323  
     574A      3.813511   575A      3.827838   576A      3.834228  
     577A      3.854309   578A      3.859844   579A      3.872986  
     580A      3.877194   581A      3.890245   582A      3.896476  
     583A      3.906542   584A      3.910925   585A      3.918817  
     586A      3.920980   587A      3.929324   588A      3.937293  
     589A      3.953360   590A      3.961930   591A      3.964206  
     592A      3.968068   593A      3.972862   594A      3.994513  
     595A      3.998407   596A      4.004561   597A      4.014361  
     598A      4.032154   599A      4.036380   600A      4.043562  
     601A      4.050859   602A      4.075229   603A      4.080730  
     604A      4.081460   605A      4.089822   606A      4.109019  
     607A      4.116218   608A      4.119211   609A      4.123629  
     610A      4.135956   611A      4.147480   612A      4.158421  
     613A      4.166947   614A      4.173436   615A      4.181857  
     616A      4.197340   617A      4.203502   618A      4.209780  
     619A      4.211724   620A      4.221087   621A      4.231176  
     622A      4.232312   623A      4.236625   624A      4.249555  
     625A      4.258603   626A      4.280212   627A      4.288636  
     628A      4.294125   629A      4.304746   630A      4.311964  
     631A      4.318108   632A      4.327940   633A      4.353283  
     634A      4.355422   635A      4.372017   636A      4.375452  
     637A      4.383634   638A      4.395684   639A      4.400851  
     640A      4.404134   641A      4.430048   642A      4.433570  
     643A      4.439290   644A      4.441568   645A      4.445689  
     646A      4.453995   647A      4.459739   648A      4.468275  
     649A      4.474016   650A      4.482390   651A      4.512630  
     652A      4.520465   653A      4.530282   654A      4.533344  
     655A      4.547524   656A      4.557631   657A      4.562511  
     658A      4.578433   659A      4.580149   660A      4.604729  
     661A      4.623875   662A      4.627326   663A      4.649201  
     664A      4.654521   665A      4.672386   666A      4.691559  
     667A      4.700513   668A      4.710789   669A      4.731363  
     670A      4.750770   671A      4.755260   672A      4.766670  
     673A      4.778967   674A      4.791887   675A      4.834701  
     676A      4.846769   677A      4.861889   678A      4.889552  
     679A      4.894496   680A      4.903478   681A      4.922107  
     682A      4.930932   683A      4.945852   684A      4.956072  
     685A      4.963248   686A      4.974709   687A      4.979236  
     688A      4.989165   689A      5.020156   690A      5.025657  
     691A      5.031989   692A      5.035377   693A      5.051402  
     694A      5.062605   695A      5.065002   696A      5.071848  
     697A      5.086231   698A      5.099839   699A      5.113839  
     700A      5.126899   701A      5.135283   702A      5.156504  
     703A      5.165064   704A      5.165842   705A      5.172870  
     706A      5.179863   707A      5.182058   708A      5.205679  
     709A      5.213147   710A      5.220513   711A      5.242805  
     712A      5.279338   713A      5.284060   714A      5.311019  
     715A      5.316401   716A      5.330826   717A      5.344124  
     718A      5.353972   719A      5.373317   720A      5.386252  
     721A      5.392663   722A      5.422496   723A      5.433572  
     724A      5.446185   725A      5.456977   726A      5.464500  
     727A      5.476330   728A      5.484164   729A      5.493351  
     730A      5.546849   731A      5.555510   732A      5.557346  
     733A      5.571926   734A      5.636916   735A      5.670657  
     736A      5.687930   737A      5.694292   738A      5.733462  
     739A      5.735806   740A      5.769489   741A      5.791499  
     742A      5.834032   743A      5.847696   744A      5.857366  
     745A      5.880872   746A      5.888630   747A      5.911697  
     748A      5.929621   749A      6.023793   750A      6.050841  
     751A      6.079817   752A      6.107271   753A      6.142034  
     754A      6.176923   755A      6.223631   756A      6.243901  
     757A      6.262949   758A      6.308075   759A      6.320612  
     760A      6.374157   761A      6.408013   762A      6.455135  
     763A      6.475656   764A      6.505069   765A      6.557507  
     766A      6.571210   767A      6.581648   768A      6.694934  
     769A      6.700306   770A      6.722865   771A      6.777614  
     772A      6.873193   773A      6.878226   774A      6.893286  
     775A      6.895726   776A      6.938258   777A      7.005264  
     778A      7.026925   779A      7.057171   780A      7.070284  
     781A      7.094311   782A      7.212457   783A      7.261470  
     784A      7.411252   785A      7.422112   786A      7.435892  
     787A      7.693738   788A      7.705494   789A      7.760131  
     790A      8.016443   791A      8.391281   792A      8.641456  
     793A     15.596757   794A     16.220716   795A     16.545120  
     796A     16.709035   797A     16.791781   798A     18.484347  
     799A     18.771856   800A     19.196279   801A     19.599125  
     802A     20.044519   803A     20.106432   804A     20.238227  
     805A     21.810807  

    Final Occupation by Irrep:
              A 
    DOCC [    45 ]

  Energy converged.

  @DF-RHF Final Energy:  -551.28474811759838

   => Energetics <=

    Nuclear Repulsion Energy =            697.2218325704020572
    One-Electron Energy =               -2131.2283652598921435
    Two-Electron Energy =                 882.7217845718917033
    DFT Exchange-Correlation Energy =       0.0000000000000000
    Empirical Dispersion Energy =           0.0000000000000000
    PCM Polarization Energy =               0.0000000000000000
    EFP Energy =                            0.0000000000000000
    Total Energy =                       -551.2847481175983830



Properties will be evaluated at   0.000000,   0.000000,   0.000000 Bohr

Properties computed using the SCF density matrix

  Nuclear Dipole Moment: (a.u.)
     X:    -0.4750      Y:     0.2223      Z:     1.2087

  Electronic Dipole Moment: (a.u.)
     X:    -0.0750      Y:     0.0488      Z:    -0.2744

  Dipole Moment: (a.u.)
     X:    -0.5500      Y:     0.2711      Z:     0.9344     Total:     1.1176

  Dipole Moment: (Debye)
     X:    -1.3980      Y:     0.6892      Z:     2.3749     Total:     2.8407


*** tstop() called on gpu-2-4.local at Sun Nov 12 12:45:16 2017
Module time:
	user time   =    1067.74 seconds =      17.80 minutes
	system time =      47.64 seconds =       0.79 minutes
	total time  =        441 seconds =       7.35 minutes
Total time:
	user time   =    1067.75 seconds =      17.80 minutes
	system time =      47.64 seconds =       0.79 minutes
	total time  =        441 seconds =       7.35 minutes

  //>>>>>>>>>>>>>>>>>>>>>>>>>>>>>>>>>>>//
  //               DFMP2               //
  //<<<<<<<<<<<<<<<<<<<<<<<<<<<<<<<<<<<//

   => Loading Basis Set <=

    Name: (AUG-CC-PVTZ AUX)
    Role: RIFIT
    Keyword: DF_BASIS_MP2
    atoms 1-11  entry C          line   147 file /cbio/jclab/home/chayas/anaconda/envs/py35/share/psi4/basis/aug-cc-pvtz-ri.gbs 
    atoms 12    entry N          line   205 file /cbio/jclab/home/chayas/anaconda/envs/py35/share/psi4/basis/aug-cc-pvtz-ri.gbs 
    atoms 13    entry O          line   263 file /cbio/jclab/home/chayas/anaconda/envs/py35/share/psi4/basis/aug-cc-pvtz-ri.gbs 
    atoms 14-22 entry H          line    29 file /cbio/jclab/home/chayas/anaconda/envs/py35/share/psi4/basis/aug-cc-pvtz-ri.gbs 

	 --------------------------------------------------------
	                          DF-MP2                         
	      2nd-Order Density-Fitted Moller-Plesset Theory     
	              RMP2 Wavefunction,   8 Threads             
	                                                         
	        Rob Parrish, Justin Turney, Andy Simmonett,      
	           Ed Hohenstein, and C. David Sherrill          
	 --------------------------------------------------------

   => Auxiliary Basis Set <=

  Basis Set: (AUG-CC-PVTZ AUX)
    Blend: AUG-CC-PVTZ-RI
    Number of shells: 490
    Number of basis function: 1792
    Number of Cartesian functions: 2263
    Spherical Harmonics?: true
    Max angular momentum: 4

	 --------------------------------------------------------
	                 NBF =   805, NAUX =  1792
	 --------------------------------------------------------
	   CLASS    FOCC     OCC    AOCC    AVIR     VIR    FVIR
	   PAIRS       0      45      45     760     760       0
	 --------------------------------------------------------


         ------------------------------------------------------------
                                     CPHF                           
                                  Rob Parrish                       
         ------------------------------------------------------------

  ==> Geometry <==

    Molecular point group: c1
    Full point group: C1

    Geometry (in Angstrom), charge = 0, multiplicity = 1:

       Center              X                  Y                   Z               Mass       
    ------------   -----------------  -----------------  -----------------  -----------------
           C         -1.253181785895     0.709862692874    -0.590281890875    12.000000000000
           C         -0.260181785895     0.093862692874     1.523718109125    12.000000000000
           C         -2.331181785895     1.282862692874     0.082718109125    12.000000000000
           C         -1.338181785895     0.666862692874     2.197718109125    12.000000000000
           C          0.752818214105    -1.704137307126    -1.210281890875    12.000000000000
           C          2.129818214105     0.171862692874    -0.601281890875    12.000000000000
           C          1.853818214105    -2.230137307126    -1.866281890875    12.000000000000
           C          3.168818214105    -0.438137307126    -1.284281890875    12.000000000000
           C         -0.217181785895     0.114862692874     0.129718109125    12.000000000000
           C          0.901818214105    -0.479137307126    -0.568281890875    12.000000000000
           C         -2.374181785895     1.261862692874     1.476718109125    12.000000000000
           N          3.062818214105    -1.626137307126    -1.920281890875    14.003074004780
           O         -3.426181785895     1.821862692874     2.133718109125    15.994914619560
           H         -1.234181785895     0.733862692874    -1.677281890875     1.007825032070
           H          0.539818214105    -0.366137307126     2.099718109125     1.007825032070
           H         -3.135181785895     1.744862692874    -0.484281890875     1.007825032070
           H         -1.366181785895     0.647862692874     3.283718109125     1.007825032070
           H         -0.190181785895    -2.241137307126    -1.208281890875     1.007825032070
           H          2.282818214105     1.127862692874    -0.111281890875     1.007825032070
           H          1.789818214105    -3.181137307126    -2.384281890875     1.007825032070
           H          4.146818214105     0.028862692874    -1.338281890875     1.007825032070
           H         -3.313181785895     1.727862692874     3.092718109125     1.007825032070

  Nuclear repulsion =  697.221832570402057
  Reference energy  = -551.284748117598383

  ==> Basis Set <==

  Basis Set: AUG-CC-PVTZ
    Blend: AUG-CC-PVTZ
    Number of shells: 263
    Number of basis function: 805
    Number of Cartesian functions: 940
    Spherical Harmonics?: true
    Max angular momentum: 3

  ==> CGRSolver (by Rob Parrish) <==

   Number of roots    =         1
   Preconditioning    =    JACOBI
   Convergence cutoff =     1E-06
   Maximum iterations =       100

  ==> CPHFRHamiltonian (by Rob Parrish) <== 

  ==> DFJK: Density-Fitted J/K Matrices <==

    J tasked:                  Yes
    K tasked:                  Yes
    wK tasked:                  No
    OpenMP threads:              8
    Integrals threads:           8
    Memory (MB):              3576
    Algorithm:                Disk
    Integral Cache:           NONE
    Schwarz Cutoff:          1E-12
    Fitting Condition:       1E-12

   => Auxiliary Basis Set <=

  Basis Set: (AUG-CC-PVTZ AUX)
    Blend: AUG-CC-PVTZ-JKFIT
    Number of shells: 516
    Number of basis function: 1766
    Number of Cartesian functions: 2198
    Spherical Harmonics?: true
    Max angular momentum: 4

  ==> CPHF Iterations <==

  => Iterations <=

             Iter  Converged  Remaining    Residual
  CGR           1          0          1   8.747E-02
  CGR           2          0          1   3.315E-02
  CGR           3          0          1   2.220E-02
  CGR           4          0          1   9.387E-03
  CGR           5          0          1   3.681E-03
  CGR           6          0          1   1.493E-03
  CGR           7          0          1   4.089E-04
  CGR           8          0          1   1.100E-04
  CGR           9          0          1   4.261E-05
  CGR          10          0          1   1.124E-05
  CGR          11          0          1   5.209E-06
  CGR          12          0          1   2.301E-06
  CGR          13          0          1   1.031E-06
  CGR          14          1          0   3.940E-07

    CGRSolver converged.

  ==> DFCorrGrad: Density-Fitted Correlated Gradients <==

    OpenMP threads:              8
    Integrals threads:           8
    Memory (MB):              3576
    Schwarz Cutoff:          0E+00
    Fitting Condition:       1E-12

   => Auxiliary Basis Set <=

  Basis Set: (AUG-CC-PVTZ AUX)
    Blend: AUG-CC-PVTZ-JKFIT
    Number of shells: 516
    Number of basis function: 1766
    Number of Cartesian functions: 2198
    Spherical Harmonics?: true
    Max angular momentum: 4

	-----------------------------------------------------------
	 ==================> DF-MP2 Energies <==================== 
	-----------------------------------------------------------
	 Reference Energy          =    -551.2847481175983830 [Eh]
	 Singles Energy            =      -0.0000000000000001 [Eh]
	 Same-Spin Energy          =      -0.6042067175206091 [Eh]
	 Opposite-Spin Energy      =      -1.8300263982065776 [Eh]
	 Correlation Energy        =      -2.4342331157271868 [Eh]
	 Total Energy              =    -553.7189812333256214 [Eh]
	-----------------------------------------------------------
	 ================> DF-SCS-MP2 Energies <================== 
	-----------------------------------------------------------
	 SCS Same-Spin Scale       =       0.3333333333333333 [-]
	 SCS Opposite-Spin Scale   =       1.2000000000000000 [-]
	 SCS Same-Spin Energy      =      -0.2014022391735363 [Eh]
	 SCS Opposite-Spin Energy  =      -2.1960316778478930 [Eh]
	 SCS Correlation Energy    =      -2.3974339170214294 [Eh]
	 SCS Total Energy          =    -553.6821820346198137 [Eh]
	-----------------------------------------------------------


  -Total Gradient:
     Atom            X                  Y                   Z
    ------   -----------------  -----------------  -----------------
       1        0.006733566153    -0.001595902709    -0.007979774217
       2        0.006096811277    -0.004947914579    -0.003620165179
       3        0.002573988429    -0.001322752627     0.000951030037
       4       -0.005211929816     0.002446016560     0.006942860837
       5       -0.007338118323    -0.001434685912     0.003521236437
       6       -0.002928076488     0.006553277964     0.002858420872
       7       -0.013998252806    -0.001892124677     0.004142522330
       8       -0.005267007810     0.011229630361     0.007491202673
       9        0.008193049300    -0.004476620660    -0.005629474640
      10       -0.001782380060     0.001652280931     0.001328242610
      11       -0.007726957185     0.004493975827    -0.007604617927
      12        0.013672519350    -0.006699959659    -0.008329505474
      13        0.006039558021    -0.003323515008     0.000258322956
      14       -0.001654714199     0.000850351928    -0.005651652850
      15        0.003075485382    -0.001684031378     0.005026003898
      16       -0.002793025417     0.001502126542    -0.005127316410
      17        0.000924216305    -0.000384670378     0.003632112356
      18       -0.002926726697    -0.003823722242    -0.001635763106
      19        0.002871279697     0.003712252034     0.001535880783
      20        0.000372039641    -0.002115706754    -0.001611727217
      21        0.002731529420     0.000661445980    -0.000247720124
      22       -0.001656854181     0.000600248449     0.009749881363


*** tstop() called on gpu-2-4.local at Sun Nov 12 13:16:20 2017
Module time:
	user time   =    5133.43 seconds =      85.56 minutes
	system time =     103.50 seconds =       1.73 minutes
	total time  =       2305 seconds =      38.42 minutes
Total time:
	user time   =    5133.44 seconds =      85.56 minutes
	system time =     103.50 seconds =       1.73 minutes
	total time  =       2305 seconds =      38.42 minutes

			-----------------------------------------
			 OPTKING 2.0: for geometry optimizations 
			  - R.A. King,  Bethel University        
			-----------------------------------------

	Internal coordinates to be generated automatically.
	Detected frag 1 with atoms:  1 2 3 4 5 6 7 8 9 10 11 12 13 14 15 16 17 18 19 20
	 21 22
	---Fragment 1 Bond Connectivity---
	 1 : 3 9 14
	 2 : 4 9 15
	 3 : 1 11 16
	 4 : 2 11 17
	 5 : 7 10 18
	 6 : 8 10 19
	 7 : 5 12 20
	 8 : 6 12 21
	 9 : 1 2 10
	 10 : 5 6 9
	 11 : 3 4 13
	 12 : 7 8
	 13 : 11 22
	 14 : 1
	 15 : 2
	 16 : 3
	 17 : 4
	 18 : 5
	 19 : 6
	 20 : 7
	 21 : 8
	 22 : 13

	Assuming in current code that numbering for constraints corresponds to unified fragment.
	Fixed dihedral atom list: 
	     1     9    10     5
	---Fragment 1 Geometry and Gradient---
	 C          -2.3681703701        1.3414460815       -1.1154711150
	 C          -0.4916723201        0.1773747836        2.8794099300
	 C          -4.4052951413        2.4242591556        0.1563145725
	 C          -2.5287970914        1.2601878578        4.1530853435
	 C           1.4226202525       -3.2203528033       -2.2871013173
	 C           4.0247731375        0.3247734220       -1.1362581024
	 C           3.5032087248       -4.2143487492       -3.5267616605
	 C           5.9881985896       -0.8279595191       -2.4269410512
	 C          -0.4104140964        0.2170590324        0.2451317007
	 C           1.7041894463       -0.9054382905       -1.0738971400
	 C          -4.4865533650        2.3845749068        2.7905928017
	 N           5.7878876195       -3.0729541649       -3.6288068717
	 O          -6.4745452568        3.4428215413        4.0321428710
	 H          -2.3322655735        1.3867995087       -3.1696034214
	 H           1.0201085862       -0.6918992375        3.9678921825
	 H          -5.9246349522        3.2973126290       -0.9151601449
	 H          -2.5817094231        1.2242830612        6.2053279238
	 H          -0.3593914908       -4.2351357367       -2.2833218651
	 H           4.3139012358        2.1313516050       -0.2102922973
	 H           3.3822662523       -6.0114783016       -4.5056397974
	 H           7.8363507475        0.0545425850       -2.5289862624
	 H          -6.2610062038        3.2651872848        5.8443902325
	             0.0067335662       -0.0015959027       -0.0079797742
	             0.0060968113       -0.0049479146       -0.0036201652
	             0.0025739884       -0.0013227526        0.0009510300
	            -0.0052119298        0.0024460166        0.0069428608
	            -0.0073381183       -0.0014346859        0.0035212364
	            -0.0029280765        0.0065532780        0.0028584209
	            -0.0139982528       -0.0018921247        0.0041425223
	            -0.0052670078        0.0112296304        0.0074912027
	             0.0081930493       -0.0044766207       -0.0056294746
	            -0.0017823801        0.0016522809        0.0013282426
	            -0.0077269572        0.0044939758       -0.0076046179
	             0.0136725193       -0.0066999597       -0.0083295055
	             0.0060395580       -0.0033235150        0.0002583230
	            -0.0016547142        0.0008503519       -0.0056516529
	             0.0030754854       -0.0016840314        0.0050260039
	            -0.0027930254        0.0015021265       -0.0051273164
	             0.0009242163       -0.0003846704        0.0036321124
	            -0.0029267267       -0.0038237222       -0.0016357631
	             0.0028712797        0.0037122520        0.0015358808
	             0.0003720396       -0.0021157068       -0.0016117272
	             0.0027315294        0.0006614460       -0.0002477201
	            -0.0016568542        0.0006002484        0.0097498814

	Previous optimization step data not found.  Starting new optimization.

	---Fragment 1 Intrafragment Coordinates---
	 - Coordinate -           - BOHR/RAD -       - ANG/DEG -
	 R(1,3)           =         2.634350	       1.394038
	 R(1,9)           =         2.635962	       1.394891
	 R(1,14)          =         2.054947	       1.087431
	 R(2,4)           =         2.635263	       1.394521
	 R(2,9)           =         2.635830	       1.394821
	 R(2,15)          =         2.055702	       1.087831
	 R(3,11)          =         2.635830	       1.394821
	 R(3,16)          =         2.053941	       1.086899
	 R(4,11)          =         2.636938	       1.395407
	 R(4,17)          =         2.053239	       1.086527
	 R(5,7)           =         2.617945	       1.385357
	 R(5,10)          =         2.628683	       1.391039
	 R(5,18)          =         2.050699	       1.085183
	 R(6,8)           =         2.617192	       1.384958
	 R(6,10)          =         2.627245	       1.390278
	 R(6,19)          =         2.050544	       1.085101
	 R(7,12)          =         2.555964	       1.352558
	 R(7,20)          =         2.050001	       1.084814
	 R(8,12)          =         2.554331	       1.351694
	 R(8,21)          =         2.050583	       1.085122
	 R(9,10)          =         2.733384	       1.446444
	 R(11,13)         =         2.571662	       1.360865
	 R(13,22)         =         1.833410	       0.970199
	 B(1,3,11)        =         2.094553	     120.009056
	 B(1,3,16)        =         2.088505	     119.662516
	 B(1,9,2)         =         2.093692	     119.959722
	 B(1,9,10)        =         2.095161	     120.043881
	 B(2,4,11)        =         2.093699	     119.960108
	 B(2,4,17)        =         2.089577	     119.723926
	 B(2,9,10)        =         2.094332	     119.996376
	 B(3,1,9)         =         2.094940	     120.031219
	 B(3,1,14)        =         2.079469	     119.144799
	 B(3,11,4)        =         2.094306	     119.994870
	 B(3,11,13)       =         2.094549	     120.008801
	 B(4,2,9)         =         2.095181	     120.045019
	 B(4,2,15)        =         2.078675	     119.099297
	 B(4,11,13)       =         2.094331	     119.996326
	 B(5,7,12)        =         2.164870	     124.037897
	 B(5,7,20)        =         2.108392	     120.801968
	 B(5,10,6)        =         2.089801	     119.736766
	 B(5,10,9)        =         2.096120	     120.098848
	 B(6,8,12)        =         2.165564	     124.077661
	 B(6,8,21)        =         2.107298	     120.739264
	 B(6,10,9)        =         2.097264	     120.164367
	 B(7,5,10)        =         2.057574	     117.890322
	 B(7,5,18)        =         2.098556	     120.238382
	 B(7,12,8)        =         2.030623	     116.346143
	 B(8,6,10)        =         2.057939	     117.911196
	 B(8,6,19)        =         2.100131	     120.328646
	 B(9,1,14)        =         2.108776	     120.823969
	 B(9,2,15)        =         2.109330	     120.855683
	 B(10,5,18)       =         2.127052	     121.871098
	 B(10,6,19)       =         2.125116	     121.760155
	 B(11,3,16)       =         2.100127	     120.328425
	 B(11,4,17)       =         2.099910	     120.315955
	 B(11,13,22)      =         1.925489	     110.322421
	 B(12,7,20)       =         2.009921	     115.160014
	 B(12,8,21)       =         2.010323	     115.183048
	 D(1,3,11,4)      =        -0.000325	      -0.018609
	 D(1,3,11,13)     =         3.140978	     179.964785
	 D(1,9,2,4)       =         0.000325	       0.018608
	 D(1,9,2,15)      =        -3.141497	    -179.994534
	 D(1,9,10,5)      =        -1.309850	     -75.048854
	 D(1,9,10,6)      =         1.830867	     104.900964
	 D(2,4,11,3)      =         0.000301	       0.017261
	 D(2,4,11,13)     =        -3.141002	    -179.966135
	 D(2,9,1,3)       =        -0.000348	      -0.019945
	 D(2,9,1,14)      =        -3.141221	    -179.978731
	 D(2,9,10,5)      =         1.832659	     105.003649
	 D(2,9,10,6)      =        -1.309809	     -75.046533
	 D(3,1,9,10)      =        -3.141025	    -179.967461
	 D(3,11,4,17)     =         3.141223	     179.978848
	 D(3,11,13,22)    =         3.140828	     179.956172
	 D(4,2,9,10)      =         3.141002	     179.966149
	 D(4,11,3,16)     =         3.141593	     180.000000
	 D(4,11,13,22)    =        -0.001055	      -0.060434
	 D(5,7,12,8)      =         0.000442	       0.025313
	 D(5,10,6,8)      =         0.000503	       0.028842
	 D(5,10,6,19)     =        -3.140741	    -179.951202
	 D(6,8,12,7)      =        -0.000562	      -0.032187
	 D(6,10,5,7)      =        -0.000610	      -0.034979
	 D(6,10,5,18)     =        -3.139378	    -179.873117
	 D(7,5,10,9)      =         3.140110	     179.915055
	 D(7,12,8,21)     =         3.139995	     179.908459
	 D(8,6,10,9)      =        -3.140217	    -179.921159
	 D(8,12,7,20)     =         3.139830	     179.899008
	 D(9,1,3,11)      =         0.000348	       0.019955
	 D(9,1,3,16)      =        -3.141571	    -179.998735
	 D(9,2,4,11)      =        -0.000301	      -0.017270
	 D(9,2,4,17)      =        -3.141228	    -179.979086
	 D(9,10,5,18)     =         0.001342	       0.076917
	 D(9,10,6,19)     =         0.001724	       0.098798
	 D(10,5,7,12)     =         0.000131	       0.007488
	 D(10,5,7,20)     =        -3.139139	    -179.859416
	 D(10,6,8,12)     =         0.000101	       0.005775
	 D(10,6,8,21)     =        -3.140401	    -179.931732
	 D(10,9,1,14)     =         0.001287	       0.073752
	 D(10,9,2,15)     =        -0.000820	      -0.046992
	 D(11,3,1,14)     =         3.141234	     179.979432
	 D(11,4,2,15)     =         3.141517	     179.995641
	 D(12,7,5,18)     =         3.138946	     179.848380
	 D(12,8,6,19)     =         3.141350	     179.986117
	 D(13,11,3,16)    =        -0.000286	      -0.016400
	 D(13,11,4,17)    =        -0.000079	      -0.004548
	 D(14,1,3,16)     =        -0.000685	      -0.039257
	 D(15,2,4,17)     =         0.000590	       0.033826
	 D(18,5,7,20)     =        -0.000323	      -0.018524
	 D(19,6,8,21)     =         0.000848	       0.048609

	Current energy   :      -553.7189812333

	Generating empirical Hessian (Schlegel '84) for each fragment.
	Adding user-defined constraint: Fragment 1; Coordinate 63:
		Value =    -1.309850; Fixed value    =    -1.308997
		Force =     0.000426; Force constant =     0.500000
	Removing off-diagonal coupling between coordinate 63 and others.
	Taking RFO optimization step.
	Going to follow RFO solution 1.
	Using RFO vector 1.

	Determining step-restricting scale parameter for RS-RFO.
	Maximum step size allowed    0.10000

	 Iter      |step|        alpha        rfo_root  
	------------------------------------------------
	    0     0.16202       1.00000           1
	    1     0.13445       5.93136           1
	    2     0.11268      17.30691           1
	    3     0.10222      26.91642           1
	    4     0.10009      29.35682           1
	    5     0.10000      29.45825           1
	------------------------------------------------
	Norm of target step-size    0.10000
	Projected energy change by RFO approximation:        -0.0043773236

	Back-transformation to cartesian coordinates...
	Could not converge backtransformation.
	Using first guess instead.

	--- Internal Coordinate Step in ANG or DEG, aJ/ANG or AJ/DEG ---
	 ---------------------------------------------------------------------------
	   Coordinate                Previous        Force       Change         New 
	   ----------                --------       ------       ------       ------
	    1 R(1,3)          =      1.394038    -0.048202    -0.005248     1.388790
	    2 R(1,9)          =      1.394891    -0.023909    -0.002422     1.392469
	    3 R(1,14)         =      1.087431    -0.046460    -0.006220     1.081211
	    4 R(2,4)          =      1.394521    -0.050411    -0.005406     1.389116
	    5 R(2,9)          =      1.394821    -0.035443    -0.003718     1.391103
	    6 R(2,15)         =      1.087831    -0.046426    -0.006195     1.081636
	    7 R(3,11)         =      1.394821    -0.082952    -0.009071     1.385750
	    8 R(3,16)         =      1.086899    -0.044319    -0.005874     1.081024
	    9 R(4,11)         =      1.395407    -0.036589    -0.004000     1.391408
	   10 R(4,17)         =      1.086527    -0.029769    -0.003976     1.082551
	   11 R(5,7)          =      1.385357     0.010592     0.001084     1.386440
	   12 R(5,10)         =      1.391039    -0.020836    -0.001751     1.389288
	   13 R(5,18)         =      1.085183    -0.036518    -0.004860     1.080323
	   14 R(6,8)          =      1.384958     0.013735     0.001457     1.386416
	   15 R(6,10)         =      1.390278    -0.016551    -0.001268     1.389010
	   16 R(6,19)         =      1.085101    -0.035995    -0.004788     1.080314
	   17 R(7,12)         =      1.352558    -0.123357    -0.012072     1.340486
	   18 R(7,20)         =      1.084814    -0.021440    -0.002846     1.081968
	   19 R(8,12)         =      1.351694    -0.119235    -0.011618     1.340076
	   20 R(8,21)         =      1.085122    -0.022729    -0.003024     1.082098
	   21 R(9,10)         =      1.446444     0.155538     0.019380     1.465824
	   22 R(11,13)        =      1.360865    -0.002662     0.000251     1.361116
	   23 R(13,22)        =      0.970199    -0.077330    -0.007476     0.962723
	   24 B(1,3,11)       =    120.009056    -0.000042    -0.135988   119.873068
	   25 B(1,3,16)       =    119.662516     0.000233     0.624694   120.287210
	   26 B(1,9,2)        =    119.959722    -0.000512    -1.011076   118.948646
	   27 B(1,9,10)       =    120.043881     0.000267     0.530830   120.574712
	   28 B(2,4,11)       =    119.960108     0.000100     0.198095   120.158204
	   29 B(2,4,17)       =    119.723926     0.000032     0.114814   119.838740
	   30 B(2,9,10)       =    119.996376     0.000245     0.480054   120.476430
	   31 B(3,1,9)        =    120.031219     0.000373     0.791666   120.822885
	   32 B(3,1,14)       =    119.144799    -0.000039    -0.010331   119.134469
	   33 B(3,11,4)       =    119.994870    -0.000088    -0.216876   119.777994
	   34 B(3,11,13)      =    120.008801    -0.000836    -1.642250   118.366551
	   35 B(4,2,9)        =    120.045019     0.000169     0.374128   120.419147
	   36 B(4,2,15)       =    119.099297     0.000104     0.305821   119.405118
	   37 B(4,11,13)      =    119.996326     0.000924     1.859122   121.855448
	   38 B(5,7,12)       =    124.037897    -0.000011    -0.105711   123.932186
	   39 B(5,7,20)       =    120.801968    -0.000042    -0.073082   120.728886
	   40 B(5,10,6)       =    119.736766    -0.000896    -1.677097   118.059670
	   41 B(5,10,9)       =    120.098848     0.000453     0.848019   120.946867
	   42 B(6,8,12)       =    124.077661    -0.000030    -0.133498   123.944163
	   43 B(6,8,21)       =    120.739264    -0.000028    -0.045128   120.694136
	   44 B(6,10,9)       =    120.164367     0.000444     0.829051   120.993419
	   45 B(7,5,10)       =    117.890322     0.000409     0.930363   118.820684
	   46 B(7,5,18)       =    120.238382    -0.000012     0.038573   120.276955
	   47 B(7,12,8)       =    116.346143     0.000132     0.069394   116.415537
	   48 B(8,6,10)       =    117.911196     0.000397     0.916498   118.827694
	   49 B(8,6,19)       =    120.328646    -0.000021     0.006633   120.335279
	   50 B(9,1,14)       =    120.823969    -0.000334    -0.781325   120.042644
	   51 B(9,2,15)       =    120.855683    -0.000272    -0.679997   120.175686
	   52 B(10,5,18)      =    121.871098    -0.000397    -0.968797   120.902301
	   53 B(10,6,19)      =    121.760155    -0.000376    -0.923145   120.837010
	   54 B(11,3,16)      =    120.328425    -0.000191    -0.488717   119.839708
	   55 B(11,4,17)      =    120.315955    -0.000132    -0.312901   120.003053
	   56 B(11,13,22)     =    110.322421    -0.000443    -1.151495   109.170926
	   57 B(12,7,20)      =    115.160014     0.000054     0.178911   115.338925
	   58 B(12,8,21)      =    115.183048     0.000058     0.178652   115.361700
	   59 D(1,3,11,4)     =     -0.018609     0.000001     0.031629     0.013020
	   60 D(1,3,11,13)    =    179.964785     0.000001     0.019088   179.983873
	   61 D(1,9,2,4)      =      0.018608     0.000002     0.072882     0.091490
	   62 D(1,9,2,15)     =   -179.994534    -0.000001     0.004694  -179.989839
	   63 D(1,9,10,5)     =    -75.048854     0.000015     0.150710   -74.898144
	   64 D(1,9,10,6)     =    104.900964     0.000017     0.279606   105.180570
	   65 D(2,4,11,3)     =      0.017261     0.000001     0.005463     0.022724
	   66 D(2,4,11,13)    =   -179.966135     0.000001     0.019054  -179.947081
	   67 D(2,9,1,3)      =     -0.019945    -0.000000    -0.035830    -0.055775
	   68 D(2,9,1,14)     =   -179.978731    -0.000003    -0.097922  -180.076653
	   69 D(2,9,10,5)     =    105.003649     0.000017     0.267528   105.271177
	   70 D(2,9,10,6)     =    -75.046533     0.000019     0.396425   -74.650108
	   71 D(3,1,9,10)     =   -179.967461     0.000002     0.078450  -179.889011
	   72 D(3,11,4,17)    =    179.978848     0.000002     0.024888   180.003736
	   73 D(3,11,13,22)   =    179.956172    -0.000000     0.004228   179.960400
	   74 D(4,2,9,10)     =    179.966149     0.000000    -0.041255   179.924895
	   75 D(4,11,3,16)    =    180.000000     0.000002     0.055890   180.055890
	   76 D(4,11,13,22)   =     -0.060434    -0.000000    -0.008950    -0.069384
	   77 D(5,7,12,8)     =      0.025313    -0.000001    -0.003292     0.022021
	   78 D(5,10,6,8)     =      0.028842     0.000000     0.044665     0.073507
	   79 D(5,10,6,19)    =   -179.951202    -0.000003    -0.023181  -179.974383
	   80 D(6,8,12,7)     =     -0.032187    -0.000000    -0.010968    -0.043155
	   81 D(6,10,5,7)     =     -0.034979    -0.000001    -0.057659    -0.092638
	   82 D(6,10,5,18)    =   -179.873117    -0.000004    -0.130747  -180.003863
	   83 D(7,5,10,9)     =    179.915055     0.000001     0.068772   179.983827
	   84 D(7,12,8,21)    =    179.908459     0.000003     0.059196   179.967655
	   85 D(8,6,10,9)     =   -179.921159    -0.000002    -0.081836  -180.002995
	   86 D(8,12,7,20)    =    179.899008     0.000004     0.100992   180.000000
	   87 D(9,1,3,11)     =      0.019955    -0.000001    -0.016108     0.003847
	   88 D(9,1,3,16)     =   -179.998735    -0.000002    -0.040483  -180.039217
	   89 D(9,2,4,11)     =     -0.017270    -0.000002    -0.058519    -0.075789
	   90 D(9,2,4,17)     =   -179.979086    -0.000003    -0.077747  -180.056833
	   91 D(9,10,5,18)    =      0.076917    -0.000002    -0.004316     0.072601
	   92 D(9,10,6,19)    =      0.098798    -0.000005    -0.149682    -0.050884
	   93 D(10,5,7,12)    =      0.007488     0.000001     0.038812     0.046300
	   94 D(10,5,7,20)    =   -179.859416    -0.000004    -0.070796  -179.930212
	   95 D(10,6,8,12)    =      0.005775     0.000000    -0.010667    -0.004892
	   96 D(10,6,8,21)    =   -179.931732    -0.000003    -0.084519  -180.016252
	   97 D(10,9,1,14)    =      0.073752    -0.000001     0.016359     0.090111
	   98 D(10,9,2,15)    =     -0.046992    -0.000003    -0.109443    -0.156435
	   99 D(11,3,1,14)    =    179.979432     0.000002     0.045105   180.024537
	  100 D(11,4,2,15)    =    179.995641     0.000001     0.009275   180.004916
	  101 D(12,7,5,18)    =    179.848380     0.000004     0.109717   179.958097
	  102 D(12,8,6,19)    =    179.986117     0.000003     0.056634   180.042751
	  103 D(13,11,3,16)   =     -0.016400     0.000002     0.043143     0.026743
	  104 D(13,11,4,17)   =     -0.004548     0.000002     0.038479     0.033931
	  105 D(14,1,3,16)    =     -0.039257     0.000001     0.020730    -0.018527
	  106 D(15,2,4,17)    =      0.033826    -0.000000    -0.009953     0.023873
	  107 D(18,5,7,20)    =     -0.018524    -0.000000     0.000109    -0.018415
	  108 D(19,6,8,21)    =      0.048609    -0.000001    -0.017219     0.031390
	 ---------------------------------------------------------------------------
	Successfully symmetrized geometry.
	 Forces used to impose fixed constraints are not included.
	  Forces zeroed: 63 

  ==> Convergence Check <==

  Measures of convergence in internal coordinates in au.
  Criteria marked as inactive (o), active & met (*), and active & unmet ( ).
  --------------------------------------------------------------------------------------------- ~
   Step     Total Energy     Delta E     MAX Force     RMS Force      MAX Disp      RMS Disp    ~
  --------------------------------------------------------------------------------------------- ~
    Convergence Criteria    1.00e-06 *    3.00e-04 *             o    1.20e-03 *             o  ~
  --------------------------------------------------------------------------------------------- ~
      1    -553.71898123   -5.54e+02      1.89e-02      4.36e-03 o    3.66e-02      9.62e-03 o  ~
  ---------------------------------------------------------------------------------------------

	Writing optimization data to binary file.
	Structure for next step:
	Cartesian Geometry (in Angstrom)
	    C    -1.2682178402   0.7133922728  -0.5627745659
	    C    -0.2721474798   0.1026748412   1.5310707473
	    C    -2.3424662111   1.2852413748   0.1063424238
	    C    -1.3451024672   0.6728292150   2.2043712231
	    C     0.7768952977  -1.7032695097  -1.2212939415
	    C     2.1424991858   0.1516178635  -0.6134699882
	    C     1.8765945302  -2.2299733373  -1.8811893171
	    C     3.1827698024  -0.4561149432  -1.2995064793
	    C    -0.2249247326   0.1172133684   0.1408452185
	    C     0.9074691462  -0.4826031567  -0.5708744789
	    C    -2.3825140765   1.2656439632   1.4913751096
	    N     3.0750637495  -1.6317823313  -1.9335486206
	    O    -3.4495359062   1.8352464020   2.1155974869
	    H    -1.2489799304   0.7357671761  -1.6435828859
	    H     0.5276532280  -0.3549620889   2.0974831525
	    H    -3.1474833867   1.7463516273  -0.4485795932
	    H    -1.3726941192   0.6554133564   3.2864303589
	    H    -0.1627818127  -2.2362708626  -1.2174526055
	    H     2.2941480414   1.1020675354  -0.1228317420
	    H     1.8091302238  -3.1777586634  -2.3986892594
	    H     4.1572656436   0.0113421360  -1.3522048604
	    H    -3.3426401756   1.7469130039   3.0682810179
			--------------------------
			 OPTKING Finished Execution 
			--------------------------

    Structure for next step:
    Molecular point group: c1
    Full point group: C1

    Geometry (in Angstrom), charge = 0, multiplicity = 1:

    C           -1.268249328057     0.713537721759    -0.562427982689
    C           -0.272178967635     0.102820290247     1.531417330466
    C           -2.342497698884     1.285386823837     0.106689006931
    C           -1.345133955023     0.672974664023     2.204717806308
    C            0.776863809887    -1.703124060699    -1.220947358327
    C            2.142467697967     0.151763312536    -0.613123405029
    C            1.876563042369    -2.229827888288    -1.880842733887
    C            3.182738314564    -0.455969494160    -1.299159896099
    C           -0.224956220397     0.117358817441     0.141191801627
    C            0.907437658423    -0.482457707690    -0.570527895744
    C           -2.382545564285     1.265789412246     1.491721692797
    N            3.075032261720    -1.631636882256    -1.933202037454
    O           -3.449567394056     1.835391850962     2.115944070088
    H           -1.249011418181     0.735912625074    -1.643236302756
    H            0.527621740156    -0.354816639863     2.097829735640
    H           -3.147514874556     1.746497076328    -0.448233010035
    H           -1.372725606992     0.655558805431     3.286776942035
    H           -0.162813300475    -2.236125413613    -1.217106022300
    H            2.294116553557     1.102212984380    -0.122485158824
    H            1.809098735943    -3.177613214416    -2.398342676190
    H            4.157234155741     0.011487585042    -1.351858277284
    H           -3.342671663421     1.747058452868     3.068627601111

gradient() will perform analytic gradient computation.

*** tstart() called on gpu-2-4.local
*** at Sun Nov 12 13:16:22 2017

    SCF Algorithm Type (re)set to DF.

*** tstart() called on gpu-2-4.local
*** at Sun Nov 12 13:16:22 2017

   => Loading Basis Set <=

    Name: AUG-CC-PVTZ
    Role: ORBITAL
    Keyword: BASIS
    atoms 1-11  entry C          line   221 file /cbio/jclab/home/chayas/anaconda/envs/py35/share/psi4/basis/aug-cc-pvtz.gbs 
    atoms 12    entry N          line   267 file /cbio/jclab/home/chayas/anaconda/envs/py35/share/psi4/basis/aug-cc-pvtz.gbs 
    atoms 13    entry O          line   313 file /cbio/jclab/home/chayas/anaconda/envs/py35/share/psi4/basis/aug-cc-pvtz.gbs 
    atoms 14-22 entry H          line    34 file /cbio/jclab/home/chayas/anaconda/envs/py35/share/psi4/basis/aug-cc-pvtz.gbs 


         ---------------------------------------------------------
                                   SCF
            by Justin Turney, Rob Parrish, and Andy Simmonett
                              RHF Reference
                        8 Threads,   4768 MiB Core
         ---------------------------------------------------------

  ==> Geometry <==

    Molecular point group: c1
    Full point group: C1

    Geometry (in Angstrom), charge = 0, multiplicity = 1:

       Center              X                  Y                   Z               Mass       
    ------------   -----------------  -----------------  -----------------  -----------------
           C         -1.268249328057     0.713537721759    -0.562427982689    12.000000000000
           C         -0.272178967635     0.102820290247     1.531417330466    12.000000000000
           C         -2.342497698884     1.285386823837     0.106689006931    12.000000000000
           C         -1.345133955023     0.672974664023     2.204717806308    12.000000000000
           C          0.776863809887    -1.703124060699    -1.220947358327    12.000000000000
           C          2.142467697967     0.151763312536    -0.613123405029    12.000000000000
           C          1.876563042369    -2.229827888288    -1.880842733887    12.000000000000
           C          3.182738314564    -0.455969494160    -1.299159896099    12.000000000000
           C         -0.224956220397     0.117358817441     0.141191801627    12.000000000000
           C          0.907437658423    -0.482457707690    -0.570527895744    12.000000000000
           C         -2.382545564285     1.265789412246     1.491721692797    12.000000000000
           N          3.075032261720    -1.631636882256    -1.933202037454    14.003074004780
           O         -3.449567394056     1.835391850962     2.115944070088    15.994914619560
           H         -1.249011418181     0.735912625074    -1.643236302756     1.007825032070
           H          0.527621740156    -0.354816639863     2.097829735640     1.007825032070
           H         -3.147514874556     1.746497076328    -0.448233010035     1.007825032070
           H         -1.372725606992     0.655558805431     3.286776942035     1.007825032070
           H         -0.162813300475    -2.236125413613    -1.217106022300     1.007825032070
           H          2.294116553557     1.102212984380    -0.122485158824     1.007825032070
           H          1.809098735943    -3.177613214416    -2.398342676190     1.007825032070
           H          4.157234155741     0.011487585042    -1.351858277284     1.007825032070
           H         -3.342671663421     1.747058452868     3.068627601111     1.007825032070

  Running in c1 symmetry.

  Rotational constants: A =      0.09843  B =      0.01286  C =      0.01243 [cm^-1]
  Rotational constants: A =   2950.86451  B =    385.49425  C =    372.62792 [MHz]
  Nuclear repulsion =  697.016397400193227

  Charge       = 0
  Multiplicity = 1
  Electrons    = 90
  Nalpha       = 45
  Nbeta        = 45

  ==> Algorithm <==

  SCF Algorithm Type is DF.
  DIIS enabled.
  MOM disabled.
  Fractional occupation disabled.
  Guess Type is READ.
  Energy threshold   = 1.00e-10
  Density threshold  = 1.00e-10
  Integral threshold = 0.00e+00

  ==> Primary Basis <==

  Basis Set: AUG-CC-PVTZ
    Blend: AUG-CC-PVTZ
    Number of shells: 263
    Number of basis function: 805
    Number of Cartesian functions: 940
    Spherical Harmonics?: true
    Max angular momentum: 3

   => Loading Basis Set <=

    Name: (AUG-CC-PVTZ AUX)
    Role: JKFIT
    Keyword: DF_BASIS_SCF
    atoms 1-11  entry C          line   161 file /cbio/jclab/home/chayas/anaconda/envs/py35/share/psi4/basis/aug-cc-pvtz-jkfit.gbs 
    atoms 12    entry N          line   223 file /cbio/jclab/home/chayas/anaconda/envs/py35/share/psi4/basis/aug-cc-pvtz-jkfit.gbs 
    atoms 13    entry O          line   285 file /cbio/jclab/home/chayas/anaconda/envs/py35/share/psi4/basis/aug-cc-pvtz-jkfit.gbs 
    atoms 14-22 entry H          line    69 file /cbio/jclab/home/chayas/anaconda/envs/py35/share/psi4/basis/aug-cc-pvtz-jkfit.gbs 

  Reading orbitals from file 180, no projection.

  ==> Pre-Iterations <==

   -------------------------------------------------------
    Irrep   Nso     Nmo     Nalpha   Nbeta   Ndocc  Nsocc
   -------------------------------------------------------
     A        805     805       0       0       0       0
   -------------------------------------------------------
    Total     805     805      45      45      45       0
   -------------------------------------------------------

  ==> Integral Setup <==

  ==> DFJK: Density-Fitted J/K Matrices <==

    J tasked:                  Yes
    K tasked:                  Yes
    wK tasked:                  No
    OpenMP threads:              8
    Integrals threads:           8
    Memory (MB):              3576
    Algorithm:                Disk
    Integral Cache:           NONE
    Schwarz Cutoff:          1E-12
    Fitting Condition:       1E-12

   => Auxiliary Basis Set <=

  Basis Set: (AUG-CC-PVTZ AUX)
    Blend: AUG-CC-PVTZ-JKFIT
    Number of shells: 516
    Number of basis function: 1766
    Number of Cartesian functions: 2198
    Spherical Harmonics?: true
    Max angular momentum: 4

  Minimum eigenvalue in the overlap matrix is 5.7128228809E-07.
  Using Symmetric Orthogonalization.

  SCF Guess: Orbitals guess was supplied from a previous computation.

  ==> Iterations <==

                           Total Energy        Delta E     RMS |[F,P]|

   @DF-RHF iter   0:  -551.38730483009999   -5.51387e+02   5.34252e-04 
   @DF-RHF iter   1:  -551.28923781661854    9.80670e-02   1.30965e-04 
   @DF-RHF iter   2:  -551.28976382367273   -5.26007e-04   7.85275e-05 DIIS
   @DF-RHF iter   3:  -551.29014660510347   -3.82781e-04   9.42634e-06 DIIS
   @DF-RHF iter   4:  -551.29015562704308   -9.02194e-06   3.27515e-06 DIIS
   @DF-RHF iter   5:  -551.29015755465184   -1.92761e-06   1.41079e-06 DIIS
   @DF-RHF iter   6:  -551.29015786223727   -3.07585e-07   8.59432e-07 DIIS
   @DF-RHF iter   7:  -551.29015798317062   -1.20933e-07   3.76715e-07 DIIS
   @DF-RHF iter   8:  -551.29015802242634   -3.92557e-08   1.23521e-07 DIIS
   @DF-RHF iter   9:  -551.29015802687559   -4.44925e-09   4.81846e-08 DIIS
   @DF-RHF iter  10:  -551.29015802718982   -3.14230e-10   1.49608e-08 DIIS
   @DF-RHF iter  11:  -551.29015802722267   -3.28555e-11   3.52894e-09 DIIS
   @DF-RHF iter  12:  -551.29015802721494    7.73070e-12   1.64711e-09 DIIS
   @DF-RHF iter  13:  -551.29015802723859   -2.36469e-11   6.93669e-10 DIIS
   @DF-RHF iter  14:  -551.29015802723109    7.50333e-12   3.59643e-10 DIIS
   @DF-RHF iter  15:  -551.29015802722950    1.59162e-12   1.42832e-10 DIIS
   @DF-RHF iter  16:  -551.29015802724018   -1.06866e-11   4.99593e-11 DIIS

  ==> Post-Iterations <==

    Orbital Energies (a.u.)
    -----------------------

    Doubly Occupied:                                                      

       1A    -20.598862     2A    -15.563213     3A    -11.310392  
       4A    -11.272645     5A    -11.272612     6A    -11.262939  
       7A    -11.251010     8A    -11.249122     9A    -11.243860  
      10A    -11.242612    11A    -11.236733    12A    -11.236714  
      13A    -11.236663    14A     -1.416457    15A     -1.256297  
      16A     -1.172726    17A     -1.104513    18A     -1.034688  
      19A     -1.031756    20A     -1.011900    21A     -0.879151  
      22A     -0.861867    23A     -0.853195    24A     -0.811286  
      25A     -0.745810    26A     -0.724809    27A     -0.678867  
      28A     -0.666107    29A     -0.656651    30A     -0.636917  
      31A     -0.616387    32A     -0.601081    33A     -0.600776  
      34A     -0.596681    35A     -0.580395    36A     -0.538990  
      37A     -0.527453    38A     -0.523528    39A     -0.505515  
      40A     -0.489489    41A     -0.418346    42A     -0.380038  
      43A     -0.355999    44A     -0.346250    45A     -0.321962  

    Virtual:                                                              

      46A      0.022252    47A      0.031123    48A      0.033368  
      49A      0.035937    50A      0.042180    51A      0.049031  
      52A      0.050355    53A      0.052730    54A      0.061632  
      55A      0.083851    56A      0.085101    57A      0.088468  
      58A      0.091132    59A      0.097426    60A      0.099777  
      61A      0.100342    62A      0.106100    63A      0.107727  
      64A      0.109065    65A      0.111194    66A      0.114222  
      67A      0.117460    68A      0.120686    69A      0.124600  
      70A      0.126227    71A      0.127406    72A      0.132135  
      73A      0.135885    74A      0.140724    75A      0.142138  
      76A      0.144586    77A      0.144903    78A      0.152750  
      79A      0.154656    80A      0.156731    81A      0.159561  
      82A      0.167027    83A      0.171139    84A      0.175283  
      85A      0.188453    86A      0.190146    87A      0.196557  
      88A      0.202319    89A      0.206228    90A      0.218989  
      91A      0.224086    92A      0.229062    93A      0.232528  
      94A      0.237588    95A      0.239838    96A      0.243521  
      97A      0.245074    98A      0.250684    99A      0.254048  
     100A      0.256892   101A      0.258776   102A      0.262761  
     103A      0.266622   104A      0.270466   105A      0.274483  
     106A      0.280237   107A      0.283301   108A      0.284694  
     109A      0.289096   110A      0.294384   111A      0.302227  
     112A      0.305465   113A      0.307999   114A      0.312795  
     115A      0.315306   116A      0.317742   117A      0.319744  
     118A      0.327223   119A      0.327379   120A      0.334303  
     121A      0.338891   122A      0.342835   123A      0.346716  
     124A      0.350760   125A      0.354885   126A      0.364190  
     127A      0.368681   128A      0.373199   129A      0.378813  
     130A      0.390524   131A      0.395498   132A      0.400234  
     133A      0.402364   134A      0.408021   135A      0.410995  
     136A      0.413281   137A      0.418755   138A      0.423332  
     139A      0.429875   140A      0.434717   141A      0.438828  
     142A      0.440235   143A      0.442061   144A      0.444692  
     145A      0.449406   146A      0.449936   147A      0.456359  
     148A      0.461897   149A      0.469194   150A      0.472811  
     151A      0.474186   152A      0.477157   153A      0.478879  
     154A      0.484508   155A      0.487547   156A      0.488969  
     157A      0.495451   158A      0.496116   159A      0.499163  
     160A      0.504914   161A      0.508953   162A      0.509490  
     163A      0.513680   164A      0.514359   165A      0.519015  
     166A      0.524244   167A      0.528791   168A      0.535899  
     169A      0.537728   170A      0.542599   171A      0.543167  
     172A      0.546346   173A      0.550888   174A      0.552572  
     175A      0.559323   176A      0.563307   177A      0.569135  
     178A      0.575942   179A      0.582322   180A      0.587526  
     181A      0.591154   182A      0.595988   183A      0.609281  
     184A      0.611628   185A      0.617129   186A      0.622325  
     187A      0.627926   188A      0.633482   189A      0.636870  
     190A      0.639309   191A      0.640924   192A      0.656565  
     193A      0.664831   194A      0.674680   195A      0.678924  
     196A      0.680937   197A      0.690993   198A      0.694821  
     199A      0.697740   200A      0.704697   201A      0.712301  
     202A      0.717000   203A      0.724021   204A      0.726524  
     205A      0.732193   206A      0.738907   207A      0.743373  
     208A      0.745135   209A      0.752211   210A      0.761591  
     211A      0.763736   212A      0.773301   213A      0.780171  
     214A      0.785184   215A      0.787378   216A      0.789796  
     217A      0.792624   218A      0.799094   219A      0.802571  
     220A      0.805936   221A      0.813185   222A      0.817289  
     223A      0.826167   224A      0.838456   225A      0.845670  
     226A      0.846765   227A      0.850130   228A      0.859482  
     229A      0.870886   230A      0.880838   231A      0.885374  
     232A      0.886585   233A      0.892576   234A      0.893839  
     235A      0.897818   236A      0.904778   237A      0.907687  
     238A      0.912870   239A      0.914526   240A      0.921820  
     241A      0.922961   242A      0.927150   243A      0.931292  
     244A      0.936176   245A      0.941374   246A      0.948386  
     247A      0.951603   248A      0.955452   249A      0.957626  
     250A      0.959178   251A      0.965109   252A      0.966413  
     253A      0.982354   254A      0.984450   255A      0.987841  
     256A      0.991498   257A      0.992835   258A      0.996339  
     259A      1.003577   260A      1.008247   261A      1.011851  
     262A      1.019453   263A      1.022162   264A      1.027038  
     265A      1.030529   266A      1.035935   267A      1.039431  
     268A      1.047357   269A      1.051019   270A      1.051921  
     271A      1.056489   272A      1.058201   273A      1.067209  
     274A      1.071443   275A      1.080788   276A      1.084408  
     277A      1.087876   278A      1.092402   279A      1.098050  
     280A      1.102770   281A      1.108293   282A      1.113475  
     283A      1.117749   284A      1.123405   285A      1.125770  
     286A      1.132561   287A      1.138694   288A      1.146440  
     289A      1.150696   290A      1.154784   291A      1.159574  
     292A      1.161772   293A      1.168364   294A      1.174850  
     295A      1.176997   296A      1.180432   297A      1.186018  
     298A      1.191092   299A      1.193946   300A      1.196769  
     301A      1.201851   302A      1.209646   303A      1.214948  
     304A      1.218452   305A      1.226779   306A      1.230204  
     307A      1.236831   308A      1.244982   309A      1.247733  
     310A      1.254501   311A      1.266799   312A      1.268306  
     313A      1.274157   314A      1.276138   315A      1.289072  
     316A      1.291911   317A      1.294916   318A      1.300274  
     319A      1.304789   320A      1.315216   321A      1.321524  
     322A      1.322929   323A      1.326840   324A      1.331260  
     325A      1.337072   326A      1.351535   327A      1.370941  
     328A      1.372457   329A      1.380506   330A      1.392666  
     331A      1.395390   332A      1.405853   333A      1.412044  
     334A      1.417346   335A      1.419223   336A      1.428433  
     337A      1.430906   338A      1.440746   339A      1.449206  
     340A      1.459033   341A      1.464089   342A      1.477964  
     343A      1.488987   344A      1.491339   345A      1.500146  
     346A      1.503590   347A      1.509461   348A      1.524005  
[...]
	 B(1,9,2)         =         2.069864	     118.594467
	 B(1,9,10)        =         2.109267	     120.852079
	 B(2,4,11)        =         2.093973	     119.975805
	 B(2,4,17)        =         2.094949	     120.031711
	 B(2,9,10)        =         2.103251	     120.507412
	 B(3,1,9)         =         2.111411	     120.974924
	 B(3,1,14)        =         2.088199	     119.644993
	 B(3,11,4)        =         2.091788	     119.850648
	 B(3,11,13)       =         2.046147	     117.235612
	 B(4,2,9)         =         2.107681	     120.761229
	 B(4,2,15)        =         2.089385	     119.712946
	 B(4,11,13)       =         2.145247	     122.913607
	 B(5,7,12)        =         2.157450	     123.612775
	 B(5,7,20)        =         2.097555	     120.181048
	 B(5,10,6)        =         2.045277	     117.185762
	 B(5,10,9)        =         2.120517	     121.496676
	 B(6,8,12)        =         2.157643	     123.623831
	 B(6,8,21)        =         2.097427	     120.173689
	 B(6,10,9)        =         2.116695	     121.277712
	 B(7,5,10)        =         2.083499	     119.375700
	 B(7,5,18)        =         2.101596	     120.412553
	 B(7,12,8)        =         2.039023	     116.827390
	 B(8,6,10)        =         2.083380	     119.368880
	 B(8,6,19)        =         2.102026	     120.437219
	 B(9,1,14)        =         2.083573	     119.379915
	 B(9,2,15)        =         2.086082	     119.523694
	 B(10,5,18)       =         2.098089	     120.211652
	 B(10,6,19)       =         2.097746	     120.191983
	 B(11,3,16)       =         2.076089	     118.951143
	 B(11,4,17)       =         2.094264	     119.992466
	 B(11,13,22)      =         1.901808	     108.965589
	 B(12,7,20)       =         2.028155	     116.204703
	 B(12,8,21)       =         2.028115	     116.202422
	 D(1,3,11,4)      =         0.003720	       0.213145
	 D(1,3,11,13)     =        -3.140128	    -179.916054
	 D(1,9,2,4)       =         0.018510	       1.060544
	 D(1,9,2,15)      =        -3.132380	    -179.472134
	 D(1,9,10,5)      =        -1.304627	     -74.749611
	 D(1,9,10,6)      =         1.878171	     107.611278
	 D(2,4,11,3)      =        -0.001161	      -0.066547
	 D(2,4,11,13)     =        -3.140366	    -179.929708
	 D(2,9,1,3)       =        -0.015952	      -0.913969
	 D(2,9,1,14)      =         3.123024	     178.936121
	 D(2,9,10,5)      =         1.880644	     107.752946
	 D(2,9,10,6)      =        -1.219744	     -69.886165
	 D(3,1,9,10)      =        -3.114686	    -178.458371
	 D(3,11,4,17)     =         3.141267	     179.981354
	 D(3,11,13,22)    =        -3.138771	    -179.838337
	 D(4,2,9,10)      =         3.117397	     178.613700
	 D(4,11,3,16)     =        -3.130687	    -179.375141
	 D(4,11,13,22)    =         0.000492	       0.028180
	 D(5,7,12,8)      =         0.000000	       0.000000
	 D(5,10,6,8)      =         0.013696	       0.784745
	 D(5,10,6,19)     =        -3.136653	    -179.716953
	 D(6,8,12,7)      =        -0.001883	      -0.107861
	 D(6,10,5,7)      =        -0.015419	      -0.883441
	 D(6,10,5,18)     =         3.124226	     179.004953
	 D(7,5,10,9)      =        -3.117422	    -178.615147
	 D(7,12,8,21)     =         3.141243	     179.979948
	 D(8,6,10,9)      =         3.115792	     178.521736
	 D(8,12,7,20)     =        -3.133873	    -179.557717
	 D(9,1,3,11)      =         0.004987	       0.285744
	 D(9,1,3,16)      =         3.139228	     179.864509
	 D(9,2,4,11)      =        -0.010160	      -0.582136
	 D(9,2,4,17)      =         3.130596	     179.369944
	 D(9,10,5,18)     =         0.022222	       1.273248
	 D(9,10,6,19)     =        -0.034557	      -1.979962
	 D(10,5,7,12)     =         0.008954	       0.513003
	 D(10,5,7,20)     =        -3.140648	    -179.945873
	 D(10,6,8,12)     =        -0.005240	      -0.300215
	 D(10,6,8,21)     =         3.134762	     179.608651
	 D(10,9,1,14)     =         0.024290	       1.391718
	 D(10,9,2,15)     =        -0.033492	      -1.918978
	 D(11,3,1,14)     =        -3.133982	    -179.563952
	 D(11,4,2,15)     =         3.140747	     179.951544
	 D(12,7,5,18)     =        -3.130687	    -179.375163
	 D(12,8,6,19)     =        -3.138054	    -179.797259
	 D(13,11,3,16)    =         0.008651	       0.495659
	 D(13,11,4,17)    =         0.002063	       0.118193
	 D(14,1,3,16)     =         0.000259	       0.014812
	 D(15,2,4,17)     =        -0.001682	      -0.096376
	 D(18,5,7,20)     =         0.002897	       0.165962
	 D(19,6,8,21)     =         0.001948	       0.111607

	Current energy   :      -553.7221846561

	Energy change for the previous step:
		Projected    :        -0.0000007761
		Actual       :        -0.0000012541

	Performing BFGS update.
	Previous computed or guess Hessian on step 1.
	Steps to be used in Hessian update: 6 5
	Adding user-defined constraint: Fragment 1; Coordinate 63:
		Value =    -1.304627; Fixed value    =    -1.309000
		Force =    -0.002843; Force constant =     0.650000
	Removing off-diagonal coupling between coordinate 63 and others.
	Taking RFO optimization step.
	Going to follow RFO solution 1.
	Rejecting RFO root 1 because normalization gives large value.
	Rejecting RFO root 2 because normalization gives large value.
	Using RFO vector 3.
	Norm of target step-size    0.00066
	Projected energy change by RFO approximation:         0.0000000063

	Back-transformation to cartesian coordinates...
	Successfully converged to displaced geometry.
	First geometry is closer to target in internal coordinates, so am using that one.
	First geometry has RMS(Delta(q)) = 5.59e-07

	--- Internal Coordinate Step in ANG or DEG, aJ/ANG or AJ/DEG ---
	 ---------------------------------------------------------------------------
	   Coordinate                Previous        Force       Change         New 
	   ----------                --------       ------       ------       ------
	    1 R(1,3)          =      1.384644     0.000086     0.000008     1.384652
	    2 R(1,9)          =      1.393150    -0.000156    -0.000014     1.393136
	    3 R(1,14)         =      1.079967     0.000006     0.000004     1.079971
	    4 R(2,4)          =      1.386975    -0.000049    -0.000001     1.386974
	    5 R(2,9)          =      1.391072     0.000085     0.000010     1.391082
	    6 R(2,15)         =      1.080000    -0.000010     0.000002     1.080002
	    7 R(3,11)         =      1.387691    -0.000073    -0.000005     1.387686
	    8 R(3,16)         =      1.078913    -0.000003     0.000003     1.078917
	    9 R(4,11)         =      1.388138     0.000066     0.000008     1.388146
	   10 R(4,17)         =      1.081379     0.000011     0.000002     1.081382
	   11 R(5,7)          =      1.386743     0.000049     0.000006     1.386749
	   12 R(5,10)         =      1.390062    -0.000157    -0.000021     1.390041
	   13 R(5,18)         =      1.079703     0.000047     0.000009     1.079713
	   14 R(6,8)          =      1.386662    -0.000008    -0.000002     1.386660
	   15 R(6,10)         =      1.390104     0.000008     0.000002     1.390106
	   16 R(6,19)         =      1.079741     0.000025     0.000006     1.079747
	   17 R(7,12)         =      1.335034    -0.000028     0.000001     1.335035
	   18 R(7,20)         =      1.081055    -0.000015    -0.000002     1.081053
	   19 R(8,12)         =      1.335022     0.000008     0.000007     1.335029
	   20 R(8,21)         =      1.081093    -0.000003    -0.000001     1.081092
	   21 R(9,10)         =      1.468031     0.000218     0.000020     1.468051
	   22 R(11,13)        =      1.362700     0.000015     0.000002     1.362702
	   23 R(13,22)        =      0.961852    -0.000001     0.000002     0.961854
	   24 B(1,3,11)       =    119.835076     0.000000     0.000822   119.835897
	   25 B(1,3,16)       =    121.212469    -0.000001    -0.001628   121.210840
	   26 B(1,9,2)        =    118.594467     0.000000     0.000468   118.594934
	   27 B(1,9,10)       =    120.852079     0.000001     0.003440   120.855519
	   28 B(2,4,11)       =    119.975805     0.000000    -0.000332   119.975473
	   29 B(2,4,17)       =    120.031711    -0.000000    -0.000387   120.031324
	   30 B(2,9,10)       =    120.507412    -0.000001    -0.004263   120.503150
	   31 B(3,1,9)        =    120.974924     0.000000    -0.000658   120.974266
	   32 B(3,1,14)       =    119.644993    -0.000000    -0.000861   119.644132
	   33 B(3,11,4)       =    119.850648    -0.000000    -0.000328   119.850320
	   34 B(3,11,13)      =    117.235612    -0.000000     0.000021   117.235632
	   35 B(4,2,9)        =    120.761229    -0.000000     0.000036   120.761265
	   36 B(4,2,15)       =    119.712946    -0.000000    -0.001265   119.711681
	   37 B(4,11,13)      =    122.913607     0.000000     0.000300   122.913907
	   38 B(5,7,12)       =    123.612775     0.000000     0.001279   123.614054
	   39 B(5,7,20)       =    120.181048     0.000000     0.001067   120.182115
	   40 B(5,10,6)       =    117.185762    -0.000000     0.000269   117.186031
	   41 B(5,10,9)       =    121.496676     0.000001     0.004532   121.501208
	   42 B(6,8,12)       =    123.623831    -0.000000     0.000155   123.623987
	   43 B(6,8,21)       =    120.173689     0.000000     0.002318   120.176007
	   44 B(6,10,9)       =    121.277712    -0.000001    -0.004610   121.273102
	   45 B(7,5,10)       =    119.375700     0.000000    -0.000407   119.375293
	   46 B(7,5,18)       =    120.412553    -0.000000    -0.001400   120.411153
	   47 B(7,12,8)       =    116.827390    -0.000000    -0.001504   116.825886
	   48 B(8,6,10)       =    119.368880     0.000000     0.000313   119.369193
	   49 B(8,6,19)       =    120.437219     0.000000     0.000215   120.437433
	   50 B(9,1,14)       =    119.379915     0.000000     0.001525   119.381440
	   51 B(9,2,15)       =    119.523694     0.000000     0.001207   119.524901
	   52 B(10,5,18)      =    120.211652     0.000000     0.001812   120.213463
	   53 B(10,6,19)      =    120.191983    -0.000000    -0.000518   120.191464
	   54 B(11,3,16)      =    118.951143     0.000000     0.000825   118.951968
	   55 B(11,4,17)      =    119.992466    -0.000000     0.000720   119.993186
	   56 B(11,13,22)     =    108.965589    -0.000000    -0.000329   108.965260
	   57 B(12,7,20)      =    116.204703    -0.000000    -0.002312   116.202391
	   58 B(12,8,21)      =    116.202422    -0.000000    -0.002468   116.199954
	   59 D(1,3,11,4)     =      0.213145    -0.000000     0.000871     0.214016
	   60 D(1,3,11,13)    =   -179.916054     0.000000    -0.002270  -179.918324
	   61 D(1,9,2,4)      =      1.060544    -0.000000    -0.000174     1.060370
	   62 D(1,9,2,15)     =   -179.472134    -0.000000    -0.002866  -179.475001
	   63 D(1,9,10,5)     =    -74.749611     0.000002    -0.001264   -74.750875
	   64 D(1,9,10,6)     =    107.611278     0.000001    -0.006946   107.604333
	   65 D(2,4,11,3)     =     -0.066547     0.000000     0.000429    -0.066118
	   66 D(2,4,11,13)    =   -179.929708     0.000000     0.003757  -179.925951
	   67 D(2,9,1,3)      =     -0.913969     0.000000     0.001498    -0.912471
	   68 D(2,9,1,14)     =    178.936121     0.000000     0.003943   178.940063
	   69 D(2,9,10,5)     =    107.752946     0.000001     0.008329   107.761275
	   70 D(2,9,10,6)     =    -69.886165     0.000000     0.002647   -69.883517
	   71 D(3,1,9,10)     =   -178.458371    -0.000000     0.011030  -178.447341
	   72 D(3,11,4,17)    =    179.981354     0.000000    -0.000005   179.981349
	   73 D(3,11,13,22)   =   -179.838337    -0.000000     0.003119  -179.835218
	   74 D(4,2,9,10)     =    178.613700     0.000000    -0.009476   178.604224
	   75 D(4,11,3,16)    =   -179.375141    -0.000000    -0.001992  -179.377133
	   76 D(4,11,13,22)   =      0.028180     0.000000    -0.000127     0.028053
	   77 D(5,7,12,8)     =      0.000000     0.000000     0.000000     0.000000
	   78 D(5,10,6,8)     =      0.784745    -0.000000    -0.007410     0.777335
	   79 D(5,10,6,19)    =   -179.716953    -0.000000    -0.006169  -179.723122
	   80 D(6,8,12,7)     =     -0.107861     0.000000     0.001156    -0.106705
	   81 D(6,10,5,7)     =     -0.883441     0.000000     0.008171    -0.875270
	   82 D(6,10,5,18)    =    179.004953     0.000000     0.010398   179.015351
	   83 D(7,5,10,9)     =   -178.615147    -0.000000     0.002829  -178.612318
	   84 D(7,12,8,21)    =    179.979948    -0.000000    -0.003254   179.976694
	   85 D(8,6,10,9)     =    178.521736     0.000000    -0.001860   178.519876
	   86 D(8,12,7,20)    =   -179.557717    -0.000000    -0.005443  -179.563161
	   87 D(9,1,3,11)     =      0.285744    -0.000000    -0.001853     0.283891
	   88 D(9,1,3,16)     =    179.864509    -0.000000     0.001086   179.865595
	   89 D(9,2,4,11)     =     -0.582136     0.000000    -0.000769    -0.582905
	   90 D(9,2,4,17)     =    179.369944     0.000000    -0.000334   179.369610
	   91 D(9,10,5,18)    =      1.273248    -0.000000     0.005056     1.278304
	   92 D(9,10,6,19)    =     -1.979962     0.000000    -0.000619    -1.980581
	   93 D(10,5,7,12)    =      0.513003    -0.000000    -0.004485     0.508518
	   94 D(10,5,7,20)    =   -179.945873     0.000000     0.000806  -179.945067
	   95 D(10,6,8,12)    =     -0.300215     0.000000     0.002863    -0.297351
	   96 D(10,6,8,21)    =    179.608651     0.000000     0.007437   179.616088
	   97 D(10,9,1,14)    =      1.391718    -0.000000     0.013475     1.405193
	   98 D(10,9,2,15)    =     -1.918978     0.000000    -0.012168    -1.931147
	   99 D(11,3,1,14)    =   -179.563952    -0.000000    -0.004308  -179.568259
	  100 D(11,4,2,15)    =    179.951544     0.000000     0.001915   179.953459
	  101 D(12,7,5,18)    =   -179.375163    -0.000000    -0.006719  -179.381882
	  102 D(12,8,6,19)    =   -179.797259    -0.000000     0.001623  -179.795636
	  103 D(13,11,3,16)   =      0.495659    -0.000000    -0.005133     0.490526
	  104 D(13,11,4,17)   =      0.118193     0.000000     0.003322     0.121516
	  105 D(14,1,3,16)    =      0.014812    -0.000000    -0.001368     0.013444
	  106 D(15,2,4,17)    =     -0.096376     0.000000     0.002350    -0.094026
	  107 D(18,5,7,20)    =      0.165962     0.000000    -0.001429     0.164532
	  108 D(19,6,8,21)    =      0.111607     0.000000     0.006196     0.117803
	 ---------------------------------------------------------------------------
	Successfully symmetrized geometry.
	 Forces used to impose fixed constraints are not included.
	  Forces zeroed: 63 

  ==> Convergence Check <==

  Measures of convergence in internal coordinates in au.
  Criteria marked as inactive (o), active & met (*), and active & unmet ( ).
  ---------------------------------------------------------------------------------------------
   Step     Total Energy     Delta E     MAX Force     RMS Force      MAX Disp      RMS Disp   
  ---------------------------------------------------------------------------------------------
    Convergence Criteria    1.00e-06 *    3.00e-04 *             o    1.20e-03 *             o
  ---------------------------------------------------------------------------------------------
      7    -553.72218466   -1.25e-06      5.85e-05 *    1.29e-05 o    2.35e-04 *    6.39e-05 o  ~
  ---------------------------------------------------------------------------------------------


  **** Optimization is complete! (in 7 steps) ****

  ==> Optimization Summary <==

  Measures of convergence in internal coordinates in au.
  --------------------------------------------------------------------------------------------------------------- ~
   Step         Total Energy             Delta E       MAX Force       RMS Force        MAX Disp        RMS Disp  ~
  --------------------------------------------------------------------------------------------------------------- ~
      1    -553.718981233326   -553.718981233326      0.01887884      0.00435902      0.03662284      0.00962358  ~
      2    -553.721743936260     -0.002762702934      0.00409582      0.00121402      0.05055322      0.00961373  ~
      3    -553.722153778959     -0.000409842700      0.00100097      0.00022526      0.02349333      0.00412379  ~
      4    -553.722182359242     -0.000028580282      0.00028897      0.00007293      0.01100516      0.00224386  ~
      5    -553.722188786572     -0.000006427330      0.00021057      0.00004725      0.00279903      0.00089937  ~
      6    -553.722183402040      0.000005384532      0.00019499      0.00003403      0.00125945      0.00035818  ~
      7    -553.722184656149     -0.000001254110      0.00009998      0.00001610      0.00023518      0.00006392  ~
  --------------------------------------------------------------------------------------------------------------- ~

	Writing optimization data to binary file.
	Final energy is   -553.7221846561495
	Final (previous) structure:
	Cartesian Geometry (in Angstrom)
	    C    -1.3004436201   0.6942233660  -0.5613155688
	    C    -0.2677564048   0.1159566707   1.5195903544
	    C    -2.3597708998   1.2730942535   0.1168969625
	    C    -1.3268373822   0.6911229817   2.2060532946
	    C     0.7833044381  -1.6973586230  -1.2602065101
	    C     2.1376924352   0.1336329141  -0.5942945717
	    C     1.8944895688  -2.2219072677  -1.9029920929
	    C     3.1931999913  -0.4677836888  -1.2629004281
	    C    -0.2461214614   0.1000478471   0.1287774600
	    C     0.8919172535  -0.4831562390  -0.5922333861
	    C    -2.3753348320   1.2702600539   1.5044980206
	    N     3.0903843638  -1.6285909274  -1.9142361234
	    O    -3.4439763086   1.8527799891   2.1173825958
	    H    -1.2880057778   0.7044076525  -1.6411624241
	    H     0.5461593537  -0.3327435617   2.0696888916
	    H    -3.1771742205   1.7361876005  -0.4136222189
	    H    -1.3364713015   0.6878974151   3.2873848664
	    H    -0.1576776349  -2.2265727049  -1.2758476811
	    H     2.2778349873   1.0760752044  -0.0863544789
	    H     1.8244438681  -3.1647995616  -2.4271362200
	    H     4.1659717080   0.0036413678  -1.2782191355
	    H    -3.3321905666   1.7864241032   3.0704094782
	Saving final (previous) structure.
			--------------------------
			 OPTKING Finished Execution 
			--------------------------

    Final optimized geometry and variables:
    Molecular point group: c1
    Full point group: C1

    Geometry (in Angstrom), charge = 0, multiplicity = 1:

    C           -1.300443620072     0.694223366042    -0.561315568798
    C           -0.267756404797     0.115956670748     1.519590354436
    C           -2.359770899816     1.273094253511     0.116896962521
    C           -1.326837382233     0.691122981660     2.206053294601
    C            0.783304438133    -1.697358622968    -1.260206510123
    C            2.137692435183     0.133632914139    -0.594294571672
    C            1.894489568812    -2.221907267690    -1.902992092909
    C            3.193199991318    -0.467783688830    -1.262900428092
    C           -0.246121461388     0.100047847083     0.128777459957
    C            0.891917253498    -0.483156238979    -0.592233386138
    C           -2.375334832021     1.270260053852     1.504498020551
    N            3.090384363812    -1.628590927422    -1.914236123352
    O           -3.443976308552     1.852779989061     2.117382595836
    H           -1.288005777806     0.704407652451    -1.641162424082
    H            0.546159353700    -0.332743561692     2.069688891631
    H           -3.177174220549     1.736187600546    -0.413622218885
    H           -1.336471301458     0.687897415129     3.287384866359
    H           -0.157677634935    -2.226572704940    -1.275847681101
    H            2.277834987287     1.076075204430    -0.086354478944
    H            1.824443868113    -3.164799561591    -2.427136219960
    H            4.165971708002     0.003641367822    -1.278219135460
    H           -3.332190566577     1.786424103162     3.070409478224

	Cleaning optimization helper files.

*** Psi4 exiting successfully. Buy a developer a beer!
