
    -----------------------------------------------------------------------
          Psi4: An Open-Source Ab Initio Electronic Structure Package
                               Psi4 1.1 release

                         Git: Rev {HEAD} add49b9 


    R. M. Parrish, L. A. Burns, D. G. A. Smith, A. C. Simmonett,
    A. E. DePrince III, E. G. Hohenstein, U. Bozkaya, A. Yu. Sokolov,
    R. Di Remigio, R. M. Richard, J. F. Gonthier, A. M. James,
    H. R. McAlexander, A. Kumar, M. Saitow, X. Wang, B. P. Pritchard,
    P. Verma, H. F. Schaefer III, K. Patkowski, R. A. King, E. F. Valeev,
    F. A. Evangelista, J. M. Turney, T. D. Crawford, and C. D. Sherrill,
    J. Chem. Theory Comput. in press (2017).
    (doi: 10.1021/acs.jctc.7b00174)

    -----------------------------------------------------------------------


    Psi4 started on: Tuesday, 14 November 2017 04:08AM

    Process ID:  19933
    PSIDATADIR: /cbio/jclab/home/chayas/anaconda/envs/py35/share/psi4
    Memory:     500.0 MiB
    Threads:    8
    
  ==> Input File <==

--------------------------------------------------------------------------

memory 5 Gb

molecule phepyrFOH_anion {
  symmetry C1
  -1 1 
  C      1.885   -1.036   -0.112
  C      0.807   -0.463   0.561
  C      3.946   -2.485   -1.457
  C      5.208   -2.534   0.590
  C      1.800   -1.079   2.676
  C      5.044   -3.052   -2.084
  C      6.249   -3.100   -0.129
  C      2.921   -1.631   0.608
  C      4.038   -2.224   -0.095
  C      0.764   -0.484   1.955
  C      2.878   -1.652   2.002
  N      6.197   -3.368   -1.453
  O      -0.227   0.043   2.574
  F      3.866   -2.220   2.709
  H      1.904   -1.013   -1.200
  H      0.011   -0.007   -0.025
  H      3.051   -2.256   -2.026
  H      5.316   -2.345   1.653
  H      1.791   -1.109   3.764
  H      5.024   -3.274   -3.147
  H      7.182   -3.361   0.359
  units Angstrom
}

dih_string = "1 8 9 3 345"
set optking { opt_coordinates = cartesian
              fixed_dihedral = $dih_string
              dynamic_level = 1
              geom_maxiter = 250
              print_trajectory_xyz_file = True }

optimize('MP2/aug-cc-PVTZ')
--------------------------------------------------------------------------

  Memory set to   4.657 GiB by Python driver.
gradient() will perform analytic gradient computation.

*** tstart() called on gpu-2-9.local
*** at Tue Nov 14 04:08:42 2017

    SCF Algorithm Type (re)set to DF.

*** tstart() called on gpu-2-9.local
*** at Tue Nov 14 04:08:42 2017

   => Loading Basis Set <=

    Name: AUG-CC-PVTZ
    Role: ORBITAL
    Keyword: BASIS
    atoms 1-11  entry C          line   221 file /cbio/jclab/home/chayas/anaconda/envs/py35/share/psi4/basis/aug-cc-pvtz.gbs 
    atoms 12    entry N          line   267 file /cbio/jclab/home/chayas/anaconda/envs/py35/share/psi4/basis/aug-cc-pvtz.gbs 
    atoms 13    entry O          line   313 file /cbio/jclab/home/chayas/anaconda/envs/py35/share/psi4/basis/aug-cc-pvtz.gbs 
    atoms 14    entry F          line   359 file /cbio/jclab/home/chayas/anaconda/envs/py35/share/psi4/basis/aug-cc-pvtz.gbs 
    atoms 15-21 entry H          line    34 file /cbio/jclab/home/chayas/anaconda/envs/py35/share/psi4/basis/aug-cc-pvtz.gbs 


         ---------------------------------------------------------
                                   SCF
            by Justin Turney, Rob Parrish, and Andy Simmonett
                              RHF Reference
                        8 Threads,   4768 MiB Core
         ---------------------------------------------------------

  ==> Geometry <==

    Molecular point group: c1
    Full point group: C1

    Geometry (in Angstrom), charge = -1, multiplicity = 1:

       Center              X                  Y                   Z               Mass       
    ------------   -----------------  -----------------  -----------------  -----------------
           C         -1.345732487671     0.766704093291    -0.781202179516    12.000000000000
           C         -2.423732487671     1.339704093291    -0.108202179516    12.000000000000
           C          0.715267512329    -0.682295906709    -2.126202179516    12.000000000000
           C          1.977267512329    -0.731295906709    -0.079202179516    12.000000000000
           C         -1.430732487671     0.723704093291     2.006797820484    12.000000000000
           C          1.813267512329    -1.249295906709    -2.753202179516    12.000000000000
           C          3.018267512329    -1.297295906709    -0.798202179516    12.000000000000
           C         -0.309732487671     0.171704093291    -0.061202179516    12.000000000000
           C          0.807267512329    -0.421295906709    -0.764202179516    12.000000000000
           C         -2.466732487671     1.318704093291     1.285797820484    12.000000000000
           C         -0.352732487671     0.150704093291     1.332797820484    12.000000000000
           N          2.966267512329    -1.565295906709    -2.122202179516    14.003074004780
           O         -3.457732487671     1.845704093291     1.904797820484    15.994914619560
           F          0.635267512329    -0.417295906709     2.039797820484    18.998403224000
           H         -1.326732487671     0.789704093291    -1.869202179516     1.007825032070
           H         -3.219732487671     1.795704093291    -0.694202179516     1.007825032070
           H         -0.179732487671    -0.453295906709    -2.695202179516     1.007825032070
           H          2.085267512329    -0.542295906709     0.983797820484     1.007825032070
           H         -1.439732487671     0.693704093291     3.094797820484     1.007825032070
           H          1.793267512329    -1.471295906709    -3.816202179516     1.007825032070
           H          3.951267512329    -1.558295906709    -0.310202179516     1.007825032070

  Running in c1 symmetry.

  Rotational constants: A =      0.06334  B =      0.01400  C =      0.01152 [cm^-1]
  Rotational constants: A =   1898.88562  B =    419.56178  C =    345.48300 [MHz]
  Nuclear repulsion =  805.291293509349657

  Charge       = -1
  Multiplicity = 1
  Electrons    = 98
  Nalpha       = 49
  Nbeta        = 49

  ==> Algorithm <==

  SCF Algorithm Type is DF.
  DIIS enabled.
  MOM disabled.
  Fractional occupation disabled.
  Guess Type is SAD.
  Energy threshold   = 1.00e-10
  Density threshold  = 1.00e-10
  Integral threshold = 0.00e+00

  ==> Primary Basis <==

  Basis Set: AUG-CC-PVTZ
    Blend: AUG-CC-PVTZ
    Number of shells: 259
    Number of basis function: 805
    Number of Cartesian functions: 945
    Spherical Harmonics?: true
    Max angular momentum: 3

   => Loading Basis Set <=

    Name: (AUG-CC-PVTZ AUX)
    Role: JKFIT
    Keyword: DF_BASIS_SCF
    atoms 1-11  entry C          line   161 file /cbio/jclab/home/chayas/anaconda/envs/py35/share/psi4/basis/aug-cc-pvtz-jkfit.gbs 
    atoms 12    entry N          line   223 file /cbio/jclab/home/chayas/anaconda/envs/py35/share/psi4/basis/aug-cc-pvtz-jkfit.gbs 
    atoms 13    entry O          line   285 file /cbio/jclab/home/chayas/anaconda/envs/py35/share/psi4/basis/aug-cc-pvtz-jkfit.gbs 
    atoms 14    entry F          line   347 file /cbio/jclab/home/chayas/anaconda/envs/py35/share/psi4/basis/aug-cc-pvtz-jkfit.gbs 
    atoms 15-21 entry H          line    69 file /cbio/jclab/home/chayas/anaconda/envs/py35/share/psi4/basis/aug-cc-pvtz-jkfit.gbs 

  ==> Pre-Iterations <==

   -------------------------------------------------------
    Irrep   Nso     Nmo     Nalpha   Nbeta   Ndocc  Nsocc
   -------------------------------------------------------
     A        805     805       0       0       0       0
   -------------------------------------------------------
    Total     805     805      49      49      49       0
   -------------------------------------------------------

  ==> Integral Setup <==

  ==> DFJK: Density-Fitted J/K Matrices <==

    J tasked:                  Yes
    K tasked:                  Yes
    wK tasked:                  No
    OpenMP threads:              8
    Integrals threads:           8
    Memory (MB):              3576
    Algorithm:                Disk
    Integral Cache:           NONE
    Schwarz Cutoff:          1E-12
    Fitting Condition:       1E-12

   => Auxiliary Basis Set <=

  Basis Set: (AUG-CC-PVTZ AUX)
    Blend: AUG-CC-PVTZ-JKFIT
    Number of shells: 518
    Number of basis function: 1778
    Number of Cartesian functions: 2219
    Spherical Harmonics?: true
    Max angular momentum: 4

  Minimum eigenvalue in the overlap matrix is 6.6218596794E-07.
  Using Symmetric Orthogonalization.

  SCF Guess: Superposition of Atomic Densities via on-the-fly atomic UHF.

  ==> Iterations <==

                           Total Energy        Delta E     RMS |[F,P]|

   @DF-RHF iter   0:  -659.61985772381183   -6.59620e+02   2.37058e-02 
   @DF-RHF iter   1:  -649.10059678688049    1.05193e+01   2.91625e-03 
   @DF-RHF iter   2:  -649.44644430816720   -3.45848e-01   1.78852e-03 DIIS
   @DF-RHF iter   3:  -649.57671263582233   -1.30268e-01   6.14257e-04 DIIS
   @DF-RHF iter   4:  -649.59865979791425   -2.19472e-02   1.52574e-04 DIIS
   @DF-RHF iter   5:  -649.60119911982099   -2.53932e-03   5.56111e-05 DIIS
   @DF-RHF iter   6:  -649.60162803926050   -4.28919e-04   2.61929e-05 DIIS
   @DF-RHF iter   7:  -649.60171335639370   -8.53171e-05   9.54448e-06 DIIS
   @DF-RHF iter   8:  -649.60172868833615   -1.53319e-05   3.64638e-06 DIIS
   @DF-RHF iter   9:  -649.60173249518516   -3.80685e-06   1.88317e-06 DIIS
   @DF-RHF iter  10:  -649.60173374216481   -1.24698e-06   9.31368e-07 DIIS
   @DF-RHF iter  11:  -649.60173406342938   -3.21265e-07   3.60390e-07 DIIS
   @DF-RHF iter  12:  -649.60173409585491   -3.24255e-08   1.16416e-07 DIIS
   @DF-RHF iter  13:  -649.60173409892184   -3.06693e-09   4.69593e-08 DIIS
   @DF-RHF iter  14:  -649.60173409939273   -4.70891e-10   1.83692e-08 DIIS
   @DF-RHF iter  15:  -649.60173409945037   -5.76392e-11   8.26737e-09 DIIS
   @DF-RHF iter  16:  -649.60173409945537   -5.00222e-12   2.73299e-09 DIIS
   @DF-RHF iter  17:  -649.60173409946583   -1.04592e-11   1.36941e-09 DIIS
   @DF-RHF iter  18:  -649.60173409945878    7.04858e-12   6.54221e-10 DIIS
   @DF-RHF iter  19:  -649.60173409944673    1.20508e-11   2.89463e-10 DIIS
   @DF-RHF iter  20:  -649.60173409946174   -1.50067e-11   1.10412e-10 DIIS
   @DF-RHF iter  21:  -649.60173409945457    7.16227e-12   4.54023e-11 DIIS

  ==> Post-Iterations <==

    Orbital Energies (a.u.)
    -----------------------

    Doubly Occupied:                                                      

       1A    -26.196214     2A    -20.310031     3A    -15.444681  
       4A    -11.198000     5A    -11.164551     6A    -11.161188  
       7A    -11.144639     8A    -11.130814     9A    -11.117040  
      10A    -11.113417    11A    -11.107126    12A    -11.087657  
      13A    -11.070788    14A    -11.070730    15A     -1.521003  
      16A     -1.140873    17A     -1.134232    18A     -1.026773  
      19A     -0.964826    20A     -0.919399    21A     -0.880224  
      22A     -0.850347    23A     -0.752556    24A     -0.736350  
      25A     -0.707464    26A     -0.681199    27A     -0.608825  
      28A     -0.598885    29A     -0.585470    30A     -0.571887  
      31A     -0.545845    32A     -0.524281    33A     -0.500807  
      34A     -0.485850    35A     -0.469898    36A     -0.463982  
      37A     -0.432119    38A     -0.417748    39A     -0.405858  
      40A     -0.388721    41A     -0.378444    42A     -0.359467  
      43A     -0.321913    44A     -0.302487    45A     -0.247238  
      46A     -0.238116    47A     -0.228212    48A     -0.206235  
      49A     -0.116923  

    Virtual:                                                              

      50A      0.099021    51A      0.101676    52A      0.114813  
      53A      0.120095    54A      0.127833    55A      0.131346  
      56A      0.135525    57A      0.157931    58A      0.166396  
      59A      0.175796    60A      0.180590    61A      0.183635  
      62A      0.186335    63A      0.190226    64A      0.193177  
      65A      0.197368    66A      0.200422    67A      0.205811  
      68A      0.210975    69A      0.213168    70A      0.218139  
      71A      0.219701    72A      0.220253    73A      0.228358  
      74A      0.230030    75A      0.236501    76A      0.238403  
      77A      0.239539    78A      0.242659    79A      0.248735  
      80A      0.249312    81A      0.258655    82A      0.263993  
      83A      0.268070    84A      0.272411    85A      0.278186  
      86A      0.283210    87A      0.289272    88A      0.292382  
      89A      0.301246    90A      0.310667    91A      0.313974  
      92A      0.316079    93A      0.320419    94A      0.326594  
      95A      0.326836    96A      0.330242    97A      0.333230  
      98A      0.337639    99A      0.342494   100A      0.344559  
     101A      0.347310   102A      0.356797   103A      0.360659  
     104A      0.367679   105A      0.370384   106A      0.379274  
     107A      0.382303   108A      0.385398   109A      0.388475  
     110A      0.390489   111A      0.398227   112A      0.401409  
     113A      0.410174   114A      0.412286   115A      0.416770  
     116A      0.423882   117A      0.425557   118A      0.428108  
     119A      0.432218   120A      0.439551   121A      0.445060  
     122A      0.450768   123A      0.452707   124A      0.457449  
     125A      0.470844   126A      0.476625   127A      0.480324  
     128A      0.482575   129A      0.484993   130A      0.491633  
     131A      0.497282   132A      0.510533   133A      0.515731  
     134A      0.518233   135A      0.522891   136A      0.531227  
     137A      0.535345   138A      0.540356   139A      0.542524  
     140A      0.549972   141A      0.553887   142A      0.557000  
     143A      0.559221   144A      0.564219   145A      0.566477  
     146A      0.571620   147A      0.573678   148A      0.576110  
     149A      0.582090   150A      0.589416   151A      0.590740  
     152A      0.591147   153A      0.593597   154A      0.598160  
     155A      0.603211   156A      0.608335   157A      0.609455  
     158A      0.610582   159A      0.616351   160A      0.620064  
     161A      0.621103   162A      0.629576   163A      0.633815  
     164A      0.637397   165A      0.640412   166A      0.646978  
     167A      0.652898   168A      0.654538   169A      0.661256  
     170A      0.665446   171A      0.667830   172A      0.675626  
     173A      0.677888   174A      0.683477   175A      0.692066  
     176A      0.697210   177A      0.699336   178A      0.706201  
     179A      0.711321   180A      0.716221   181A      0.721694  
     182A      0.727646   183A      0.730496   184A      0.739132  
     185A      0.742670   186A      0.755129   187A      0.757469  
     188A      0.762317   189A      0.773011   190A      0.778581  
     191A      0.791672   192A      0.795276   193A      0.800853  
     194A      0.806830   195A      0.811009   196A      0.815316  
     197A      0.819556   198A      0.824375   199A      0.826102  
     200A      0.830494   201A      0.836850   202A      0.854828  
     203A      0.855087   204A      0.857393   205A      0.860952  
     206A      0.868386   207A      0.872521   208A      0.878032  
     209A      0.883600   210A      0.890039   211A      0.900111  
     212A      0.904355   213A      0.913986   214A      0.920163  
     215A      0.932530   216A      0.937235   217A      0.940210  
     218A      0.944730   219A      0.954835   220A      0.958439  
     221A      0.964035   222A      0.971689   223A      0.979291  
     224A      0.993337   225A      0.996899   226A      0.997113  
     227A      1.001254   228A      1.006586   229A      1.009218  
     230A      1.012220   231A      1.018434   232A      1.020503  
     233A      1.024457   234A      1.028484   235A      1.037844  
     236A      1.044065   237A      1.050037   238A      1.056672  
     239A      1.057612   240A      1.058475   241A      1.065549  
     242A      1.069847   243A      1.078508   244A      1.082671  
     245A      1.085449   246A      1.090438   247A      1.094595  
     248A      1.096679   249A      1.101072   250A      1.105106  
     251A      1.110105   252A      1.114645   253A      1.116828  
     254A      1.120180   255A      1.125416   256A      1.128215  
     257A      1.133879   258A      1.135382   259A      1.140391  
     260A      1.147996   261A      1.150379   262A      1.157116  
     263A      1.158800   264A      1.162313   265A      1.167966  
     266A      1.171755   267A      1.183071   268A      1.187038  
     269A      1.190730   270A      1.201135   271A      1.201313  
     272A      1.210739   273A      1.218730   274A      1.219083  
     275A      1.229824   276A      1.232627   277A      1.233792  
     278A      1.244376   279A      1.248537   280A      1.252680  
     281A      1.260120   282A      1.260977   283A      1.269854  
     284A      1.274764   285A      1.283641   286A      1.288454  
     287A      1.289758   288A      1.292594   289A      1.301098  
     290A      1.309263   291A      1.312863   292A      1.316435  
     293A      1.318645   294A      1.322412   295A      1.329250  
     296A      1.330735   297A      1.338150   298A      1.341850  
     299A      1.346280   300A      1.348186   301A      1.357134  
     302A      1.366437   303A      1.373111   304A      1.377164  
     305A      1.379281   306A      1.386258   307A      1.393684  
     308A      1.401390   309A      1.405900   310A      1.418094  
     311A      1.422200   312A      1.426491   313A      1.434595  
     314A      1.438890   315A      1.446569   316A      1.451967  
     317A      1.458785   318A      1.463089   319A      1.476081  
     320A      1.484662   321A      1.489848   322A      1.495305  
     323A      1.501829   324A      1.507839   325A      1.513551  
     326A      1.523510   327A      1.533879   328A      1.537041  
     329A      1.548554   330A      1.554876   331A      1.558305  
     332A      1.574357   333A      1.577430   334A      1.592993  
     335A      1.610628   336A      1.614531   337A      1.622149  
     338A      1.627694   339A      1.635095   340A      1.640648  
     341A      1.643341   342A      1.653100   343A      1.674371  
     344A      1.685917   345A      1.688509   346A      1.702757  
     347A      1.707832   348A      1.713241   349A      1.730193  
     350A      1.736287   351A      1.743516   352A      1.746137  
     353A      1.760079   354A      1.768538   355A      1.773234  
     356A      1.782922   357A      1.784905   358A      1.795143  
     359A      1.801056   360A      1.814309   361A      1.816946  
     362A      1.826987   363A      1.830006   364A      1.835289  
     365A      1.838532   366A      1.846036   367A      1.848574  
     368A      1.865987   369A      1.873131   370A      1.886349  
     371A      1.894644   372A      1.905611   373A      1.921707  
     374A      1.922659   375A      1.930974   376A      1.934769  
     377A      1.940864   378A      1.944028   379A      1.951038  
     380A      1.966789   381A      1.971534   382A      1.974455  
     383A      2.002551   384A      2.008514   385A      2.013987  
     386A      2.021592   387A      2.029147   388A      2.039704  
     389A      2.043515   390A      2.053535   391A      2.063004  
     392A      2.067248   393A      2.081247   394A      2.090950  
     395A      2.095436   396A      2.098080   397A      2.108927  
     398A      2.115552   399A      2.121090   400A      2.126412  
     401A      2.132339   402A      2.139115   403A      2.144010  
     404A      2.148747   405A      2.156388   406A      2.160562  
     407A      2.168910   408A      2.176753   409A      2.185117  
     410A      2.193516   411A      2.196257   412A      2.206852  
     413A      2.212706   414A      2.221581   415A      2.229760  
     416A      2.231069   417A      2.238959   418A      2.251686  
     419A      2.257050   420A      2.282437   421A      2.290712  
     422A      2.295419   423A      2.300105   424A      2.306587  
     425A      2.314577   426A      2.316256   427A      2.327061  
     428A      2.330218   429A      2.334495   430A      2.348446  
     431A      2.358385   432A      2.367318   433A      2.375439  
     434A      2.384840   435A      2.404137   436A      2.416368  
     437A      2.419898   438A      2.428167   439A      2.434682  
     440A      2.442623   441A      2.456077   442A      2.465982  
     443A      2.480460   444A      2.491777   445A      2.495676  
     446A      2.500990   447A      2.517763   448A      2.529153  
     449A      2.542849   450A      2.548922   451A      2.567508  
     452A      2.578855   453A      2.582473   454A      2.589704  
     455A      2.600531   456A      2.609108   457A      2.614908  
     458A      2.626262   459A      2.638724   460A      2.653782  
     461A      2.659321   462A      2.681052   463A      2.688668  
     464A      2.705633   465A      2.716032   466A      2.725939  
     467A      2.731912   468A      2.749907   469A      2.771546  
     470A      2.776538   471A      2.791862   472A      2.825026  
     473A      2.831928   474A      2.845613   475A      2.847206  
     476A      2.865234   477A      2.893521   478A      2.899353  
     479A      2.919212   480A      2.925445   481A      2.939926  
     482A      2.957461   483A      2.963888   484A      2.998750  
     485A      3.004202   486A      3.029169   487A      3.037072  
     488A      3.048083   489A      3.090030   490A      3.115382  
     491A      3.132021   492A      3.154764   493A      3.165860  
     494A      3.180179   495A      3.201774   496A      3.204741  
     497A      3.209932   498A      3.227893   499A      3.248601  
     500A      3.252478   501A      3.280675   502A      3.303001  
     503A      3.315040   504A      3.335745   505A      3.351213  
     506A      3.351618   507A      3.357059   508A      3.369260  
     509A      3.386802   510A      3.400482   511A      3.408677  
     512A      3.441858   513A      3.454747   514A      3.458554  
     515A      3.470704   516A      3.474765   517A      3.486420  
     518A      3.496381   519A      3.508742   520A      3.513778  
     521A      3.517174   522A      3.529588   523A      3.537800  
     524A      3.549306   525A      3.564749   526A      3.565901  
     527A      3.581678   528A      3.586159   529A      3.608036  
     530A      3.610333   531A      3.623520   532A      3.629606  
     533A      3.637552   534A      3.643153   535A      3.651810  
     536A      3.662911   537A      3.670156   538A      3.674591  
     539A      3.689829   540A      3.696301   541A      3.699912  
     542A      3.706489   543A      3.721265   544A      3.734338  
     545A      3.742086   546A      3.755755   547A      3.763125  
     548A      3.769166   549A      3.776716   550A      3.783787  
     551A      3.798901   552A      3.805120   553A      3.812429  
     554A      3.819301   555A      3.822119   556A      3.832680  
     557A      3.842950   558A      3.851461   559A      3.859009  
     560A      3.880434   561A      3.886201   562A      3.890958  
     563A      3.909211   564A      3.916611   565A      3.919508  
     566A      3.920796   567A      3.936168   568A      3.942025  
     569A      3.952022   570A      3.962671   571A      3.968243  
     572A      3.982923   573A      3.985271   574A      3.995708  
     575A      4.004733   576A      4.014403   577A      4.025519  
     578A      4.036281   579A      4.050180   580A      4.058532  
     581A      4.064365   582A      4.067509   583A      4.074250  
     584A      4.086553   585A      4.089728   586A      4.095901  
     587A      4.106310   588A      4.118388   589A      4.125533  
     590A      4.129326   591A      4.142443   592A      4.148118  
     593A      4.151947   594A      4.158320   595A      4.171605  
     596A      4.187377   597A      4.191450   598A      4.202427  
     599A      4.205966   600A      4.217552   601A      4.236597  
     602A      4.240635   603A      4.264713   604A      4.278655  
     605A      4.282705   606A      4.285988   607A      4.304266  
     608A      4.315872   609A      4.316602   610A      4.327268  
     611A      4.342047   612A      4.344569   613A      4.354773  
     614A      4.367223   615A      4.373605   616A      4.382635  
     617A      4.390918   618A      4.403201   619A      4.410707  
     620A      4.420906   621A      4.426192   622A      4.431442  
     623A      4.444878   624A      4.464879   625A      4.469147  
     626A      4.477726   627A      4.479628   628A      4.497910  
     629A      4.498267   630A      4.508337   631A      4.509794  
     632A      4.521374   633A      4.529772   634A      4.539366  
     635A      4.548717   636A      4.557010   637A      4.576784  
     638A      4.584632   639A      4.602733   640A      4.607507  
     641A      4.623976   642A      4.631270   643A      4.648551  
     644A      4.659908   645A      4.664164   646A      4.671922  
     647A      4.684700   648A      4.695084   649A      4.722540  
     650A      4.725997   651A      4.741673   652A      4.751936  
     653A      4.762672   654A      4.766856   655A      4.777010  
     656A      4.783728   657A      4.808978   658A      4.815376  
     659A      4.839257   660A      4.859857   661A      4.871677  
     662A      4.889739   663A      4.911519   664A      4.916644  
     665A      4.926596   666A      4.932804   667A      4.954057  
     668A      4.963976   669A      4.990763   670A      4.994831  
     671A      5.001550   672A      5.016864   673A      5.042796  
     674A      5.058213   675A      5.079359   676A      5.092337  
     677A      5.096329   678A      5.113527   679A      5.114101  
     680A      5.132305   681A      5.138039   682A      5.160809  
     683A      5.176663   684A      5.182620   685A      5.196983  
     686A      5.204194   687A      5.227276   688A      5.236336  
     689A      5.248062   690A      5.262255   691A      5.271166  
     692A      5.279158   693A      5.284784   694A      5.286964  
     695A      5.302372   696A      5.308873   697A      5.328351  
     698A      5.337899   699A      5.354196   700A      5.364649  
     701A      5.381058   702A      5.390623   703A      5.428748  
     704A      5.447823   705A      5.455602   706A      5.474038  
     707A      5.482496   708A      5.512536   709A      5.537543  
     710A      5.556615   711A      5.570912   712A      5.575154  
     713A      5.586428   714A      5.621651   715A      5.649623  
     716A      5.676410   717A      5.686649   718A      5.698776  
     719A      5.714666   720A      5.746360   721A      5.770317  
     722A      5.793721   723A      5.823919   724A      5.855044  
     725A      5.861474   726A      5.891788   727A      5.913126  
     728A      5.930817   729A      5.958911   730A      5.969608  
     731A      5.975647   732A      5.995349   733A      6.010557  
     734A      6.028556   735A      6.079563   736A      6.115450  
     737A      6.143032   738A      6.199840   739A      6.263590  
     740A      6.292186   741A      6.321099   742A      6.356467  
     743A      6.390064   744A      6.396226   745A      6.441427  
     746A      6.493790   747A      6.542440   748A      6.581669  
     749A      6.591115   750A      6.623190   751A      6.704757  
     752A      6.714584   753A      6.767952   754A      6.807269  
     755A      6.840953   756A      6.853224   757A      6.865917  
     758A      6.889098   759A      6.909099   760A      6.982582  
     761A      7.001374   762A      7.038092   763A      7.071778  
     764A      7.091872   765A      7.177940   766A      7.196014  
     767A      7.216882   768A      7.297254   769A      7.336617  
     770A      7.346810   771A      7.560817   772A      7.601049  
     773A      7.620567   774A      7.635429   775A      7.919955  
     776A      7.924004   777A      8.015128   778A      8.136745  
     779A      8.209565   780A      9.273672   781A      9.338487  
     782A      9.431737   783A      9.483256   784A      9.564952  
     785A      9.678404   786A      9.692315   787A      9.751441  
     788A      9.840084   789A      9.873210   790A     10.221683  
     791A     10.239865   792A     15.702517   793A     16.043429  
     794A     16.452302   795A     16.980315   796A     17.127622  
     797A     17.399061   798A     18.664033   799A     19.087147  
     800A     19.814711   801A     20.153816   802A     20.543897  
     803A     20.675623   804A     21.021549   805A     21.456718  

    Final Occupation by Irrep:
              A 
    DOCC [    49 ]

  Energy converged.

  @DF-RHF Final Energy:  -649.60173409945457

   => Energetics <=

    Nuclear Repulsion Energy =            805.2912935093496571
    One-Electron Energy =               -2499.7233951935727418
    Two-Electron Energy =                1044.8303675847685099
    DFT Exchange-Correlation Energy =       0.0000000000000000
    Empirical Dispersion Energy =           0.0000000000000000
    PCM Polarization Energy =               0.0000000000000000
    EFP Energy =                            0.0000000000000000
    Total Energy =                       -649.6017340994546885



Properties will be evaluated at   0.000000,   0.000000,   0.000000 Bohr

Properties computed using the SCF density matrix

  Nuclear Dipole Moment: (a.u.)
     X:     0.9353      Y:    -0.2923      Z:    -6.8835

  Electronic Dipole Moment: (a.u.)
     X:     1.3975      Y:    -0.9410      Z:     5.3872

  Dipole Moment: (a.u.)
     X:     2.3328      Y:    -1.2333      Z:    -1.4963     Total:     3.0335

  Dipole Moment: (Debye)
     X:     5.9294      Y:    -3.1348      Z:    -3.8033     Total:     7.7104


*** tstop() called on gpu-2-9.local at Tue Nov 14 04:16:19 2017
Module time:
	user time   =    1143.20 seconds =      19.05 minutes
	system time =      49.60 seconds =       0.83 minutes
	total time  =        457 seconds =       7.62 minutes
Total time:
	user time   =    1143.21 seconds =      19.05 minutes
	system time =      49.60 seconds =       0.83 minutes
	total time  =        457 seconds =       7.62 minutes

  //>>>>>>>>>>>>>>>>>>>>>>>>>>>>>>>>>>>//
  //               DFMP2               //
  //<<<<<<<<<<<<<<<<<<<<<<<<<<<<<<<<<<<//

   => Loading Basis Set <=

    Name: (AUG-CC-PVTZ AUX)
    Role: RIFIT
    Keyword: DF_BASIS_MP2
    atoms 1-11  entry C          line   147 file /cbio/jclab/home/chayas/anaconda/envs/py35/share/psi4/basis/aug-cc-pvtz-ri.gbs 
    atoms 12    entry N          line   205 file /cbio/jclab/home/chayas/anaconda/envs/py35/share/psi4/basis/aug-cc-pvtz-ri.gbs 
    atoms 13    entry O          line   263 file /cbio/jclab/home/chayas/anaconda/envs/py35/share/psi4/basis/aug-cc-pvtz-ri.gbs 
    atoms 14    entry F          line   321 file /cbio/jclab/home/chayas/anaconda/envs/py35/share/psi4/basis/aug-cc-pvtz-ri.gbs 
    atoms 15-21 entry H          line    29 file /cbio/jclab/home/chayas/anaconda/envs/py35/share/psi4/basis/aug-cc-pvtz-ri.gbs 

	 --------------------------------------------------------
	                          DF-MP2                         
	      2nd-Order Density-Fitted Moller-Plesset Theory     
	              RMP2 Wavefunction,   8 Threads             
	                                                         
	        Rob Parrish, Justin Turney, Andy Simmonett,      
	           Ed Hohenstein, and C. David Sherrill          
	 --------------------------------------------------------

   => Auxiliary Basis Set <=

  Basis Set: (AUG-CC-PVTZ AUX)
    Blend: AUG-CC-PVTZ-RI
    Number of shells: 490
    Number of basis function: 1806
    Number of Cartesian functions: 2289
    Spherical Harmonics?: true
    Max angular momentum: 4

	 --------------------------------------------------------
	                 NBF =   805, NAUX =  1806
	 --------------------------------------------------------
	   CLASS    FOCC     OCC    AOCC    AVIR     VIR    FVIR
	   PAIRS       0      49      49     756     756       0
	 --------------------------------------------------------


         ------------------------------------------------------------
                                     CPHF                           
                                  Rob Parrish                       
         ------------------------------------------------------------

  ==> Geometry <==

    Molecular point group: c1
    Full point group: C1

    Geometry (in Angstrom), charge = -1, multiplicity = 1:

       Center              X                  Y                   Z               Mass       
    ------------   -----------------  -----------------  -----------------  -----------------
           C         -1.345732487671     0.766704093291    -0.781202179516    12.000000000000
           C         -2.423732487671     1.339704093291    -0.108202179516    12.000000000000
           C          0.715267512329    -0.682295906709    -2.126202179516    12.000000000000
           C          1.977267512329    -0.731295906709    -0.079202179516    12.000000000000
           C         -1.430732487671     0.723704093291     2.006797820484    12.000000000000
           C          1.813267512329    -1.249295906709    -2.753202179516    12.000000000000
           C          3.018267512329    -1.297295906709    -0.798202179516    12.000000000000
           C         -0.309732487671     0.171704093291    -0.061202179516    12.000000000000
           C          0.807267512329    -0.421295906709    -0.764202179516    12.000000000000
           C         -2.466732487671     1.318704093291     1.285797820484    12.000000000000
           C         -0.352732487671     0.150704093291     1.332797820484    12.000000000000
           N          2.966267512329    -1.565295906709    -2.122202179516    14.003074004780
           O         -3.457732487671     1.845704093291     1.904797820484    15.994914619560
           F          0.635267512329    -0.417295906709     2.039797820484    18.998403224000
           H         -1.326732487671     0.789704093291    -1.869202179516     1.007825032070
           H         -3.219732487671     1.795704093291    -0.694202179516     1.007825032070
           H         -0.179732487671    -0.453295906709    -2.695202179516     1.007825032070
           H          2.085267512329    -0.542295906709     0.983797820484     1.007825032070
           H         -1.439732487671     0.693704093291     3.094797820484     1.007825032070
           H          1.793267512329    -1.471295906709    -3.816202179516     1.007825032070
           H          3.951267512329    -1.558295906709    -0.310202179516     1.007825032070

  Nuclear repulsion =  805.291293509349657
  Reference energy  = -649.601734099454575

  ==> Basis Set <==

  Basis Set: AUG-CC-PVTZ
    Blend: AUG-CC-PVTZ
    Number of shells: 259
    Number of basis function: 805
    Number of Cartesian functions: 945
    Spherical Harmonics?: true
    Max angular momentum: 3

  ==> CGRSolver (by Rob Parrish) <==

   Number of roots    =         1
   Preconditioning    =    JACOBI
   Convergence cutoff =     1E-06
   Maximum iterations =       100

  ==> CPHFRHamiltonian (by Rob Parrish) <== 

  ==> DFJK: Density-Fitted J/K Matrices <==

    J tasked:                  Yes
    K tasked:                  Yes
    wK tasked:                  No
    OpenMP threads:              8
    Integrals threads:           8
    Memory (MB):              3576
    Algorithm:                Disk
    Integral Cache:           NONE
    Schwarz Cutoff:          1E-12
    Fitting Condition:       1E-12

   => Auxiliary Basis Set <=

  Basis Set: (AUG-CC-PVTZ AUX)
    Blend: AUG-CC-PVTZ-JKFIT
    Number of shells: 518
    Number of basis function: 1778
    Number of Cartesian functions: 2219
    Spherical Harmonics?: true
    Max angular momentum: 4

  ==> CPHF Iterations <==

  => Iterations <=

             Iter  Converged  Remaining    Residual
  CGR           1          0          1   1.356E-01
  CGR           2          0          1   5.095E-02
  CGR           3          0          1   3.073E-02
  CGR           4          0          1   1.151E-02
  CGR           5          0          1   5.489E-03
  CGR           6          0          1   2.757E-03
  CGR           7          0          1   1.078E-03
  CGR           8          0          1   4.125E-04
  CGR           9          0          1   1.340E-04
  CGR          10          0          1   3.859E-05
  CGR          11          0          1   1.458E-05
  CGR          12          0          1   3.694E-06
  CGR          13          0          1   1.443E-06
  CGR          14          1          0   7.146E-07

    CGRSolver converged.

  ==> DFCorrGrad: Density-Fitted Correlated Gradients <==

    OpenMP threads:              8
    Integrals threads:           8
    Memory (MB):              3576
    Schwarz Cutoff:          0E+00
    Fitting Condition:       1E-12

   => Auxiliary Basis Set <=

  Basis Set: (AUG-CC-PVTZ AUX)
    Blend: AUG-CC-PVTZ-JKFIT
    Number of shells: 518
    Number of basis function: 1778
    Number of Cartesian functions: 2219
    Spherical Harmonics?: true
    Max angular momentum: 4

	-----------------------------------------------------------
	 ==================> DF-MP2 Energies <==================== 
	-----------------------------------------------------------
	 Reference Energy          =    -649.6017340994545748 [Eh]
	 Singles Energy            =      -0.0000000000000001 [Eh]
	 Same-Spin Energy          =      -0.6876375509287610 [Eh]
	 Opposite-Spin Energy      =      -2.0283579482335528 [Eh]
	 Correlation Energy        =      -2.7159954991623136 [Eh]
	 Total Energy              =    -652.3177295986168929 [Eh]
	-----------------------------------------------------------
	 ================> DF-SCS-MP2 Energies <================== 
	-----------------------------------------------------------
	 SCS Same-Spin Scale       =       0.3333333333333333 [-]
	 SCS Opposite-Spin Scale   =       1.2000000000000000 [-]
	 SCS Same-Spin Energy      =      -0.2292125169762537 [Eh]
	 SCS Opposite-Spin Energy  =      -2.4340295378802632 [Eh]
	 SCS Correlation Energy    =      -2.6632420548565170 [Eh]
	 SCS Total Energy          =    -652.2649761543110571 [Eh]
	-----------------------------------------------------------


  -Total Gradient:
     Atom            X                  Y                   Z
    ------   -----------------  -----------------  -----------------
       1        0.024476202699    -0.010619740354    -0.013876754328
       2       -0.023698755643     0.011804839129     0.043249870110
       3       -0.015818348629     0.007164326706     0.010174369518
       4       -0.023639656971     0.009333534890     0.009663404521
       5       -0.045476019540     0.025424952097    -0.002415286165
       6       -0.007875681403     0.001320285615    -0.003993354335
       7        0.002557263793     0.001427399258     0.011930962649
       8       -0.026378375273     0.013865518849     0.011348052305
       9        0.023175913239    -0.011559252387    -0.015734428335
      10        0.049212557794    -0.025654119806    -0.030923265000
      11        0.045436053320    -0.028459622638     0.001124706539
      12        0.005569935215    -0.002333624176    -0.003612668178
      13       -0.004027236824     0.002024855823     0.001465758674
      14        0.003246628149     0.005258769728    -0.019796481114
      15       -0.001185271960    -0.000836766853    -0.007750854501
      16       -0.002157496331     0.000951174994    -0.008952085199
      17       -0.005312265845     0.003080520090    -0.003477998977
      18       -0.004174209674     0.001381920261     0.016500126760
      19        0.003857842787    -0.002141245198     0.007038336716
      20        0.000790866999    -0.000614129605    -0.002128140936
      21        0.001420054091    -0.000819596425     0.000165729272


*** tstop() called on gpu-2-9.local at Tue Nov 14 04:51:36 2017
Module time:
	user time   =    5665.24 seconds =      94.42 minutes
	system time =     106.26 seconds =       1.77 minutes
	total time  =       2574 seconds =      42.90 minutes
Total time:
	user time   =    5665.25 seconds =      94.42 minutes
	system time =     106.26 seconds =       1.77 minutes
	total time  =       2574 seconds =      42.90 minutes

			-----------------------------------------
			 OPTKING 2.0: for geometry optimizations 
			  - R.A. King,  Bethel University        
			-----------------------------------------
	At level 1: Red. Int., RFO, no backsteps, dynamic trust

	Internal coordinates to be generated automatically.
	Detected frag 1 with atoms:  1 2 3 4 5 6 7 8 9 10 11 12 13 14 15 16 17 18 19 20
	 21
	---Fragment 1 Bond Connectivity---
	 1 : 2 8 15
	 2 : 1 10 16
	 3 : 6 9 17
	 4 : 7 9 18
	 5 : 10 11 19
	 6 : 3 12 20
	 7 : 4 12 21
	 8 : 1 9 11
	 9 : 3 4 8
	 10 : 2 5 13
	 11 : 5 8 14
	 12 : 6 7
	 13 : 10
	 14 : 11
	 15 : 1
	 16 : 2
	 17 : 3
	 18 : 4
	 19 : 5
	 20 : 6
	 21 : 7

	Assuming in current code that numbering for constraints corresponds to unified fragment.
	Fixed dihedral atom list: 
	     1     8     9     3
	---Fragment 1 Geometry and Gradient---
	 C          -2.5430658498        1.4488607613       -1.4762581737
	 C          -4.5801906211        2.5316738354       -0.2044724863
	 C           1.3516597101       -1.2893524053       -4.0179398224
	 C           3.7364940898       -1.3819489858       -0.1496704284
	 C          -2.7036925711        1.3676025376        3.7922982848
	 C           3.4265790040       -2.3608271226       -5.2027981077
	 C           5.7036989941       -2.4515339770       -1.5083835180
	 C          -0.5853095762        0.3244737122       -0.1156553580
	 C           1.5255145143       -0.7961338846       -1.4441328294
	 C          -4.6614488448        2.4919895866        2.4298057430
	 C          -0.6665677999        0.2847894634        2.5186228712
	 N           5.6054332352       -2.9579805806       -4.0103809179
	 O          -6.5341674425        3.4878752587        3.5995462192
	 F           1.2004816194       -0.7885749801        3.8546592472
	 H          -2.5071610533        1.4923244623       -3.5322802063
	 H          -6.0844126229        3.3933889520       -1.3118520001
	 H          -0.3396451789       -0.8566051208       -5.0931939920
	 H           3.9405845121       -1.0247907467        1.8591084508
	 H          -2.7207001063        1.3109107536        5.8483203174
	 H           3.3887844813       -2.7803463241       -7.2115769870
	 H           7.4668134761       -2.9447524977       -0.5861971651
	             0.0244762027       -0.0106197404       -0.0138767543
	            -0.0236987556        0.0118048391        0.0432498701
	            -0.0158183486        0.0071643267        0.0101743695
	            -0.0236396570        0.0093335349        0.0096634045
	            -0.0454760195        0.0254249521       -0.0024152862
	            -0.0078756814        0.0013202856       -0.0039933543
	             0.0025572638        0.0014273993        0.0119309626
	            -0.0263783753        0.0138655188        0.0113480523
	             0.0231759132       -0.0115592524       -0.0157344283
	             0.0492125578       -0.0256541198       -0.0309232650
	             0.0454360533       -0.0284596226        0.0011247065
	             0.0055699352       -0.0023336242       -0.0036126682
	            -0.0040272368        0.0020248558        0.0014657587
	             0.0032466281        0.0052587697       -0.0197964811
	            -0.0011852720       -0.0008367669       -0.0077508545
	            -0.0021574963        0.0009511750       -0.0089520852
	            -0.0053122658        0.0030805201       -0.0034779990
	            -0.0041742097        0.0013819203        0.0165001268
	             0.0038578428       -0.0021412452        0.0070383367
	             0.0007908670       -0.0006141296       -0.0021281409
	             0.0014200541       -0.0008195964        0.0001657293

	Previous optimization step data not found.  Starting new optimization.

	---Fragment 1 Intrafragment Coordinates---
	 - Coordinate -           - BOHR/RAD -       - ANG/DEG -
	 R(1,2)           =         2.634350	       1.394038
	 R(1,8)           =         2.635962	       1.394891
	 R(1,15)          =         2.056795	       1.088409
	 R(2,10)          =         2.635830	       1.394821
	 R(2,16)          =         2.057067	       1.088553
	 R(3,6)           =         2.618633	       1.385721
	 R(3,9)           =         2.626399	       1.389831
	 R(3,17)          =         2.050355	       1.085001
	 R(4,7)           =         2.619162	       1.386001
	 R(4,9)           =         2.628163	       1.390764
	 R(4,18)          =         2.050465	       1.085059
	 R(5,10)          =         2.636938	       1.395407
	 R(5,11)          =         2.635263	       1.394521
	 R(5,19)          =         2.056874	       1.088451
	 R(6,12)          =         2.554576	       1.351823
	 R(6,20)          =         2.052466	       1.086118
	 R(7,12)          =         2.554630	       1.351852
	 R(7,21)          =         2.049943	       1.084783
	 R(8,9)           =         2.734263	       1.446909
	 R(8,11)          =         2.635830	       1.394821
	 R(10,13)         =         2.422221	       1.281784
	 R(11,14)         =         2.534359	       1.341125
	 B(1,2,10)        =         2.094553	     120.009056
	 B(1,2,16)        =         2.068903	     118.539404
	 B(1,8,9)         =         2.091392	     119.827938
	 B(1,8,11)        =         2.093692	     119.959722
	 B(2,1,8)         =         2.094940	     120.031219
	 B(2,1,15)        =         2.079908	     119.169966
	 B(2,10,5)        =         2.094306	     119.994870
	 B(2,10,13)       =         2.094719	     120.018581
	 B(3,6,12)        =         2.165510	     124.074602
	 B(3,6,20)        =         2.108173	     120.789429
	 B(3,9,4)         =         2.090360	     119.768778
	 B(3,9,8)         =         2.096702	     120.132196
	 B(4,7,12)        =         2.165348	     124.065319
	 B(4,7,21)        =         2.107000	     120.722191
	 B(4,9,8)         =         2.096123	     120.099013
	 B(5,10,13)       =         2.094160	     119.986548
	 B(5,11,8)        =         2.095181	     120.045019
	 B(5,11,14)       =         2.081414	     119.256220
	 B(6,3,9)         =         2.057597	     117.891618
	 B(6,3,17)        =         2.097497	     120.177751
	 B(6,12,7)        =         2.030438	     116.335500
	 B(7,4,9)         =         2.057117	     117.864133
	 B(7,4,18)        =         2.099698	     120.303855
	 B(8,1,15)        =         2.108336	     120.798746
	 B(8,11,14)       =         2.106591	     120.698759
	 B(9,3,17)        =         2.128089	     121.930492
	 B(9,4,18)        =         2.126369	     121.831998
	 B(9,8,11)        =         2.098101	     120.212327
	 B(10,2,16)       =         2.119728	     121.451467
	 B(10,5,11)       =         2.093699	     119.960108
	 B(10,5,19)       =         2.120101	     121.472852
	 B(11,5,19)       =         2.069385	     118.567038
	 B(12,6,20)       =         2.009502	     115.135964
	 B(12,7,21)       =         2.010837	     115.212485
	 D(1,2,10,5)      =        -0.000325	      -0.018609
	 D(1,2,10,13)     =         3.141392	     179.988520
	 D(1,8,9,3)       =        -0.262539	     -15.042386
	 D(1,8,9,4)       =         2.878312	     164.915146
	 D(1,8,11,5)      =         0.000325	       0.018608
	 D(1,8,11,14)     =        -3.141528	    -179.996269
	 D(2,1,8,9)       =        -3.141211	    -179.978157
	 D(2,1,8,11)      =        -0.000348	      -0.019945
	 D(2,10,5,11)     =         0.000301	       0.017261
	 D(2,10,5,19)     =        -3.141543	    -179.997173
	 D(3,6,12,7)      =        -0.001145	      -0.065610
	 D(3,9,4,7)       =        -0.000273	      -0.015640
	 D(3,9,4,18)      =        -3.141109	    -179.972283
	 D(3,9,8,11)      =         2.879785	     164.999508
	 D(4,7,12,6)      =         0.000053	       0.003032
	 D(4,9,3,6)       =        -0.000704	      -0.040364
	 D(4,9,3,17)      =        -3.139927	    -179.904581
	 D(4,9,8,11)      =        -0.262549	     -15.042960
	 D(5,10,2,16)     =         3.139529	     179.881752
	 D(5,11,8,9)      =         3.141185	     179.976658
	 D(6,3,9,8)       =         3.140149	     179.917309
	 D(6,12,7,21)     =         3.141248	     179.980249
	 D(7,4,9,8)       =        -3.141127	    -179.973327
	 D(7,12,6,20)     =         3.139994	     179.908423
	 D(8,1,2,10)      =         0.000348	       0.019955
	 D(8,1,2,16)      =        -3.139556	    -179.883288
	 D(8,9,3,17)      =         0.000927	       0.053091
	 D(8,9,4,18)      =         0.001222	       0.070030
	 D(8,11,5,10)     =        -0.000301	      -0.017270
	 D(8,11,5,19)     =         3.141536	     179.996748
	 D(9,3,6,12)      =         0.001480	       0.084799
	 D(9,3,6,20)      =        -3.139635	    -179.887837
	 D(9,4,7,12)      =         0.000631	       0.036136
	 D(9,4,7,21)      =        -3.140543	    -179.939887
	 D(9,8,1,15)      =         0.002066	       0.118384
	 D(9,8,11,14)     =        -0.000667	      -0.038219
	 D(10,2,1,15)     =         3.140283	     179.924984
	 D(10,5,11,14)    =         3.141547	     179.997392
	 D(11,5,10,13)    =        -3.141416	    -179.989865
	 D(11,8,1,15)     =        -3.140256	    -179.923403
	 D(12,6,3,17)     =         3.140746	     179.951494
	 D(12,7,4,18)     =         3.141479	     179.993470
	 D(13,10,2,16)    =        -0.001939	      -0.111119
	 D(13,10,5,19)    =        -0.000075	      -0.004300
	 D(14,11,5,19)    =         0.000199	       0.011410
	 D(15,1,2,16)     =         0.000379	       0.021741
	 D(17,3,6,20)     =        -0.000369	      -0.021141
	 D(18,4,7,21)     =         0.000305	       0.017447
	 R(4,14)          =         4.776830	       2.527790

	Current energy   :      -652.3177295986

	Using model Hessian from Lindh (1995).
	 - Coordinate -           - BOHR/RAD -       - ANG/DEG -
	 R(1,2)           =         2.634350	       1.394038
	 R(1,8)           =         2.635962	       1.394891
	 R(1,15)          =         2.056795	       1.088409
	 R(2,10)          =         2.635830	       1.394821
	 R(2,16)          =         2.057067	       1.088553
	 R(3,6)           =         2.618633	       1.385721
	 R(3,9)           =         2.626399	       1.389831
	 R(3,17)          =         2.050355	       1.085001
	 R(4,7)           =         2.619162	       1.386001
	 R(4,9)           =         2.628163	       1.390764
	 R(4,18)          =         2.050465	       1.085059
	 R(5,10)          =         2.636938	       1.395407
	 R(5,11)          =         2.635263	       1.394521
	 R(5,19)          =         2.056874	       1.088451
	 R(6,12)          =         2.554576	       1.351823
	 R(6,20)          =         2.052466	       1.086118
	 R(7,12)          =         2.554630	       1.351852
	 R(7,21)          =         2.049943	       1.084783
	 R(8,9)           =         2.734263	       1.446909
	 R(8,11)          =         2.635830	       1.394821
	 R(10,13)         =         2.422221	       1.281784
	 R(11,14)         =         2.534359	       1.341125
	 R(12,20)         =         3.897787	       2.062620
	 R(12,21)         =         3.897428	       2.062430
	 R(14,18)         =         3.397968	       1.798127
	 R(15,17)         =         3.556972	       1.882268
	 B(1,2,10)        =         2.094553	     120.009056
	 B(1,2,16)        =         2.068903	     118.539404
	 B(1,8,9)         =         2.091392	     119.827938
	 B(1,8,11)        =         2.093692	     119.959722
	 B(1,15,17)       =         2.021223	     115.807573
	 B(2,1,8)         =         2.094940	     120.031219
	 B(2,1,15)        =         2.079908	     119.169966
	 B(2,10,5)        =         2.094306	     119.994870
	 B(2,10,13)       =         2.094719	     120.018581
	 B(3,6,12)        =         2.165510	     124.074602
	 B(3,6,20)        =         2.108173	     120.789429
	 B(3,9,4)         =         2.090360	     119.768778
	 B(3,9,8)         =         2.096702	     120.132196
	 B(3,17,15)       =         1.995340	     114.324552
	 B(4,7,12)        =         2.165348	     124.065319
	 B(4,7,21)        =         2.107000	     120.722191
	 B(4,9,8)         =         2.096123	     120.099013
	 B(4,18,14)       =         2.102710	     120.476408
	 B(5,10,13)       =         2.094160	     119.986548
	 B(5,11,8)        =         2.095181	     120.045019
	 B(5,11,14)       =         2.081414	     119.256220
	 B(6,3,9)         =         2.057597	     117.891618
	 B(6,3,17)        =         2.097497	     120.177751
	 B(6,12,7)        =         2.030438	     116.335500
	 B(6,12,20)       =         0.496905	      28.470554
	 B(6,12,21)       =         2.526386	     144.751244
	 B(6,20,12)       =         0.635186	      36.393481
	 B(7,4,9)         =         2.057117	     117.864133
	 B(7,4,18)        =         2.099698	     120.303855
	 B(7,12,20)       =         2.527341	     144.806000
	 B(7,12,21)       =         0.495948	      28.415747
	 B(7,21,12)       =         0.634807	      36.371768
	 B(8,1,15)        =         2.108336	     120.798746
	 B(8,11,14)       =         2.106591	     120.698759
	 B(9,3,17)        =         2.128089	     121.930492
	 B(9,4,18)        =         2.126369	     121.831998
	 B(9,8,11)        =         2.098101	     120.212327
	 B(10,2,16)       =         2.119728	     121.451467
	 B(10,5,11)       =         2.093699	     119.960108
	 B(10,5,19)       =         2.120101	     121.472852
	 B(11,5,19)       =         2.069385	     118.567038
	 B(11,14,18)      =         1.890109	     108.295268
	 B(12,6,20)       =         2.009502	     115.135964
	 B(12,7,21)       =         2.010837	     115.212485
	 B(20,12,21)      =         3.023289	     173.221683
	 D(1,2,10,5)      =        -0.000325	      -0.018609
	 D(1,2,10,13)     =         3.141392	     179.988520
	 D(1,8,9,3)       =        -0.262539	     -15.042386
	 D(1,8,9,4)       =         2.878312	     164.915146
	 D(1,8,11,5)      =         0.000325	       0.018608
	 D(1,8,11,14)     =        -3.141528	    -179.996269
	 D(1,15,17,3)     =        -0.563272	     -32.273108
	 D(2,1,8,9)       =        -3.141211	    -179.978157
	 D(2,1,8,11)      =        -0.000348	      -0.019945
	 D(2,1,15,17)     =        -2.806341	    -160.791470
	 D(2,10,5,11)     =         0.000301	       0.017261
	 D(2,10,5,19)     =        -3.141543	    -179.997173
	 D(3,6,12,7)      =        -0.001145	      -0.065610
	 D(3,6,12,20)     =        -3.141139	    -179.974034
	 D(3,6,12,21)     =        -0.000861	      -0.049325
	 D(3,6,20,12)     =         3.141156	     179.974963
	 D(3,9,4,7)       =        -0.000273	      -0.015640
	 D(3,9,4,18)      =        -3.141109	    -179.972283
	 D(3,9,8,11)      =         2.879785	     164.999508
	 D(4,7,12,6)      =         0.000053	       0.003032
	 D(4,7,12,20)     =         0.001375	       0.078776
	 D(4,7,12,21)     =        -3.141195	    -179.977218
	 D(4,7,21,12)     =         3.141209	     179.978046
	 D(4,9,3,6)       =        -0.000704	      -0.040364
	 D(4,9,3,17)      =        -3.139927	    -179.904581
	 D(4,9,8,11)      =        -0.262549	     -15.042960
	 D(4,18,14,11)    =        -0.600285	     -34.393786
	 D(5,10,2,16)     =         3.139529	     179.881752
	 D(5,11,8,9)      =         3.141185	     179.976658
	 D(5,11,14,18)    =        -2.806816	    -160.818713
	 D(6,3,9,8)       =         3.140149	     179.917309
	 D(6,3,17,15)     =        -2.808978	    -160.942561
	 D(6,12,7,21)     =         3.141248	     179.980249
	 D(6,12,21,7)     =        -0.000535	      -0.030670
	 D(6,20,12,7)     =        -0.002485	      -0.142401
	 D(6,20,12,21)    =        -0.006426	      -0.368159
	 D(7,4,9,8)       =        -3.141127	    -179.973327
	 D(7,4,18,14)     =        -2.732894	    -156.583301
	 D(7,12,6,20)     =         3.139994	     179.908423
	 D(7,21,12,20)    =         0.004772	       0.273428
	 D(8,1,2,10)      =         0.000348	       0.019955
	 D(8,1,2,16)      =        -3.139556	    -179.883288
	 D(8,1,15,17)     =         0.333581	      19.112809
	 D(8,9,3,17)      =         0.000927	       0.053091
	 D(8,9,4,18)      =         0.001222	       0.070030
	 D(8,11,5,10)     =        -0.000301	      -0.017270
	 D(8,11,5,19)     =         3.141536	     179.996748
	 D(8,11,14,18)    =         0.335034	      19.196048
	 D(9,3,6,12)      =         0.001480	       0.084799
	 D(9,3,6,20)      =        -3.139635	    -179.887837
	 D(9,3,17,15)     =         0.330192	      18.918615
	 D(9,4,7,12)      =         0.000631	       0.036136
	 D(9,4,7,21)      =        -3.140543	    -179.939887
	 D(9,4,18,14)     =         0.407924	      23.372302
	 D(9,8,1,15)      =         0.002066	       0.118384
	 D(9,8,11,14)     =        -0.000667	      -0.038219
	 D(10,2,1,15)     =         3.140283	     179.924984
	 D(10,5,11,14)    =         3.141547	     179.997392
	 D(11,5,10,13)    =        -3.141416	    -179.989865
	 D(11,8,1,15)     =        -3.140256	    -179.923403
	 D(12,6,3,17)     =         3.140746	     179.951494
	 D(12,7,4,18)     =         3.141479	     179.993470
	 D(13,10,2,16)    =        -0.001939	      -0.111119
	 D(13,10,5,19)    =        -0.000075	      -0.004300
	 D(14,11,5,19)    =         0.000199	       0.011410
	 D(15,1,2,16)     =         0.000379	       0.021741
	 D(17,3,6,20)     =        -0.000369	      -0.021141
	 D(18,4,7,21)     =         0.000305	       0.017447
	 D(20,6,12,21)    =         3.140279	     179.924708
	 D(20,12,7,21)    =        -3.140615	    -179.944006

	Adding user-defined constraint: Fragment 1; Coordinate 59:
		Value =    -0.262539; Fixed value    =    -0.261799
		Force =     0.000370; Force constant =     0.500000
	Removing off-diagonal coupling between coordinate 59 and others.
	Taking RFO optimization step.
	Going to follow RFO solution 1.
	Using RFO vector 1.

	Determining step-restricting scale parameter for RS-RFO.
	Maximum step size allowed    0.10000

	 Iter      |step|        alpha        rfo_root  
	------------------------------------------------
	    0     0.37740       1.00000           1
	    1     0.25446       3.92895           1
	    2     0.17950      11.50588           1
	    3     0.13408      26.72919           1
	    4     0.11006      45.63875           1
	    5     0.10132      56.64911           1
	    6     0.10003      58.55394           1
	    7     0.10000      58.59602           1
	------------------------------------------------
	Norm of target step-size    0.10000
	Projected energy change by RFO approximation:        -0.0085700255

	Back-transformation to cartesian coordinates...
	Could not converge backtransformation.
	Using first guess instead.

	--- Internal Coordinate Step in ANG or DEG, aJ/ANG or AJ/DEG ---
	 ---------------------------------------------------------------------------
	   Coordinate                Previous        Force       Change         New 
	   ----------                --------       ------       ------       ------
	    1 R(1,2)          =      1.394038    -0.083153    -0.004663     1.389375
	    2 R(1,8)          =      1.394891     0.078919     0.004604     1.399496
	    3 R(1,15)         =      1.088409    -0.063517    -0.004108     1.084301
	    4 R(2,10)         =      1.394821     0.216067     0.012339     1.407160
	    5 R(2,16)         =      1.088553    -0.055984    -0.003631     1.084923
	    6 R(3,6)          =      1.385721    -0.017103    -0.000912     1.384808
	    7 R(3,9)          =      1.389831     0.083163     0.005250     1.395081
	    8 R(3,17)         =      1.085001    -0.056486    -0.003591     1.081410
	    9 R(4,7)          =      1.386001     0.005585     0.000253     1.386254
	   10 R(4,9)          =      1.390764     0.107069     0.005911     1.396675
	   11 R(4,18)         =      1.085059    -0.131736    -0.007905     1.077154
	   12 R(5,10)         =      1.395407     0.188865     0.011024     1.406431
	   13 R(5,11)         =      1.394521    -0.138474    -0.007616     1.386905
	   14 R(5,19)         =      1.088451    -0.058186    -0.003772     1.084679
	   15 R(6,12)         =      1.351823    -0.114981    -0.006222     1.345601
	   16 R(6,20)         =      1.086118    -0.018074    -0.001139     1.084980
	   17 R(7,12)         =      1.351852    -0.105483    -0.005722     1.346130
	   18 R(7,21)         =      1.084783    -0.012301    -0.000746     1.084037
	   19 R(8,9)          =      1.446909     0.096702     0.006122     1.453032
	   20 R(8,11)         =      1.394821    -0.002466     0.000602     1.395424
	   21 R(10,13)        =      1.281784    -0.038343    -0.001774     1.280010
	   22 R(11,14)        =      1.341125     0.084952     0.004807     1.345933
	   23 B(1,2,10)       =    120.009056     0.000621     0.616265   120.625321
	   24 B(1,2,16)       =    118.539404     0.000180     0.193307   118.732711
	   25 B(1,8,9)        =    119.827938     0.001261     1.144712   120.972649
	   26 B(1,8,11)       =    119.959722    -0.001591    -1.572693   118.387028
	   27 B(2,1,8)        =    120.031219     0.000886     0.841810   120.873029
	   28 B(2,1,15)       =    119.169966    -0.000390    -0.372387   118.797580
	   29 B(2,10,5)       =    119.994870    -0.001867    -1.615840   118.379031
	   30 B(2,10,13)      =    120.018581     0.001015     0.875636   120.894218
	   31 B(3,6,12)       =    124.074602     0.000257     0.182057   124.256659
	   32 B(3,6,20)       =    120.789429    -0.000194    -0.160302   120.629126
	   33 B(3,9,4)        =    119.768778    -0.001816    -1.601122   118.167655
	   34 B(3,9,8)        =    120.132196     0.000800     0.741126   120.873322
	   35 B(4,7,12)       =    124.065319     0.000514     0.406922   124.472241
	   36 B(4,7,21)       =    120.722191    -0.000307    -0.261829   120.460363
	   37 B(4,9,8)        =    120.099013     0.001016     0.859911   120.958923
	   38 B(5,10,13)      =    119.986548     0.000852     0.740202   120.726750
	   39 B(5,11,8)       =    120.045019     0.001564     1.353010   121.398029
	   40 B(5,11,14)      =    119.256220    -0.000321    -0.368423   118.887797
	   41 B(6,3,9)        =    117.891618     0.000872     0.850136   118.741754
	   42 B(6,3,17)       =    120.177751    -0.000476    -0.474345   119.703406
	   43 B(6,12,7)       =    116.335500    -0.000292    -0.388501   115.946999
	   44 B(7,4,9)        =    117.864133     0.000465     0.550503   118.414636
	   45 B(7,4,18)       =    120.303855    -0.000611    -0.530297   119.773558
	   46 B(8,1,15)       =    120.798746    -0.000496    -0.469359   120.329386
	   47 B(8,11,14)      =    120.698759    -0.001243    -0.984905   119.713855
	   48 B(9,3,17)       =    121.930492    -0.000395    -0.375660   121.554832
	   49 B(9,4,18)       =    121.831998     0.000146    -0.020310   121.811688
	   50 B(9,8,11)       =    120.212327     0.000330     0.427984   120.640311
	   51 B(10,2,16)      =    121.451467    -0.000801    -0.809554   120.641913
	   52 B(10,5,11)      =    119.960108     0.000386     0.377418   120.337526
	   53 B(10,5,19)      =    121.472852    -0.000535    -0.533743   120.939109
	   54 B(11,5,19)      =    118.567038     0.000149     0.156326   118.723364
	   55 B(12,6,20)      =    115.135964    -0.000063    -0.021750   115.114215
	   56 B(12,7,21)      =    115.212485    -0.000207    -0.145091   115.067394
	   57 D(1,2,10,5)     =     -0.018609     0.000002     0.014998    -0.003611
	   58 D(1,2,10,13)    =    179.988520     0.000003     0.020311   180.008831
	   59 D(1,8,9,3)      =    -15.042386    -0.000022    -0.088389   -15.130775
	   60 D(1,8,9,4)      =    164.915146    -0.000032    -0.162614   164.752532
	   61 D(1,8,11,5)     =      0.018608    -0.000003    -0.012371     0.006237
	   62 D(1,8,11,14)    =   -179.996269    -0.000036    -0.205522  -180.201791
	   63 D(2,1,8,9)      =   -179.978157    -0.000002    -0.015828  -179.993985
	   64 D(2,1,8,11)     =     -0.019945     0.000011     0.063409     0.043464
	   65 D(2,10,5,11)    =      0.017261     0.000006     0.035404     0.052665
	   66 D(2,10,5,19)    =   -179.997173     0.000010     0.058860  -179.938313
	   67 D(3,6,12,7)     =     -0.065610    -0.000004    -0.022319    -0.087930
	   68 D(3,9,4,7)      =     -0.015640    -0.000004    -0.024186    -0.039826
	   69 D(3,9,4,18)     =   -179.972283    -0.000035    -0.192625  -180.164908
	   70 D(3,9,8,11)     =    164.999508    -0.000035    -0.168576   164.830932
	   71 D(4,7,12,6)     =      0.003032     0.000008     0.045765     0.048797
	   72 D(4,9,3,6)      =     -0.040364     0.000007     0.045068     0.004704
	   73 D(4,9,3,17)     =   -179.904581    -0.000010    -0.057996  -179.962577
	   74 D(4,9,8,11)     =    -15.042960    -0.000044    -0.242801   -15.285760
	   75 D(5,10,2,16)    =    179.881752     0.000004     0.028410   179.910163
	   76 D(5,11,8,9)     =    179.976658     0.000010     0.066899   180.043557
	   77 D(6,3,9,8)      =    179.917309    -0.000002    -0.026116   179.891193
	   78 D(6,12,7,21)    =    179.980249     0.000016     0.086090   180.066339
	   79 D(7,4,9,8)      =   -179.973327     0.000005     0.047114  -179.926213
	   80 D(7,12,6,20)    =    179.908423     0.000002     0.013401   179.921824
	   81 D(8,1,2,10)     =      0.019955    -0.000011    -0.064798    -0.044843
	   82 D(8,1,2,16)     =   -179.883288    -0.000012    -0.076952  -179.960240
	   83 D(8,9,3,17)     =      0.053091    -0.000019    -0.129180    -0.076089
	   84 D(8,9,4,18)     =      0.070030    -0.000026    -0.121325    -0.051295
	   85 D(8,11,5,10)    =     -0.017270    -0.000006    -0.037423    -0.054693
	   86 D(8,11,5,19)    =    179.996748    -0.000010    -0.060264   179.936484
	   87 D(9,3,6,12)     =      0.084799    -0.000003    -0.021757     0.063042
	   88 D(9,3,6,20)     =   -179.887837    -0.000010    -0.059385  -179.947222
	   89 D(9,4,7,12)     =      0.036136    -0.000004    -0.022788     0.013348
	   90 D(9,4,7,21)     =   -179.939887    -0.000012    -0.065200  -180.005086
	   91 D(9,8,1,15)     =      0.118384    -0.000022    -0.140199    -0.021815
	   92 D(9,8,11,14)    =     -0.038219    -0.000023    -0.126253    -0.164471
	   93 D(10,2,1,15)    =    179.924984     0.000009     0.057583   179.982567
	   94 D(10,5,11,14)   =    179.997392     0.000027     0.154267   180.151659
	   95 D(11,5,10,13)   =   -179.989865     0.000005     0.030111  -179.959755
	   96 D(11,8,1,15)    =   -179.923403    -0.000009    -0.060962  -179.984365
	   97 D(12,6,3,17)    =    179.951494     0.000013     0.079449   180.030943
	   98 D(12,7,4,18)    =    179.993470     0.000027     0.142336   180.135806
	   99 D(13,10,2,16)   =     -0.111119     0.000005     0.033723    -0.077396
	  100 D(13,10,5,19)   =     -0.004300     0.000009     0.053566     0.049267
	  101 D(14,11,5,19)   =      0.011410     0.000023     0.131426     0.142836
	  102 D(15,1,2,16)    =      0.021741     0.000007     0.045429     0.067170
	  103 D(17,3,6,20)    =     -0.021141     0.000007     0.041821     0.020680
	  104 D(18,4,7,21)    =      0.017447     0.000019     0.099924     0.117371
	  105 R(4,14)         =      2.527790     0.181832     0.020334     2.548124
	 ---------------------------------------------------------------------------
	Successfully symmetrized geometry.
	 Forces used to impose fixed constraints are not included.
	  Forces zeroed: 59 

  ==> Convergence Check <==

  Measures of convergence in internal coordinates in au.
  Criteria marked as inactive (o), active & met (*), and active & unmet ( ).
  --------------------------------------------------------------------------------------------- ~
   Step     Total Energy     Delta E     MAX Force     RMS Force      MAX Disp      RMS Disp    ~
  --------------------------------------------------------------------------------------------- ~
    Convergence Criteria    1.00e-06 *    3.00e-04 *             o    1.20e-03 *             o  ~
  --------------------------------------------------------------------------------------------- ~
      1    -652.31772960   -6.52e+02      2.62e-02      8.54e-03 o    3.84e-02      9.76e-03 o  ~
  ---------------------------------------------------------------------------------------------

	Writing optimization data to binary file.
	Structure for next step:
	Cartesian Geometry (in Angstrom)
	    C    -1.3640667979   0.7786687386  -0.7703889581
	    C    -2.4380663603   1.3498863901  -0.0991226928
	    C     0.7384103500  -0.6949105166  -2.1323116981
	    C     1.9902058700  -0.7368071670  -0.0907996026
	    C    -1.4404760983   0.7267989980   2.0118109559
	    C     1.8368714403  -1.2631863397  -2.7553207710
	    C     3.0302138115  -1.3042630643  -0.8105757705
	    C    -0.3154413690   0.1760700900  -0.0662246913
	    C     0.8088647681  -0.4218499650  -0.7660305437
	    C    -2.4951644242   1.3339432828   1.3067881684
	    C    -0.3744998326   0.1616187932   1.3278736696
	    N     2.9851371775  -1.5771553137  -2.1279838131
	    O    -3.4822290291   1.8585023009   1.9304602858
	    F     0.6176073201  -0.4144754532   2.0317015739
	    H    -1.3504673895   0.8074497313  -1.8542222244
	    H    -3.2323967413   1.8071536145  -0.6796421150
	    H    -0.1491811073  -0.4728252801  -2.7087732390
	    H     2.1092725336  -0.5486873060   0.9630955467
	    H    -1.4425722203   0.6901701601   3.0958693353
	    H     1.8157328748  -1.4875395304  -3.8166404496
	    H     3.9618629829  -1.5617762043  -0.3198087362
			--------------------------
			 OPTKING Finished Execution 
			--------------------------

    Structure for next step:
    Molecular point group: c1
    Full point group: C1

    Geometry (in Angstrom), charge = -1, multiplicity = 1:

    C           -1.360262297991     0.777250119763    -0.771372430555
    C           -2.434261860344     1.348467771320    -0.100106165273
    C            0.742214849896    -0.696329135466    -2.133295170560
    C            1.994010369891    -0.738225785851    -0.091783075050
    C           -1.436671598409     0.725380379209     2.010827483409
    C            1.840675940183    -1.264604958498    -2.756304243504
    C            3.034018311450    -1.305681683098    -0.811559243008
    C           -0.311636869077     0.174651471161    -0.067208163764
    C            0.812669268060    -0.423268583792    -0.767014016187
    C           -2.491359924258     1.332524663942     1.305804695963
    C           -0.370695332698     0.160200174397     1.326890197111
    N            2.988941677445    -1.578573932528    -2.128967285609
    O           -3.478424529162     1.857083682087     1.929476813315
    F            0.621411820063    -0.415894072025     2.030718101439
    H           -1.346662889534     0.806031112502    -1.855205696904
    H           -3.228592241365     1.805734995720    -0.680625587428
    H           -0.145376607358    -0.474243898950    -2.709756711437
    H            2.113077033502    -0.550105924834     0.962112074245
    H           -1.438767720367     0.688751541241     3.094885862837
    H            1.819537374678    -1.488958149265    -3.817623922039
    H            3.965667482791    -1.563194823137    -0.320792208637

gradient() will perform analytic gradient computation.

*** tstart() called on gpu-2-9.local
*** at Tue Nov 14 04:51:38 2017

    SCF Algorithm Type (re)set to DF.

*** tstart() called on gpu-2-9.local
*** at Tue Nov 14 04:51:38 2017

   => Loading Basis Set <=

    Name: AUG-CC-PVTZ
    Role: ORBITAL
    Keyword: BASIS
    atoms 1-11  entry C          line   221 file /cbio/jclab/home/chayas/anaconda/envs/py35/share/psi4/basis/aug-cc-pvtz.gbs 
    atoms 12    entry N          line   267 file /cbio/jclab/home/chayas/anaconda/envs/py35/share/psi4/basis/aug-cc-pvtz.gbs 
    atoms 13    entry O          line   313 file /cbio/jclab/home/chayas/anaconda/envs/py35/share/psi4/basis/aug-cc-pvtz.gbs 
    atoms 14    entry F          line   359 file /cbio/jclab/home/chayas/anaconda/envs/py35/share/psi4/basis/aug-cc-pvtz.gbs 
    atoms 15-21 entry H          line    34 file /cbio/jclab/home/chayas/anaconda/envs/py35/share/psi4/basis/aug-cc-pvtz.gbs 


         ---------------------------------------------------------
                                   SCF
            by Justin Turney, Rob Parrish, and Andy Simmonett
                              RHF Reference
                        8 Threads,   4768 MiB Core
         ---------------------------------------------------------

  ==> Geometry <==

    Molecular point group: c1
    Full point group: C1

    Geometry (in Angstrom), charge = -1, multiplicity = 1:

       Center              X                  Y                   Z               Mass       
    ------------   -----------------  -----------------  -----------------  -----------------
           C         -1.360262297991     0.777250119763    -0.771372430555    12.000000000000
           C         -2.434261860344     1.348467771320    -0.100106165273    12.000000000000
           C          0.742214849896    -0.696329135466    -2.133295170560    12.000000000000
           C          1.994010369891    -0.738225785851    -0.091783075050    12.000000000000
           C         -1.436671598409     0.725380379209     2.010827483409    12.000000000000
           C          1.840675940183    -1.264604958498    -2.756304243504    12.000000000000
           C          3.034018311450    -1.305681683098    -0.811559243008    12.000000000000
           C         -0.311636869077     0.174651471161    -0.067208163764    12.000000000000
           C          0.812669268060    -0.423268583792    -0.767014016187    12.000000000000
           C         -2.491359924258     1.332524663942     1.305804695963    12.000000000000
           C         -0.370695332698     0.160200174397     1.326890197111    12.000000000000
           N          2.988941677445    -1.578573932528    -2.128967285609    14.003074004780
           O         -3.478424529162     1.857083682087     1.929476813315    15.994914619560
           F          0.621411820063    -0.415894072025     2.030718101439    18.998403224000
           H         -1.346662889534     0.806031112502    -1.855205696904     1.007825032070
           H         -3.228592241365     1.805734995720    -0.680625587428     1.007825032070
           H         -0.145376607358    -0.474243898950    -2.709756711437     1.007825032070
           H          2.113077033502    -0.550105924834     0.962112074245     1.007825032070
           H         -1.438767720367     0.688751541241     3.094885862837     1.007825032070
           H          1.819537374678    -1.488958149265    -3.817623922039     1.007825032070
           H          3.965667482791    -1.563194823137    -0.320792208637     1.007825032070

  Running in c1 symmetry.

  Rotational constants: A =      0.06394  B =      0.01377  C =      0.01139 [cm^-1]
  Rotational constants: A =   1916.91039  B =    412.86851  C =    341.54657 [MHz]
  Nuclear repulsion =  802.947668582530468

  Charge       = -1
  Multiplicity = 1
  Electrons    = 98
  Nalpha       = 49
  Nbeta        = 49

  ==> Algorithm <==

  SCF Algorithm Type is DF.
  DIIS enabled.
  MOM disabled.
  Fractional occupation disabled.
  Guess Type is READ.
  Energy threshold   = 1.00e-10
  Density threshold  = 1.00e-10
  Integral threshold = 0.00e+00

  ==> Primary Basis <==

  Basis Set: AUG-CC-PVTZ
    Blend: AUG-CC-PVTZ
    Number of shells: 259
    Number of basis function: 805
    Number of Cartesian functions: 945
    Spherical Harmonics?: true
    Max angular momentum: 3

   => Loading Basis Set <=

    Name: (AUG-CC-PVTZ AUX)
    Role: JKFIT
    Keyword: DF_BASIS_SCF
    atoms 1-11  entry C          line   161 file /cbio/jclab/home/chayas/anaconda/envs/py35/share/psi4/basis/aug-cc-pvtz-jkfit.gbs 
    atoms 12    entry N          line   223 file /cbio/jclab/home/chayas/anaconda/envs/py35/share/psi4/basis/aug-cc-pvtz-jkfit.gbs 
    atoms 13    entry O          line   285 file /cbio/jclab/home/chayas/anaconda/envs/py35/share/psi4/basis/aug-cc-pvtz-jkfit.gbs 
    atoms 14    entry F          line   347 file /cbio/jclab/home/chayas/anaconda/envs/py35/share/psi4/basis/aug-cc-pvtz-jkfit.gbs 
    atoms 15-21 entry H          line    69 file /cbio/jclab/home/chayas/anaconda/envs/py35/share/psi4/basis/aug-cc-pvtz-jkfit.gbs 

  Reading orbitals from file 180, no projection.

  ==> Pre-Iterations <==

   -------------------------------------------------------
    Irrep   Nso     Nmo     Nalpha   Nbeta   Ndocc  Nsocc
   -------------------------------------------------------
     A        805     805       0       0       0       0
   -------------------------------------------------------
    Total     805     805      49      49      49       0
   -------------------------------------------------------

  ==> Integral Setup <==

  ==> DFJK: Density-Fitted J/K Matrices <==

    J tasked:                  Yes
    K tasked:                  Yes
    wK tasked:                  No
    OpenMP threads:              8
    Integrals threads:           8
    Memory (MB):              3576
    Algorithm:                Disk
    Integral Cache:           NONE
    Schwarz Cutoff:          1E-12
    Fitting Condition:       1E-12

   => Auxiliary Basis Set <=

  Basis Set: (AUG-CC-PVTZ AUX)
    Blend: AUG-CC-PVTZ-JKFIT
    Number of shells: 518
    Number of basis function: 1778
    Number of Cartesian functions: 2219
    Spherical Harmonics?: true
    Max angular momentum: 4

  Minimum eigenvalue in the overlap matrix is 6.7373720033E-07.
  Using Symmetric Orthogonalization.

  SCF Guess: Orbitals guess was supplied from a previous computation.

  ==> Iterations <==

                           Total Energy        Delta E     RMS |[F,P]|

   @DF-RHF iter   0:  -649.70838133648238   -6.49708e+02   5.04030e-04 
   @DF-RHF iter   1:  -649.61022420047743    9.81571e-02   1.32262e-04 
   @DF-RHF iter   2:  -649.61082955112090   -6.05351e-04   7.08438e-05 DIIS
   @DF-RHF iter   3:  -649.61120415503126   -3.74604e-04   1.03674e-05 DIIS
   @DF-RHF iter   4:  -649.61121390113635   -9.74611e-06   5.20681e-06 DIIS
   @DF-RHF iter   5:  -649.61121600892955   -2.10779e-06   1.39119e-06 DIIS
   @DF-RHF iter   6:  -649.61121638267389   -3.73744e-07   9.29274e-07 DIIS
   @DF-RHF iter   7:  -649.61121650725715   -1.24583e-07   3.07957e-07 DIIS
   @DF-RHF iter   8:  -649.61121654289605   -3.56389e-08   1.84820e-07 DIIS
   @DF-RHF iter   9:  -649.61121654843907   -5.54303e-09   6.17503e-08 DIIS
   @DF-RHF iter  10:  -649.61121654935528   -9.16202e-10   2.30879e-08 DIIS
   @DF-RHF iter  11:  -649.61121654945180   -9.65201e-11   9.28648e-09 DIIS
   @DF-RHF iter  12:  -649.61121654950432   -5.25233e-11   4.94555e-09 DIIS
   @DF-RHF iter  13:  -649.61121654952740   -2.30784e-11   2.42889e-09 DIIS
   @DF-RHF iter  14:  -649.61121654950591    2.14868e-11   8.08253e-10 DIIS
   @DF-RHF iter  15:  -649.61121654952558   -1.96678e-11   2.85300e-10 DIIS
   @DF-RHF iter  16:  -649.61121654954025   -1.46656e-11   1.06247e-10 DIIS
   @DF-RHF iter  17:  -649.61121654950591    3.43334e-11   5.76108e-11 DIIS

  ==> Post-Iterations <==

    Orbital Energies (a.u.)
    -----------------------

    Doubly Occupied:                                                      

       1A    -26.192725     2A    -20.315602     3A    -15.444290  
       4A    -11.197351     5A    -11.163510     6A    -11.160314  
       7A    -11.148008     8A    -11.136216     9A    -11.117324  
      10A    -11.113984    11A    -11.107883    12A    -11.089147  
[...]
	 D(2,15,1,8)      =        -3.107598	    -178.052227
	 D(2,15,17,3)     =        -1.055095	     -60.452483
	 D(3,6,12,7)      =        -0.000498	      -0.028516
	 D(3,6,12,20)     =         3.134861	     179.614326
	 D(3,6,12,21)     =        -0.003131	      -0.179403
	 D(3,6,20,12)     =        -3.135226	    -179.635217
	 D(3,9,4,7)       =         0.004374	       0.250606
	 D(3,9,4,18)      =         3.132429	     179.474934
	 D(3,9,8,11)      =         2.867038	     164.269158
	 D(4,7,12,6)      =        -0.000604	      -0.034619
	 D(4,7,12,20)     =        -0.005470	      -0.313403
	 D(4,7,12,21)     =         3.137634	     179.773182
	 D(4,7,21,12)     =        -3.137885	    -179.787582
	 D(4,9,3,6)       =        -0.005417	      -0.310386
	 D(4,9,3,17)      =         3.113776	     178.406251
	 D(4,9,8,11)      =        -0.295731	     -16.944122
	 D(4,18,14,11)    =        -0.592374	     -33.940513
	 D(5,10,2,15)     =        -0.019751	      -1.131657
	 D(5,10,2,16)     =        -3.128349	    -179.241192
	 D(5,11,8,9)      =        -3.129010	    -179.279078
	 D(5,11,14,18)    =        -2.835855	    -162.482499
	 D(5,19,11,8)     =        -0.024329	      -1.393938
	 D(5,19,11,14)    =        -3.126101	    -179.112384
	 D(6,3,9,8)       =         3.117076	     178.595314
	 D(6,3,17,15)     =        -2.765073	    -158.427031
	 D(6,12,7,21)     =        -3.138238	    -179.807801
	 D(6,12,21,7)     =         0.005056	       0.289665
	 D(6,20,12,7)     =         0.009372	       0.536997
	 D(6,20,12,21)    =         0.013979	       0.800926
	 D(7,4,9,8)       =        -3.117486	    -178.618805
	 D(7,4,18,14)     =        -2.778443	    -159.193054
	 D(7,12,6,20)     =        -3.135359	    -179.642842
	 D(7,21,12,20)    =        -0.005882	      -0.336994
	 D(8,1,2,10)      =        -0.009529	      -0.545953
	 D(8,1,2,15)      =         3.105692	     177.943036
	 D(8,1,2,16)      =         3.122570	     178.910066
	 D(8,1,15,17)     =         0.400875	      22.968444
	 D(8,9,3,17)      =        -0.046915	      -2.688048
	 D(8,9,4,18)      =         0.010568	       0.605523
	 D(8,11,5,10)     =        -0.007460	      -0.427439
	 D(8,11,5,19)     =         3.127436	     179.188861
	 D(8,11,14,18)    =         0.334991	      19.193573
	 D(9,3,6,12)      =         0.003755	       0.215167
	 D(9,3,6,20)      =         3.138414	     179.817856
	 D(9,3,17,15)     =         0.398282	      22.819903
	 D(9,4,7,12)      =        -0.001529	      -0.087590
	 D(9,4,7,21)      =         3.135992	     179.679132
	 D(9,4,18,14)     =         0.376435	      21.568126
	 D(9,8,1,15)      =        -0.039942	      -2.288485
	 D(9,8,11,14)     =        -0.019437	      -1.113678
	 D(9,8,11,19)     =        -3.115758	    -178.519803
	 D(10,2,1,15)     =        -3.115221	    -178.488989
	 D(10,2,15,17)    =         0.673443	      38.585427
	 D(10,5,11,14)    =        -3.117592	    -178.624843
	 D(10,5,11,19)    =        -3.134896	    -179.616300
	 D(10,5,19,11)    =         3.135103	     179.628153
	 D(11,5,10,13)    =        -3.135408	    -179.645669
	 D(11,8,1,15)     =         3.111604	     178.281791
	 D(12,6,3,17)     =        -3.115870	    -178.526228
	 D(12,7,4,18)     =        -3.129832	    -179.326140
	 D(13,10,2,15)    =         3.119711	     178.746289
	 D(13,10,2,16)    =         0.011113	       0.636753
	 D(13,10,5,19)    =         0.012858	       0.736705
	 D(14,11,5,19)    =         0.017304	       0.991457
	 D(15,1,2,16)     =         0.016878	       0.967030
	 D(16,2,15,17)    =        -2.497531	    -143.097996
	 D(17,3,6,20)     =         0.018788	       1.076460
	 D(18,4,7,21)     =         0.007690	       0.440581
	 D(18,14,11,19)   =        -2.828145	    -162.040764
	 D(20,6,12,21)    =        -3.137993	    -179.793728
	 D(20,12,7,21)    =         3.140081	     179.913415

	Adding user-defined constraint: Fragment 1; Coordinate 59:
		Value =    -0.263394; Fixed value    =    -0.261799
		Force =     0.000797; Force constant =     0.500000
	Removing off-diagonal coupling between coordinate 59 and others.
	Taking RFO optimization step.
	Going to follow RFO solution 1.
	Using RFO vector 1.

	Determining step-restricting scale parameter for RS-RFO.
	Maximum step size allowed    0.10000

	 Iter      |step|        alpha        rfo_root  
	------------------------------------------------
	    0     0.18816       1.00000           1
	    1     0.14232       8.79729           1
	    2     0.11400      20.65944           1
	    3     0.10238      29.19627           1
	    4     0.10009      31.29636           1
	    5     0.10000      31.38238           1
	------------------------------------------------
	Norm of target step-size    0.10000
	Projected energy change by RFO approximation:        -0.0003428628

	Back-transformation to cartesian coordinates...
	Successfully converged to displaced geometry.

	--- Internal Coordinate Step in ANG or DEG, aJ/ANG or AJ/DEG ---
	 ---------------------------------------------------------------------------
	   Coordinate                Previous        Force       Change         New 
	   ----------                --------       ------       ------       ------
	    1 R(1,2)          =      1.371759    -0.000930    -0.000026     1.371732
	    2 R(1,8)          =      1.410825     0.001533     0.000476     1.411301
	    3 R(1,15)         =      1.081110    -0.000848    -0.000250     1.080860
	    4 R(2,10)         =      1.436936     0.000160    -0.000187     1.436748
	    5 R(2,16)         =      1.081288    -0.001139    -0.000204     1.081084
	    6 R(3,6)          =      1.381319     0.000103     0.000123     1.381442
	    7 R(3,9)          =      1.404803     0.000322     0.000374     1.405176
	    8 R(3,17)         =      1.078763    -0.001478    -0.000294     1.078469
	    9 R(4,7)          =      1.383923    -0.002344    -0.000359     1.383564
	   10 R(4,9)          =      1.404817     0.001260     0.000353     1.405169
	   11 R(4,18)         =      1.074931    -0.000696    -0.000198     1.074733
	   12 R(5,10)         =      1.433574    -0.000798    -0.000307     1.433267
	   13 R(5,11)         =      1.365882     0.000195    -0.000021     1.365861
	   14 R(5,19)         =      1.079271    -0.000173    -0.000158     1.079113
	   15 R(6,12)         =      1.339792    -0.002073    -0.000380     1.339412
	   16 R(6,20)         =      1.083007     0.000113    -0.000047     1.082960
	   17 R(7,12)         =      1.338520    -0.000719    -0.000327     1.338193
	   18 R(7,21)         =      1.083087    -0.000371    -0.000083     1.083004
	   19 R(8,9)          =      1.440856     0.001589     0.001329     1.442185
	   20 R(8,11)         =      1.401390    -0.002649     0.000544     1.401934
	   21 R(10,13)        =      1.258957     0.002253     0.000291     1.259247
	   22 R(11,14)        =      1.371522    -0.000716    -0.000034     1.371488
	   23 B(1,2,10)       =    122.725728    -0.000004    -0.013424   122.712304
	   24 B(1,2,16)       =    120.052198     0.000002     0.007985   120.060183
	   25 B(1,8,9)        =    121.749012    -0.000010    -0.242105   121.506907
	   26 B(1,8,11)       =    113.262578     0.000003    -0.105011   113.157568
	   27 B(2,1,8)        =    123.671928    -0.000001     0.094578   123.766506
	   28 B(2,1,15)       =    117.802338     0.000002    -0.049605   117.752733
	   29 B(2,10,5)       =    113.292318     0.000001    -0.056683   113.235635
	   30 B(2,10,13)      =    123.477563    -0.000000     0.042116   123.519679
	   31 B(3,6,12)       =    124.488295     0.000004     0.036988   124.525284
	   32 B(3,6,20)       =    119.373012    -0.000005    -0.003878   119.369133
	   33 B(3,9,4)        =    113.926841    -0.000006    -0.128289   113.798552
	   34 B(3,9,8)        =    121.594849     0.000005    -0.034683   121.560166
	   35 B(4,7,12)       =    125.030201    -0.000006    -0.032654   124.997547
	   36 B(4,7,21)       =    119.030893    -0.000002     0.003620   119.034513
	   37 B(4,9,8)        =    124.468441     0.000001     0.157468   124.625909
	   38 B(5,10,13)      =    123.230000    -0.000000     0.014617   123.244617
	   39 B(5,11,8)       =    125.121343    -0.000002    -0.016092   125.105250
	   40 B(5,11,14)      =    116.456496    -0.000018    -0.264479   116.192017
	   41 B(6,3,9)        =    121.253625    -0.000007     0.025629   121.279255
	   42 B(6,3,17)       =    118.375742     0.000002    -0.061918   118.313824
	   43 B(6,12,7)       =    114.658894     0.000008    -0.016596   114.642297
	   44 B(7,4,9)        =    120.641459     0.000008     0.114950   120.756409
	   45 B(7,4,18)       =    118.746929     0.000006     0.006753   118.753682
	   46 B(8,1,15)       =    118.494805    -0.000001    -0.051778   118.443027
	   47 B(8,11,14)      =    118.398555     0.000020     0.268831   118.667386
	   48 B(9,3,17)       =    120.358582     0.000005     0.033422   120.392004
	   49 B(9,4,18)       =    120.607178    -0.000013    -0.122491   120.484686
	   50 B(9,8,11)       =    124.985703     0.000007     0.344950   125.330653
	   51 B(10,2,16)      =    117.219960     0.000002     0.004544   117.224503
	   52 B(10,5,11)      =    121.923547     0.000004     0.096582   122.020129
	   53 B(10,5,19)      =    118.859112     0.000003    -0.007985   118.851128
	   54 B(11,5,19)      =    119.216254    -0.000007    -0.089204   119.127051
	   55 B(12,6,20)      =    116.137591     0.000001    -0.033809   116.103782
	   56 B(12,7,21)      =    115.938528     0.000008     0.028882   115.967410
	   57 D(1,2,10,5)     =      0.229318    -0.000000    -0.031574     0.197744
	   58 D(1,2,10,13)    =   -179.892737    -0.000000    -0.002899  -179.895636
	   59 D(1,8,9,3)      =    -15.091369    -0.000000    -0.025411   -15.116780
	   60 D(1,8,9,4)      =    163.695351    -0.000000    -0.328333   163.367018
	   61 D(1,8,11,5)     =      0.129021     0.000000    -0.061860     0.067161
	   62 D(1,8,11,14)    =    178.294421    -0.000001    -0.477416   177.817005
	   63 D(2,1,8,9)      =    179.781829    -0.000000    -0.139171   179.642658
	   64 D(2,1,8,11)     =      0.352105    -0.000000     0.052823     0.404928
	   65 D(2,10,5,11)    =      0.232622     0.000000     0.023556     0.256178
	   66 D(2,10,5,19)    =   -179.385003     0.000000     0.118900  -179.266103
	   67 D(3,6,12,7)     =     -0.028516    -0.000000    -0.088082    -0.116598
	   68 D(3,9,4,7)      =      0.250606    -0.000000    -0.168934     0.081672
	   69 D(3,9,4,18)     =    179.474934    -0.000001    -0.234991   179.239943
	   70 D(3,9,8,11)     =    164.269158    -0.000001    -0.245012   164.024146
	   71 D(4,7,12,6)     =     -0.034619    -0.000000    -0.046695    -0.081314
	   72 D(4,9,3,6)      =     -0.310386    -0.000000     0.045997    -0.264389
	   73 D(4,9,3,17)     =    178.406251    -0.000001    -0.099375   178.306876
	   74 D(4,9,8,11)     =    -16.944122    -0.000000    -0.547934   -17.492056
	   75 D(5,10,2,16)    =   -179.241192     0.000000     0.070568  -179.170624
	   76 D(5,11,8,9)     =   -179.279078     0.000000     0.142847  -179.136231
	   77 D(6,3,9,8)      =    178.595314    -0.000000    -0.223272   178.372043
	   78 D(6,12,7,21)    =   -179.807801     0.000000    -0.005093  -179.812894
	   79 D(7,4,9,8)      =   -178.618805    -0.000000     0.112461  -178.506344
	   80 D(7,12,6,20)    =   -179.642842     0.000000     0.019308  -179.623534
	   81 D(8,1,2,10)     =     -0.545953     0.000000    -0.008131    -0.554084
	   82 D(8,1,2,16)     =    178.910066    -0.000000    -0.113094   178.796972
	   83 D(8,9,3,17)     =     -2.688048    -0.000000    -0.368644    -3.056692
	   84 D(8,9,4,18)     =      0.605523    -0.000001     0.046404     0.651927
	   85 D(8,11,5,10)    =     -0.427439     0.000000     0.024941    -0.402498
	   86 D(8,11,5,19)    =    179.188861    -0.000000    -0.070354   179.118506
	   87 D(9,3,6,12)     =      0.215167     0.000001     0.087884     0.303050
	   88 D(9,3,6,20)     =    179.817856     0.000000    -0.022874   179.794982
	   89 D(9,4,7,12)     =     -0.087590     0.000001     0.182453     0.094864
	   90 D(9,4,7,21)     =    179.679132     0.000000     0.139725   179.818857
	   91 D(9,8,1,15)     =     -2.288485    -0.000001    -0.356821    -2.645306
	   92 D(9,8,11,14)    =     -1.113678    -0.000001    -0.272709    -1.386387
	   93 D(10,2,1,15)    =   -178.488989     0.000001     0.208191  -178.280798
	   94 D(10,5,11,14)   =   -178.624843     0.000001     0.422572  -178.202271
	   95 D(11,5,10,13)   =   -179.645669     0.000000    -0.005067  -179.650737
	   96 D(11,8,1,15)    =    178.281791    -0.000001    -0.164827   178.116964
	   97 D(12,6,3,17)    =   -178.526228     0.000001     0.229155  -178.297074
	   98 D(12,7,4,18)    =   -179.326140     0.000001     0.248396  -179.077744
	   99 D(13,10,2,16)   =      0.636753     0.000000     0.099243     0.735996
	  100 D(13,10,5,19)   =      0.736705     0.000000     0.090277     0.826982
	  101 D(14,11,5,19)   =      0.991457     0.000001     0.327277     1.318734
	  102 D(15,1,2,16)    =      0.967030     0.000000     0.103228     1.070258
	  103 D(17,3,6,20)    =      1.076460     0.000000     0.118397     1.194858
	  104 D(18,4,7,21)    =      0.440581     0.000001     0.205667     0.646249
	  105 R(4,14)         =      2.759580     0.008378     0.027486     2.787066
	  106 R(1,X)          =     -1.342424    -0.000721     0.005051    -1.337374
	  107 R(1,Y)          =      0.756430     0.000601    -0.000224     0.756206
	  108 R(1,Z)          =     -0.732683     0.000545     0.003304    -0.729380
	  109 R(2,X)          =     -2.425949    -0.000329     0.002659    -2.423290
	  110 R(2,Y)          =      1.322039     0.000223     0.000604     1.322643
	  111 R(2,Z)          =     -0.109962    -0.000476    -0.001692    -0.111654
	  112 R(3,X)          =      0.789406    -0.000343    -0.001954     0.787452
	  113 R(3,Y)          =     -0.716270    -0.000312    -0.002631    -0.718901
	  114 R(3,Z)          =     -2.113744    -0.000581     0.003326    -2.110418
	  115 R(4,X)          =      2.078586     0.002292     0.007019     2.085606
	  116 R(4,Y)          =     -0.749167    -0.000883     0.000689    -0.748478
	  117 R(4,Z)          =     -0.142783    -0.001892    -0.003848    -0.146630
	  118 R(5,X)          =     -1.486631    -0.000317    -0.005810    -1.492441
	  119 R(5,Y)          =      0.724272     0.000206     0.001138     0.725410
	  120 R(5,Z)          =      2.013568    -0.000932     0.000838     2.014406
	  121 R(6,X)          =      1.873968     0.000658    -0.003198     1.870770
	  122 R(6,Y)          =     -1.251902     0.000012     0.000208    -1.251694
	  123 R(6,Z)          =     -2.780728     0.000575    -0.001208    -2.781936
	  124 R(7,X)          =      3.109167     0.000399     0.004380     3.113547
	  125 R(7,Y)          =     -1.285296    -0.000156     0.001180    -1.284116
	  126 R(7,Z)          =     -0.894922    -0.000691    -0.007141    -0.902063
	  127 R(8,X)          =     -0.269919    -0.000021     0.003485    -0.266434
	  128 R(8,Y)          =      0.153664     0.000176    -0.000481     0.153183
	  129 R(8,Z)          =     -0.042153     0.002220     0.006476    -0.035677
	  130 R(9,X)          =      0.846600     0.000267     0.002302     0.848902
	  131 R(9,Y)          =     -0.432661    -0.000183    -0.002431    -0.435092
	  132 R(9,Z)          =     -0.739057    -0.000304     0.003483    -0.735574
	  133 R(10,X)         =     -2.576957     0.000125    -0.002945    -2.579902
	  134 R(10,Y)         =      1.343704    -0.000111     0.001709     1.345412
	  135 R(10,Z)         =      1.318853    -0.000262    -0.002501     1.316351
	  136 R(11,X)         =     -0.422840     0.000177    -0.003051    -0.425890
	  137 R(11,Y)         =      0.181650     0.000060    -0.000015     0.181635
	  138 R(11,Z)         =      1.350588    -0.000422     0.006281     1.356868
	  139 R(12,X)         =      3.047069    -0.001261    -0.000716     3.046353
	  140 R(12,Y)         =     -1.548997     0.000606     0.001363    -1.547635
	  141 R(12,Z)         =     -2.205739    -0.000032    -0.006592    -2.212332
	  142 R(13,X)         =     -3.565915    -0.001510    -0.004949    -3.570864
	  143 R(13,Y)         =      1.856951     0.000669     0.002348     1.859299
	  144 R(13,Z)         =      1.904951     0.001136    -0.005831     1.899120
	  145 R(14,X)         =      0.543448    -0.004002    -0.014871     0.528577
	  146 R(14,Y)         =     -0.408116     0.000471    -0.006531    -0.414647
	  147 R(14,Z)         =      2.124885     0.003838     0.015831     2.140716
	  148 R(15,X)         =     -1.297869     0.000434     0.010415    -1.287454
	  149 R(15,Y)         =      0.806798     0.000527     0.002307     0.809105
	  150 R(15,Z)         =     -1.811700     0.001440     0.003911    -1.807790
	  151 R(16,X)         =     -3.207551     0.000661     0.006132    -3.201419
	  152 R(16,Y)         =      1.784312    -0.000058     0.001764     1.786076
	  153 R(16,Z)         =     -0.696977     0.000083    -0.005005    -0.701983
	  154 R(17,X)         =     -0.117379     0.001017    -0.004630    -0.122009
	  155 R(17,Y)         =     -0.537462    -0.001463    -0.007475    -0.544937
	  156 R(17,Z)         =     -2.670069    -0.000301     0.006739    -2.663330
	  157 R(18,X)         =      2.242620     0.001443     0.011711     2.254331
	  158 R(18,Y)         =     -0.567863     0.000204     0.004621    -0.563242
	  159 R(18,Z)         =      0.903974    -0.002662    -0.005486     0.898488
	  160 R(19,X)         =     -1.512889     0.000412    -0.010217    -1.523106
	  161 R(19,Y)         =      0.681609    -0.000469    -0.000257     0.681351
	  162 R(19,Z)         =      3.091676    -0.001114     0.000507     3.092183
	  163 R(20,X)         =      1.795391     0.000597    -0.007134     1.788257
	  164 R(20,Y)         =     -1.461427    -0.000192    -0.000131    -1.461558
	  165 R(20,Z)         =     -3.840364     0.000504    -0.000794    -3.841158
	  166 R(21,X)         =      4.049856     0.000019     0.006319     4.056175
	  167 R(21,Y)         =     -1.514689     0.000074     0.002247    -1.512442
	  168 R(21,Z)         =     -0.409577    -0.000672    -0.010596    -0.420173
	 ---------------------------------------------------------------------------
	Successfully symmetrized geometry.
	 Forces used to impose fixed constraints are not included.
	  Forces zeroed: 59 

  ==> Convergence Check <==

  Measures of convergence in internal coordinates in au.
  Criteria marked as inactive (o), active & met (*), and active & unmet ( ).
  --------------------------------------------------------------------------------------------- ~
   Step     Total Energy     Delta E     MAX Force     RMS Force      MAX Disp      RMS Disp    ~
  --------------------------------------------------------------------------------------------- ~
    Convergence Criteria    1.00e-06 *    3.00e-04 *             o    1.20e-03 *             o  ~
  --------------------------------------------------------------------------------------------- ~
      1    -652.33597354   -6.52e+02      1.02e-03      1.34e-04 o    5.19e-02      7.72e-03 o  ~
  ---------------------------------------------------------------------------------------------

	Writing optimization data to binary file.
	
Fatal Error: PSIO Error
Error occurred in file: /scratch/psilocaluser/conda-builds/psi4_1495011512596/work/psi4/src/psi4/libpsio/error.cc on line: 129
The most recent 5 function calls were:

psi::PsiException::PsiException(std::__cxx11::basic_string<char, std::char_traits<char>, std::allocator<char> >, char const*, int)
psi::psio_error(unsigned int, unsigned int)
psi::PSIO::write(unsigned int, char const*, char*, unsigned long, psi::psio_address, psi::psio_address*)
psi::PSIO::write_entry(unsigned int, char const*, char*, unsigned long)
psi::psio_write_entry(unsigned int, char const*, char*, unsigned long)
