
    -----------------------------------------------------------------------
          Psi4: An Open-Source Ab Initio Electronic Structure Package
                               Psi4 1.1 release

                         Git: Rev {HEAD} add49b9 


    R. M. Parrish, L. A. Burns, D. G. A. Smith, A. C. Simmonett,
    A. E. DePrince III, E. G. Hohenstein, U. Bozkaya, A. Yu. Sokolov,
    R. Di Remigio, R. M. Richard, J. F. Gonthier, A. M. James,
    H. R. McAlexander, A. Kumar, M. Saitow, X. Wang, B. P. Pritchard,
    P. Verma, H. F. Schaefer III, K. Patkowski, R. A. King, E. F. Valeev,
    F. A. Evangelista, J. M. Turney, T. D. Crawford, and C. D. Sherrill,
    J. Chem. Theory Comput. in press (2017).
    (doi: 10.1021/acs.jctc.7b00174)

    -----------------------------------------------------------------------


    Psi4 started on: Saturday, 11 November 2017 11:46PM

    Process ID:  24722
    PSIDATADIR: /cbio/jclab/home/chayas/anaconda/envs/py35/share/psi4
    Memory:     500.0 MiB
    Threads:    8
    
  ==> Input File <==

--------------------------------------------------------------------------

memory 5 Gb

molecule phepyrFOH_neutral {
  symmetry C1
  0 1 
  C      1.885   -1.036   -0.112
  C      0.807   -0.463   0.561
  C      3.825   -3.269   -0.988
  C      5.328   -1.753   0.119
  C      1.800   -1.079   2.676
  C      4.927   -3.802   -1.637
  C      6.363   -2.354   -0.579
  C      2.921   -1.631   0.608
  C      4.038   -2.225   -0.095
  C      0.764   -0.484   1.955
  C      2.878   -1.652   2.002
  N      6.195   -3.370   -1.455
  O      -0.289   0.076   2.612
  F      3.866   -2.220   2.709
  H      1.904   -1.012   -1.199
  H      0.002   -0.002   -0.006
  H      2.833   -3.663   -1.183
  H      5.532   -0.940   0.809
  H      1.772   -1.099   3.762
  H      4.814   -4.616   -2.345
  H      7.387   -2.023   -0.446
  H      -0.005   0.411   3.477
  units Angstrom
}

dih_string = "2 10 13 22 210"
set optking fixed_dihedral = $dih_string

optimize('MP2/aug-cc-PVTZ')
--------------------------------------------------------------------------

  Memory set to   4.657 GiB by Python driver.
gradient() will perform analytic gradient computation.

*** tstart() called on gpu-2-7.local
*** at Sat Nov 11 23:46:00 2017

    SCF Algorithm Type (re)set to DF.

*** tstart() called on gpu-2-7.local
*** at Sat Nov 11 23:46:00 2017

   => Loading Basis Set <=

    Name: AUG-CC-PVTZ
    Role: ORBITAL
    Keyword: BASIS
    atoms 1-11  entry C          line   221 file /cbio/jclab/home/chayas/anaconda/envs/py35/share/psi4/basis/aug-cc-pvtz.gbs 
    atoms 12    entry N          line   267 file /cbio/jclab/home/chayas/anaconda/envs/py35/share/psi4/basis/aug-cc-pvtz.gbs 
    atoms 13    entry O          line   313 file /cbio/jclab/home/chayas/anaconda/envs/py35/share/psi4/basis/aug-cc-pvtz.gbs 
    atoms 14    entry F          line   359 file /cbio/jclab/home/chayas/anaconda/envs/py35/share/psi4/basis/aug-cc-pvtz.gbs 
    atoms 15-22 entry H          line    34 file /cbio/jclab/home/chayas/anaconda/envs/py35/share/psi4/basis/aug-cc-pvtz.gbs 


         ---------------------------------------------------------
                                   SCF
            by Justin Turney, Rob Parrish, and Andy Simmonett
                              RHF Reference
                        8 Threads,   4768 MiB Core
         ---------------------------------------------------------

  ==> Geometry <==

    Molecular point group: c1
    Full point group: C1

    Geometry (in Angstrom), charge = 0, multiplicity = 1:

       Center              X                  Y                   Z               Mass       
    ------------   -----------------  -----------------  -----------------  -----------------
           C         -1.322649655798     0.752714117707    -0.798993870083    12.000000000000
           C         -2.400649655798     1.325714117707    -0.125993870083    12.000000000000
           C          0.617350344202    -1.480285882293    -1.674993870083    12.000000000000
           C          2.120350344202     0.035714117707    -0.567993870083    12.000000000000
           C         -1.407649655798     0.709714117707     1.989006129917    12.000000000000
           C          1.719350344202    -2.013285882293    -2.323993870083    12.000000000000
           C          3.155350344202    -0.565285882293    -1.265993870083    12.000000000000
           C         -0.286649655798     0.157714117707    -0.078993870083    12.000000000000
           C          0.830350344202    -0.436285882293    -0.781993870083    12.000000000000
           C         -2.443649655798     1.304714117707     1.268006129917    12.000000000000
           C         -0.329649655798     0.136714117707     1.315006129917    12.000000000000
           N          2.987350344202    -1.581285882293    -2.141993870083    14.003074004780
           O         -3.496649655798     1.864714117707     1.925006129917    15.994914619560
           F          0.658350344202    -0.431285882293     2.022006129917    18.998403224000
           H         -1.303649655798     0.776714117707    -1.885993870083     1.007825032070
           H         -3.205649655798     1.786714117707    -0.692993870083     1.007825032070
           H         -0.374649655798    -1.874285882293    -1.869993870083     1.007825032070
           H          2.324350344202     0.848714117707     0.122006129917     1.007825032070
           H         -1.435649655798     0.689714117707     3.075006129917     1.007825032070
           H          1.606350344202    -2.827285882293    -3.031993870083     1.007825032070
           H          4.179350344202    -0.234285882293    -1.132993870083     1.007825032070
           H         -3.212649655798     2.199714117707     2.790006129917     1.007825032070

  Running in c1 symmetry.

  Rotational constants: A =      0.06325  B =      0.01307  C =      0.01165 [cm^-1]
  Rotational constants: A =   1896.19549  B =    391.94336  C =    349.24392 [MHz]
  Nuclear repulsion =  813.986570832605594

  Charge       = 0
  Multiplicity = 1
  Electrons    = 98
  Nalpha       = 49
  Nbeta        = 49

  ==> Algorithm <==

  SCF Algorithm Type is DF.
  DIIS enabled.
  MOM disabled.
  Fractional occupation disabled.
  Guess Type is SAD.
  Energy threshold   = 1.00e-10
  Density threshold  = 1.00e-10
  Integral threshold = 0.00e+00

  ==> Primary Basis <==

  Basis Set: AUG-CC-PVTZ
    Blend: AUG-CC-PVTZ
    Number of shells: 268
    Number of basis function: 828
    Number of Cartesian functions: 970
    Spherical Harmonics?: true
    Max angular momentum: 3

   => Loading Basis Set <=

    Name: (AUG-CC-PVTZ AUX)
    Role: JKFIT
    Keyword: DF_BASIS_SCF
    atoms 1-11  entry C          line   161 file /cbio/jclab/home/chayas/anaconda/envs/py35/share/psi4/basis/aug-cc-pvtz-jkfit.gbs 
    atoms 12    entry N          line   223 file /cbio/jclab/home/chayas/anaconda/envs/py35/share/psi4/basis/aug-cc-pvtz-jkfit.gbs 
    atoms 13    entry O          line   285 file /cbio/jclab/home/chayas/anaconda/envs/py35/share/psi4/basis/aug-cc-pvtz-jkfit.gbs 
    atoms 14    entry F          line   347 file /cbio/jclab/home/chayas/anaconda/envs/py35/share/psi4/basis/aug-cc-pvtz-jkfit.gbs 
    atoms 15-22 entry H          line    69 file /cbio/jclab/home/chayas/anaconda/envs/py35/share/psi4/basis/aug-cc-pvtz-jkfit.gbs 

  ==> Pre-Iterations <==

   -------------------------------------------------------
    Irrep   Nso     Nmo     Nalpha   Nbeta   Ndocc  Nsocc
   -------------------------------------------------------
     A        828     828       0       0       0       0
   -------------------------------------------------------
    Total     828     828      49      49      49       0
   -------------------------------------------------------

  ==> Integral Setup <==

  ==> DFJK: Density-Fitted J/K Matrices <==

    J tasked:                  Yes
    K tasked:                  Yes
    wK tasked:                  No
    OpenMP threads:              8
    Integrals threads:           8
    Memory (MB):              3576
    Algorithm:                Disk
    Integral Cache:           NONE
    Schwarz Cutoff:          1E-12
    Fitting Condition:       1E-12

   => Auxiliary Basis Set <=

  Basis Set: (AUG-CC-PVTZ AUX)
    Blend: AUG-CC-PVTZ-JKFIT
    Number of shells: 532
    Number of basis function: 1824
    Number of Cartesian functions: 2274
    Spherical Harmonics?: true
    Max angular momentum: 4

  Minimum eigenvalue in the overlap matrix is 7.6161728482E-07.
  Using Symmetric Orthogonalization.

  SCF Guess: Superposition of Atomic Densities via on-the-fly atomic UHF.

  ==> Iterations <==

                           Total Energy        Delta E     RMS |[F,P]|

   @DF-RHF iter   0:  -655.88883251147922   -6.55889e+02   1.58025e-02 
   @DF-RHF iter   1:  -649.78572943512904    6.10310e+00   2.00942e-03 
   @DF-RHF iter   2:  -650.11065366796504   -3.24924e-01   9.31078e-04 DIIS
   @DF-RHF iter   3:  -650.15774116290766   -4.70875e-02   3.89043e-04 DIIS
   @DF-RHF iter   4:  -650.17098663475201   -1.32455e-02   9.95406e-05 DIIS
   @DF-RHF iter   5:  -650.17232999511884   -1.34336e-03   3.84960e-05 DIIS
   @DF-RHF iter   6:  -650.17255160572677   -2.21611e-04   1.47332e-05 DIIS
   @DF-RHF iter   7:  -650.17257911609317   -2.75104e-05   3.70921e-06 DIIS
   @DF-RHF iter   8:  -650.17258210384273   -2.98775e-06   1.46438e-06 DIIS
   @DF-RHF iter   9:  -650.17258254486035   -4.41018e-07   7.24450e-07 DIIS
   @DF-RHF iter  10:  -650.17258264021712   -9.53568e-08   3.24204e-07 DIIS
   @DF-RHF iter  11:  -650.17258266759484   -2.73777e-08   1.04451e-07 DIIS
   @DF-RHF iter  12:  -650.17258267441809   -6.82326e-09   5.72472e-08 DIIS
   @DF-RHF iter  13:  -650.17258267513284   -7.14749e-10   2.32379e-08 DIIS
   @DF-RHF iter  14:  -650.17258267522061   -8.77662e-11   6.32173e-09 DIIS
   @DF-RHF iter  15:  -650.17258267522493   -4.32010e-12   2.24339e-09 DIIS
   @DF-RHF iter  16:  -650.17258267522459    3.41061e-13   1.36283e-09 DIIS
   @DF-RHF iter  17:  -650.17258267522971   -5.11591e-12   5.13872e-10 DIIS
   @DF-RHF iter  18:  -650.17258267522448    5.22959e-12   1.57344e-10 DIIS
   @DF-RHF iter  19:  -650.17258267521686    7.61702e-12   8.06056e-11 DIIS

  ==> Post-Iterations <==

    Orbital Energies (a.u.)
    -----------------------

    Doubly Occupied:                                                      

       1A    -26.327206     2A    -20.605967     3A    -15.565699  
       4A    -11.348914     5A    -11.325566     6A    -11.275224  
       7A    -11.274519     8A    -11.265745     9A    -11.264630  
      10A    -11.254030    11A    -11.253888    12A    -11.246183  
      13A    -11.239986    14A    -11.238829    15A     -1.645440  
      16A     -1.421577    17A     -1.250825    18A     -1.181783  
      19A     -1.110321    20A     -1.041105    21A     -1.034756  
      22A     -1.019377    23A     -0.891280    24A     -0.876233  
      25A     -0.853785    26A     -0.824917    27A     -0.772715  
      28A     -0.745201    29A     -0.725569    30A     -0.711652  
      31A     -0.698128    32A     -0.664915    33A     -0.661414  
      34A     -0.640965    35A     -0.635922    36A     -0.623464  
      37A     -0.605515    38A     -0.599379    39A     -0.568911  
      40A     -0.542490    41A     -0.533322    42A     -0.530014  
      43A     -0.522786    44A     -0.494688    45A     -0.419775  
      46A     -0.387764    47A     -0.359491    48A     -0.349495  
      49A     -0.326589  

    Virtual:                                                              

      50A      0.021813    51A      0.029183    52A      0.034280  
      53A      0.036711    54A      0.043944    55A      0.047110  
      56A      0.050901    57A      0.055744    58A      0.075402  
      59A      0.081935    60A      0.083265    61A      0.085660  
      62A      0.091106    63A      0.094953    64A      0.096937  
      65A      0.101225    66A      0.104796    67A      0.108283  
      68A      0.108887    69A      0.112881    70A      0.114794  
      71A      0.118384    72A      0.119678    73A      0.126230  
      74A      0.129529    75A      0.131412    76A      0.133407  
      77A      0.135943    78A      0.141204    79A      0.142833  
      80A      0.144903    81A      0.150878    82A      0.154065  
      83A      0.155767    84A      0.156040    85A      0.166174  
      86A      0.172579    87A      0.173930    88A      0.178071  
      89A      0.185794    90A      0.195302    91A      0.201173  
      92A      0.209218    93A      0.213888    94A      0.216833  
      95A      0.224685    96A      0.228077    97A      0.234312  
      98A      0.235360    99A      0.239656   100A      0.241918  
     101A      0.243741   102A      0.249799   103A      0.254438  
     104A      0.257338   105A      0.259693   106A      0.263722  
     107A      0.265291   108A      0.269312   109A      0.274739  
     110A      0.277451   111A      0.281205   112A      0.284747  
     113A      0.292347   114A      0.293887   115A      0.299438  
     116A      0.302609   117A      0.308575   118A      0.312651  
     119A      0.314969   120A      0.318629   121A      0.322707  
     122A      0.325489   123A      0.327618   124A      0.332601  
     125A      0.336829   126A      0.346765   127A      0.346955  
     128A      0.350528   129A      0.354375   130A      0.360163  
     131A      0.367296   132A      0.376132   133A      0.380188  
     134A      0.385623   135A      0.387599   136A      0.394659  
     137A      0.401103   138A      0.405577   139A      0.408774  
     140A      0.409545   141A      0.412799   142A      0.420309  
     143A      0.425837   144A      0.427467   145A      0.435125  
     146A      0.436055   147A      0.442835   148A      0.445408  
     149A      0.447877   150A      0.450952   151A      0.459281  
     152A      0.464967   153A      0.469329   154A      0.471930  
     155A      0.473433   156A      0.475063   157A      0.478308  
     158A      0.481252   159A      0.485455   160A      0.490033  
     161A      0.492278   162A      0.497329   163A      0.499098  
     164A      0.502320   165A      0.506006   166A      0.510219  
     167A      0.510650   168A      0.514705   169A      0.520787  
     170A      0.523330   171A      0.526641   172A      0.528516  
     173A      0.535531   174A      0.538491   175A      0.541315  
     176A      0.546362   177A      0.550932   178A      0.554463  
     179A      0.560079   180A      0.565450   181A      0.572681  
     182A      0.575981   183A      0.581266   184A      0.583472  
     185A      0.586919   186A      0.594180   187A      0.602890  
     188A      0.610729   189A      0.622750   190A      0.625075  
     191A      0.627728   192A      0.636866   193A      0.638673  
     194A      0.642803   195A      0.648744   196A      0.651524  
     197A      0.659878   198A      0.669279   199A      0.674309  
     200A      0.678882   201A      0.683656   202A      0.694566  
     203A      0.703367   204A      0.704247   205A      0.705874  
     206A      0.714445   207A      0.718411   208A      0.727865  
     209A      0.729099   210A      0.732814   211A      0.738182  
     212A      0.742207   213A      0.747838   214A      0.754620  
     215A      0.762775   216A      0.769753   217A      0.772017  
     218A      0.782889   219A      0.789538   220A      0.793657  
     221A      0.797724   222A      0.799016   223A      0.809333  
     224A      0.820007   225A      0.825838   226A      0.828062  
     227A      0.833952   228A      0.841948   229A      0.850360  
     230A      0.854183   231A      0.857294   232A      0.861793  
     233A      0.862426   234A      0.872085   235A      0.878704  
     236A      0.883330   237A      0.889670   238A      0.892603  
     239A      0.894814   240A      0.900350   241A      0.905010  
     242A      0.909774   243A      0.914256   244A      0.923696  
     245A      0.928572   246A      0.931318   247A      0.933812  
     248A      0.937373   249A      0.944465   250A      0.946183  
     251A      0.953329   252A      0.954376   253A      0.958452  
     254A      0.961992   255A      0.966380   256A      0.971280  
     257A      0.974148   258A      0.987767   259A      0.989411  
     260A      0.991002   261A      0.995733   262A      0.998569  
     263A      1.005362   264A      1.010820   265A      1.016783  
     266A      1.019114   267A      1.026347   268A      1.027670  
     269A      1.031645   270A      1.033361   271A      1.042209  
     272A      1.046321   273A      1.050125   274A      1.050915  
     275A      1.063049   276A      1.068027   277A      1.069888  
     278A      1.077027   279A      1.079874   280A      1.084635  
     281A      1.088017   282A      1.090841   283A      1.094998  
     284A      1.109244   285A      1.111501   286A      1.113835  
     287A      1.119896   288A      1.124401   289A      1.129694  
     290A      1.134619   291A      1.138272   292A      1.144201  
     293A      1.147197   294A      1.152248   295A      1.156039  
     296A      1.158591   297A      1.160655   298A      1.167380  
     299A      1.173474   300A      1.180477   301A      1.181830  
     302A      1.187998   303A      1.197313   304A      1.200326  
     305A      1.205902   306A      1.210369   307A      1.214997  
     308A      1.218743   309A      1.225447   310A      1.237788  
     311A      1.239348   312A      1.243644   313A      1.250855  
     314A      1.258427   315A      1.261414   316A      1.265922  
     317A      1.275734   318A      1.280324   319A      1.291195  
     320A      1.294533   321A      1.298028   322A      1.306794  
     323A      1.308369   324A      1.317900   325A      1.323750  
     326A      1.328954   327A      1.335270   328A      1.341718  
     329A      1.356430   330A      1.357103   331A      1.360192  
     332A      1.372386   333A      1.374839   334A      1.378648  
     335A      1.393488   336A      1.396295   337A      1.403294  
     338A      1.403719   339A      1.411676   340A      1.421046  
     341A      1.431803   342A      1.433703   343A      1.442549  
     344A      1.450736   345A      1.460907   346A      1.472229  
     347A      1.480653   348A      1.483744   349A      1.488488  
     350A      1.508262   351A      1.514777   352A      1.518202  
     353A      1.530300   354A      1.539654   355A      1.548943  
     356A      1.560482   357A      1.562995   358A      1.568033  
     359A      1.574511   360A      1.582754   361A      1.587792  
     362A      1.591287   363A      1.601721   364A      1.605842  
     365A      1.622837   366A      1.631309   367A      1.634899  
     368A      1.644576   369A      1.652760   370A      1.660900  
     371A      1.663298   372A      1.667567   373A      1.674384  
     374A      1.682548   375A      1.686711   376A      1.697235  
     377A      1.710103   378A      1.717521   379A      1.722123  
     380A      1.732072   381A      1.733180   382A      1.739658  
     383A      1.749703   384A      1.752454   385A      1.759573  
     386A      1.764458   387A      1.773727   388A      1.775125  
     389A      1.785222   390A      1.794090   391A      1.810253  
     392A      1.815946   393A      1.819998   394A      1.828903  
     395A      1.843713   396A      1.844993   397A      1.851907  
     398A      1.869256   399A      1.884042   400A      1.885239  
     401A      1.890502   402A      1.895652   403A      1.896760  
     404A      1.907976   405A      1.912739   406A      1.923505  
     407A      1.927769   408A      1.933472   409A      1.947389  
     410A      1.952946   411A      1.959495   412A      1.965462  
     413A      1.976859   414A      1.988812   415A      1.991454  
     416A      1.999870   417A      2.007076   418A      2.012789  
     419A      2.022643   420A      2.029192   421A      2.041726  
     422A      2.048729   423A      2.051671   424A      2.055399  
     425A      2.069135   426A      2.080987   427A      2.088543  
     428A      2.089120   429A      2.090042   430A      2.101582  
     431A      2.108969   432A      2.118612   433A      2.127473  
     434A      2.129637   435A      2.137167   436A      2.149054  
     437A      2.162213   438A      2.175100   439A      2.177220  
     440A      2.188888   441A      2.190612   442A      2.196457  
     443A      2.212431   444A      2.219273   445A      2.236080  
     446A      2.237998   447A      2.250444   448A      2.255478  
     449A      2.266344   450A      2.271599   451A      2.275065  
     452A      2.281196   453A      2.299057   454A      2.300490  
     455A      2.312074   456A      2.323002   457A      2.332336  
     458A      2.339900   459A      2.357455   460A      2.359947  
     461A      2.378577   462A      2.384370   463A      2.405259  
     464A      2.415254   465A      2.420573   466A      2.428377  
     467A      2.435914   468A      2.452631   469A      2.458515  
     470A      2.470607   471A      2.477877   472A      2.493928  
     473A      2.510430   474A      2.527908   475A      2.552726  
     476A      2.559637   477A      2.565184   478A      2.580833  
     479A      2.585844   480A      2.587183   481A      2.604640  
     482A      2.609066   483A      2.621609   484A      2.623882  
     485A      2.648461   486A      2.675647   487A      2.683365  
     488A      2.698864   489A      2.715745   490A      2.727168  
     491A      2.738854   492A      2.758419   493A      2.763373  
     494A      2.771743   495A      2.783639   496A      2.791980  
     497A      2.812284   498A      2.830145   499A      2.837379  
     500A      2.850595   501A      2.871333   502A      2.903169  
     503A      2.933548   504A      2.952101   505A      2.960292  
     506A      2.983070   507A      3.019663   508A      3.040027  
     509A      3.044858   510A      3.048509   511A      3.060334  
     512A      3.082262   513A      3.105295   514A      3.110010  
     515A      3.130612   516A      3.151206   517A      3.155617  
     518A      3.179119   519A      3.184549   520A      3.193307  
     521A      3.199063   522A      3.215072   523A      3.231535  
     524A      3.238002   525A      3.259876   526A      3.267772  
     527A      3.281039   528A      3.291712   529A      3.312137  
     530A      3.330572   531A      3.336143   532A      3.341794  
     533A      3.356443   534A      3.367313   535A      3.382022  
     536A      3.397063   537A      3.398596   538A      3.414608  
     539A      3.425598   540A      3.428618   541A      3.436840  
     542A      3.442844   543A      3.448474   544A      3.449723  
     545A      3.456643   546A      3.476486   547A      3.481251  
     548A      3.489113   549A      3.497304   550A      3.509438  
     551A      3.525888   552A      3.538573   553A      3.545016  
     554A      3.548731   555A      3.556950   556A      3.561202  
     557A      3.566973   558A      3.573783   559A      3.580923  
     560A      3.587701   561A      3.599153   562A      3.605321  
     563A      3.617962   564A      3.628595   565A      3.632662  
     566A      3.641941   567A      3.653649   568A      3.656483  
     569A      3.667608   570A      3.676723   571A      3.688971  
     572A      3.701307   573A      3.709934   574A      3.719827  
     575A      3.732039   576A      3.738829   577A      3.742814  
     578A      3.750877   579A      3.762944   580A      3.777961  
     581A      3.779276   582A      3.789009   583A      3.801025  
     584A      3.806788   585A      3.818906   586A      3.822413  
     587A      3.830159   588A      3.840169   589A      3.853425  
     590A      3.866459   591A      3.870571   592A      3.876252  
     593A      3.886853   594A      3.900000   595A      3.902215  
     596A      3.912482   597A      3.923790   598A      3.929119  
     599A      3.939227   600A      3.942986   601A      3.946763  
     602A      3.954274   603A      3.966745   604A      3.973834  
     605A      3.985028   606A      3.986884   607A      3.990152  
     608A      4.010685   609A      4.018879   610A      4.026471  
     611A      4.038147   612A      4.041542   613A      4.045558  
     614A      4.066012   615A      4.071707   616A      4.080517  
     617A      4.083711   618A      4.103330   619A      4.107813  
     620A      4.113835   621A      4.130137   622A      4.140662  
     623A      4.146641   624A      4.157576   625A      4.160905  
     626A      4.176240   627A      4.181077   628A      4.190155  
     629A      4.204732   630A      4.212566   631A      4.220051  
     632A      4.229967   633A      4.233754   634A      4.244304  
     635A      4.254911   636A      4.259802   637A      4.283462  
     638A      4.291902   639A      4.299108   640A      4.309780  
     641A      4.314738   642A      4.318835   643A      4.339976  
     644A      4.344794   645A      4.347690   646A      4.356211  
     647A      4.361723   648A      4.369961   649A      4.388256  
     650A      4.393607   651A      4.407188   652A      4.412799  
     653A      4.425299   654A      4.428703   655A      4.439578  
     656A      4.450838   657A      4.456272   658A      4.464229  
     659A      4.473419   660A      4.482632   661A      4.495942  
     662A      4.512300   663A      4.515495   664A      4.531773  
     665A      4.533525   666A      4.566848   667A      4.571779  
     668A      4.579418   669A      4.585088   670A      4.599205  
     671A      4.612104   672A      4.619039   673A      4.625194  
     674A      4.640546   675A      4.660446   676A      4.683397  
     677A      4.693361   678A      4.713039   679A      4.724499  
     680A      4.728117   681A      4.750389   682A      4.761191  
     683A      4.762513   684A      4.784176   685A      4.802606  
     686A      4.809202   687A      4.815908   688A      4.840428  
     689A      4.855164   690A      4.875949   691A      4.890770  
     692A      4.916268   693A      4.921284   694A      4.928843  
     695A      4.951377   696A      4.965407   697A      4.969193  
     698A      4.971879   699A      4.984118   700A      5.002839  
     701A      5.017179   702A      5.026415   703A      5.030519  
     704A      5.034468   705A      5.049841   706A      5.056320  
     707A      5.068224   708A      5.092032   709A      5.100583  
     710A      5.111004   711A      5.120966   712A      5.134843  
     713A      5.142071   714A      5.158042   715A      5.172307  
     716A      5.178495   717A      5.183695   718A      5.190089  
     719A      5.191557   720A      5.204497   721A      5.232930  
     722A      5.270427   723A      5.280539   724A      5.299108  
     725A      5.318034   726A      5.329522   727A      5.343299  
     728A      5.351158   729A      5.369028   730A      5.380141  
     731A      5.403293   732A      5.434831   733A      5.438440  
     734A      5.455445   735A      5.462667   736A      5.468101  
     737A      5.486975   738A      5.498260   739A      5.523166  
     740A      5.554396   741A      5.563938   742A      5.573659  
     743A      5.609436   744A      5.635054   745A      5.639813  
     746A      5.675160   747A      5.710692   748A      5.738497  
     749A      5.746336   750A      5.765359   751A      5.796248  
     752A      5.803380   753A      5.829925   754A      5.848529  
     755A      5.873836   756A      5.882412   757A      5.909052  
     758A      5.957409   759A      6.010861   760A      6.031431  
     761A      6.080966   762A      6.113588   763A      6.121962  
     764A      6.179056   765A      6.230023   766A      6.255401  
     767A      6.286122   768A      6.301076   769A      6.314560  
     770A      6.337052   771A      6.368649   772A      6.457128  
     773A      6.490654   774A      6.509195   775A      6.522439  
     776A      6.570251   777A      6.681474   778A      6.692236  
     779A      6.701325   780A      6.713899   781A      6.733912  
     782A      6.819227   783A      6.870670   784A      6.908493  
     785A      6.927273   786A      6.943337   787A      6.962505  
     788A      7.052687   789A      7.072733   790A      7.107447  
     791A      7.208673   792A      7.283021   793A      7.375502  
     794A      7.416769   795A      7.444642   796A      7.509116  
     797A      7.636851   798A      7.684507   799A      7.764745  
     800A      7.924688   801A      8.331554   802A      8.585895  
     803A      9.002661   804A      9.045128   805A      9.267826  
     806A      9.288453   807A      9.404794   808A      9.516766  
     809A      9.539209   810A      9.588569   811A      9.639002  
     812A      9.714195   813A     10.028650   814A     10.074225  
     815A     15.526646   816A     16.140804   817A     16.510163  
     818A     16.584235   819A     16.674818   820A     16.864222  
     821A     18.456482   822A     18.689843   823A     19.166369  
     824A     19.658427   825A     20.149906   826A     20.183748  
     827A     20.406672   828A     21.776093  

    Final Occupation by Irrep:
              A 
    DOCC [    49 ]

  Energy converged.

  @DF-RHF Final Energy:  -650.17258267521686

   => Energetics <=

    Nuclear Repulsion Energy =            813.9865708326055938
    One-Electron Energy =               -2502.8024070487426798
    Two-Electron Energy =                1038.6432535409203410
    DFT Exchange-Correlation Energy =       0.0000000000000000
    Empirical Dispersion Energy =           0.0000000000000000
    PCM Polarization Energy =               0.0000000000000000
    EFP Energy =                            0.0000000000000000
    Total Energy =                       -650.1725826752167450



Properties will be evaluated at   0.000000,   0.000000,   0.000000 Bohr

Properties computed using the SCF density matrix

  Nuclear Dipole Moment: (a.u.)
     X:    -1.9798      Y:     1.7007      Z:    -4.3547

  Electronic Dipole Moment: (a.u.)
     X:     1.1190      Y:    -0.9086      Z:     4.9203

  Dipole Moment: (a.u.)
     X:    -0.8608      Y:     0.7922      Z:     0.5656     Total:     1.2994

  Dipole Moment: (Debye)
     X:    -2.1880      Y:     2.0135      Z:     1.4376     Total:     3.3027


*** tstop() called on gpu-2-7.local at Sat Nov 11 23:54:34 2017
Module time:
	user time   =    1226.71 seconds =      20.45 minutes
	system time =      56.96 seconds =       0.95 minutes
	total time  =        514 seconds =       8.57 minutes
Total time:
	user time   =    1226.72 seconds =      20.45 minutes
	system time =      56.96 seconds =       0.95 minutes
	total time  =        514 seconds =       8.57 minutes

  //>>>>>>>>>>>>>>>>>>>>>>>>>>>>>>>>>>>//
  //               DFMP2               //
  //<<<<<<<<<<<<<<<<<<<<<<<<<<<<<<<<<<<//

   => Loading Basis Set <=

    Name: (AUG-CC-PVTZ AUX)
    Role: RIFIT
    Keyword: DF_BASIS_MP2
    atoms 1-11  entry C          line   147 file /cbio/jclab/home/chayas/anaconda/envs/py35/share/psi4/basis/aug-cc-pvtz-ri.gbs 
    atoms 12    entry N          line   205 file /cbio/jclab/home/chayas/anaconda/envs/py35/share/psi4/basis/aug-cc-pvtz-ri.gbs 
    atoms 13    entry O          line   263 file /cbio/jclab/home/chayas/anaconda/envs/py35/share/psi4/basis/aug-cc-pvtz-ri.gbs 
    atoms 14    entry F          line   321 file /cbio/jclab/home/chayas/anaconda/envs/py35/share/psi4/basis/aug-cc-pvtz-ri.gbs 
    atoms 15-22 entry H          line    29 file /cbio/jclab/home/chayas/anaconda/envs/py35/share/psi4/basis/aug-cc-pvtz-ri.gbs 

	 --------------------------------------------------------
	                          DF-MP2                         
	      2nd-Order Density-Fitted Moller-Plesset Theory     
	              RMP2 Wavefunction,   8 Threads             
	                                                         
	        Rob Parrish, Justin Turney, Andy Simmonett,      
	           Ed Hohenstein, and C. David Sherrill          
	 --------------------------------------------------------

   => Auxiliary Basis Set <=

  Basis Set: (AUG-CC-PVTZ AUX)
    Blend: AUG-CC-PVTZ-RI
    Number of shells: 504
    Number of basis function: 1852
    Number of Cartesian functions: 2344
    Spherical Harmonics?: true
    Max angular momentum: 4

	 --------------------------------------------------------
	                 NBF =   828, NAUX =  1852
	 --------------------------------------------------------
	   CLASS    FOCC     OCC    AOCC    AVIR     VIR    FVIR
	   PAIRS       0      49      49     779     779       0
	 --------------------------------------------------------


         ------------------------------------------------------------
                                     CPHF                           
                                  Rob Parrish                       
         ------------------------------------------------------------

  ==> Geometry <==

    Molecular point group: c1
    Full point group: C1

    Geometry (in Angstrom), charge = 0, multiplicity = 1:

       Center              X                  Y                   Z               Mass       
    ------------   -----------------  -----------------  -----------------  -----------------
           C         -1.322649655798     0.752714117707    -0.798993870083    12.000000000000
           C         -2.400649655798     1.325714117707    -0.125993870083    12.000000000000
           C          0.617350344202    -1.480285882293    -1.674993870083    12.000000000000
           C          2.120350344202     0.035714117707    -0.567993870083    12.000000000000
           C         -1.407649655798     0.709714117707     1.989006129917    12.000000000000
           C          1.719350344202    -2.013285882293    -2.323993870083    12.000000000000
           C          3.155350344202    -0.565285882293    -1.265993870083    12.000000000000
           C         -0.286649655798     0.157714117707    -0.078993870083    12.000000000000
           C          0.830350344202    -0.436285882293    -0.781993870083    12.000000000000
           C         -2.443649655798     1.304714117707     1.268006129917    12.000000000000
           C         -0.329649655798     0.136714117707     1.315006129917    12.000000000000
           N          2.987350344202    -1.581285882293    -2.141993870083    14.003074004780
           O         -3.496649655798     1.864714117707     1.925006129917    15.994914619560
           F          0.658350344202    -0.431285882293     2.022006129917    18.998403224000
           H         -1.303649655798     0.776714117707    -1.885993870083     1.007825032070
           H         -3.205649655798     1.786714117707    -0.692993870083     1.007825032070
           H         -0.374649655798    -1.874285882293    -1.869993870083     1.007825032070
           H          2.324350344202     0.848714117707     0.122006129917     1.007825032070
           H         -1.435649655798     0.689714117707     3.075006129917     1.007825032070
           H          1.606350344202    -2.827285882293    -3.031993870083     1.007825032070
           H          4.179350344202    -0.234285882293    -1.132993870083     1.007825032070
           H         -3.212649655798     2.199714117707     2.790006129917     1.007825032070

  Nuclear repulsion =  813.986570832605594
  Reference energy  = -650.172582675216859

  ==> Basis Set <==

  Basis Set: AUG-CC-PVTZ
    Blend: AUG-CC-PVTZ
    Number of shells: 268
    Number of basis function: 828
    Number of Cartesian functions: 970
    Spherical Harmonics?: true
    Max angular momentum: 3

  ==> CGRSolver (by Rob Parrish) <==

   Number of roots    =         1
   Preconditioning    =    JACOBI
   Convergence cutoff =     1E-06
   Maximum iterations =       100

  ==> CPHFRHamiltonian (by Rob Parrish) <== 

  ==> DFJK: Density-Fitted J/K Matrices <==

    J tasked:                  Yes
    K tasked:                  Yes
    wK tasked:                  No
    OpenMP threads:              8
    Integrals threads:           8
    Memory (MB):              3576
    Algorithm:                Disk
    Integral Cache:           NONE
    Schwarz Cutoff:          1E-12
    Fitting Condition:       1E-12

   => Auxiliary Basis Set <=

  Basis Set: (AUG-CC-PVTZ AUX)
    Blend: AUG-CC-PVTZ-JKFIT
    Number of shells: 532
    Number of basis function: 1824
    Number of Cartesian functions: 2274
    Spherical Harmonics?: true
    Max angular momentum: 4

  ==> CPHF Iterations <==

  => Iterations <=

             Iter  Converged  Remaining    Residual
  CGR           1          0          1   1.014E-01
  CGR           2          0          1   3.353E-02
  CGR           3          0          1   2.204E-02
  CGR           4          0          1   9.732E-03
  CGR           5          0          1   4.034E-03
  CGR           6          0          1   1.495E-03
  CGR           7          0          1   4.370E-04
  CGR           8          0          1   1.440E-04
  CGR           9          0          1   4.673E-05
  CGR          10          0          1   1.307E-05
  CGR          11          0          1   5.174E-06
  CGR          12          0          1   1.420E-06
  CGR          13          1          0   5.606E-07

    CGRSolver converged.

  ==> DFCorrGrad: Density-Fitted Correlated Gradients <==

    OpenMP threads:              8
    Integrals threads:           8
    Memory (MB):              3576
    Schwarz Cutoff:          0E+00
    Fitting Condition:       1E-12

   => Auxiliary Basis Set <=

  Basis Set: (AUG-CC-PVTZ AUX)
    Blend: AUG-CC-PVTZ-JKFIT
    Number of shells: 532
    Number of basis function: 1824
    Number of Cartesian functions: 2274
    Spherical Harmonics?: true
    Max angular momentum: 4

	-----------------------------------------------------------
	 ==================> DF-MP2 Energies <==================== 
	-----------------------------------------------------------
	 Reference Energy          =    -650.1725826752168587 [Eh]
	 Singles Energy            =      -0.0000000000000013 [Eh]
	 Same-Spin Energy          =      -0.6774154077423784 [Eh]
	 Opposite-Spin Energy      =      -2.0191613251083695 [Eh]
	 Correlation Energy        =      -2.6965767328507493 [Eh]
	 Total Energy              =    -652.8691594080676168 [Eh]
	-----------------------------------------------------------
	 ================> DF-SCS-MP2 Energies <================== 
	-----------------------------------------------------------
	 SCS Same-Spin Scale       =       0.3333333333333333 [-]
	 SCS Opposite-Spin Scale   =       1.2000000000000000 [-]
	 SCS Same-Spin Energy      =      -0.2258051359141261 [Eh]
	 SCS Opposite-Spin Energy  =      -2.4229935901300435 [Eh]
	 SCS Correlation Energy    =      -2.6487987260441708 [Eh]
	 SCS Total Energy          =    -652.8213814012610783 [Eh]
	-----------------------------------------------------------


  -Total Gradient:
     Atom            X                  Y                   Z
    ------   -----------------  -----------------  -----------------
       1        0.010831222914    -0.001219343111    -0.013660757258
       2        0.003998098870    -0.000127351196     0.003126348727
       3       -0.007157888406    -0.001028754228     0.002979137465
       4       -0.003810513320     0.005904507729     0.003742248226
       5       -0.008156090378     0.004093405238     0.000424405483
       6       -0.014051009752    -0.001016522359     0.002614520649
       7       -0.003137057410     0.009498217132     0.008712476278
       8       -0.000982401195     0.000658135322    -0.002563031176
       9       -0.001711299961     0.001034316631    -0.000870741347
      10       -0.012428455052     0.002528460032    -0.001478262087
      11        0.020900058225    -0.015355135451     0.005268149717
      12        0.013531579352    -0.006737982531    -0.008458963561
      13        0.003478728643    -0.007047499415    -0.000804647252
      14        0.001544080307    -0.000293826376     0.002283848806
      15       -0.002958439270     0.001232156606    -0.006223829878
      16       -0.003466201962     0.001253830561    -0.005523383187
      17       -0.003118180302    -0.002579300641    -0.002772269520
      18        0.002868642608     0.003644111859     0.002802532739
      19       -0.000321271529     0.000945151665     0.004714782772
      20        0.000394397424    -0.001774640427    -0.001989116398
      21        0.002489677790     0.000170815161     0.000088951433
      22        0.001262322399     0.006217247802     0.007587599375


*** tstop() called on gpu-2-7.local at Sun Nov 12 00:31:43 2017
Module time:
	user time   =    5844.22 seconds =      97.40 minutes
	system time =     120.26 seconds =       2.00 minutes
	total time  =       2743 seconds =      45.72 minutes
Total time:
	user time   =    5844.23 seconds =      97.40 minutes
	system time =     120.26 seconds =       2.00 minutes
	total time  =       2743 seconds =      45.72 minutes

			-----------------------------------------
			 OPTKING 2.0: for geometry optimizations 
			  - R.A. King,  Bethel University        
			-----------------------------------------

	Internal coordinates to be generated automatically.
	Detected frag 1 with atoms:  1 2 3 4 5 6 7 8 9 10 11 12 13 14 15 16 17 18 19 20
	 21 22
	---Fragment 1 Bond Connectivity---
	 1 : 2 8 15
	 2 : 1 10 16
	 3 : 6 9 17
	 4 : 7 9 18
	 5 : 10 11 19
	 6 : 3 12 20
	 7 : 4 12 21
	 8 : 1 9 11
	 9 : 3 4 8
	 10 : 2 5 13
	 11 : 5 8 14
	 12 : 6 7
	 13 : 10 22
	 14 : 11
	 15 : 1
	 16 : 2
	 17 : 3
	 18 : 4
	 19 : 5
	 20 : 6
	 21 : 7
	 22 : 13

	Assuming in current code that numbering for constraints corresponds to unified fragment.
	Fixed dihedral atom list: 
	     2    10    13    22
	---Fragment 1 Geometry and Gradient---
	 C          -2.4994456192        1.4224235388       -1.5098795963
	 C          -4.5365703905        2.5052366130       -0.2380939089
	 C           1.1666230786       -2.7973349159       -3.1652796887
	 C           4.0068814563        0.0674899015       -1.0733528596
	 C          -2.6600723405        1.3411653151        3.7586768622
	 C           3.2491012770       -3.8045589447       -4.3917119490
	 C           5.9627480038       -1.0682355043       -2.3923817004
	 C          -0.5416893455        0.2980364898       -0.1492767806
	 C           1.5691347449       -0.8244608332       -1.4777542521
	 C          -4.6178286142        2.4655523642        2.3961843204
	 C          -0.6229475693        0.2583522410        2.4850014486
	 N           5.6452740135       -2.9881972553       -4.0477817928
	 O          -6.6077102321        3.5237989986        3.6377343897
	 F           1.2441018500       -0.8150122025        3.8210378246
	 H          -2.4635408227        1.4677769660       -3.5640119028
	 H          -6.0577999274        3.3764003602       -1.3095686262
	 H          -0.7079852452       -3.5418870123       -3.5337762846
	 H           4.3923855874        1.6038372476        0.2305581721
	 H          -2.7129846722        1.3033707925        5.8109194425
	 H           3.0355622240       -5.3427960169       -5.7296380510
	 H           7.8978275639       -0.4427361543       -2.1410481247
	 H          -6.0710280104        4.1568572531        5.2723474946
	             0.0108312229       -0.0012193431       -0.0136607573
	             0.0039980989       -0.0001273512        0.0031263487
	            -0.0071578884       -0.0010287542        0.0029791375
	            -0.0038105133        0.0059045077        0.0037422482
	            -0.0081560904        0.0040934052        0.0004244055
	            -0.0140510098       -0.0010165224        0.0026145206
	            -0.0031370574        0.0094982171        0.0087124763
	            -0.0009824012        0.0006581353       -0.0025630312
	            -0.0017113000        0.0010343166       -0.0008707413
	            -0.0124284551        0.0025284600       -0.0014782621
	             0.0209000582       -0.0153551355        0.0052681497
	             0.0135315794       -0.0067379825       -0.0084589636
	             0.0034787286       -0.0070474994       -0.0008046473
	             0.0015440803       -0.0002938264        0.0022838488
	            -0.0029584393        0.0012321566       -0.0062238299
	            -0.0034662020        0.0012538306       -0.0055233832
	            -0.0031181803       -0.0025793006       -0.0027722695
	             0.0028686426        0.0036441119        0.0028025327
	            -0.0003212715        0.0009451517        0.0047147828
	             0.0003943974       -0.0017746404       -0.0019891164
	             0.0024896778        0.0001708152        0.0000889514
	             0.0012623224        0.0062172478        0.0075875994

	Previous optimization step data not found.  Starting new optimization.

	---Fragment 1 Intrafragment Coordinates---
	 - Coordinate -           - BOHR/RAD -       - ANG/DEG -
	 R(1,2)           =         2.634350	       1.394038
	 R(1,8)           =         2.635962	       1.394891
	 R(1,15)          =         2.054947	       1.087431
	 R(2,10)          =         2.635830	       1.394821
	 R(2,16)          =         2.054537	       1.087214
	 R(3,6)           =         2.618273	       1.385530
	 R(3,9)           =         2.627164	       1.390235
	 R(3,17)          =         2.050440	       1.085046
	 R(4,7)           =         2.618229	       1.385507
	 R(4,9)           =         2.627114	       1.390209
	 R(4,18)          =         2.051624	       1.085673
	 R(5,10)          =         2.636938	       1.395407
	 R(5,11)          =         2.635263	       1.394521
	 R(5,19)          =         2.053272	       1.086545
	 R(6,12)          =         2.554678	       1.351877
	 R(6,20)          =         2.049834	       1.084725
	 R(7,12)          =         2.554876	       1.351982
	 R(7,21)          =         2.049134	       1.084355
	 R(8,9)           =         2.735038	       1.447320
	 R(8,11)          =         2.635830	       1.394821
	 R(10,13)         =         2.573123	       1.361638
	 R(11,14)         =         2.534359	       1.341125
	 R(13,22)         =         1.833235	       0.970106
	 B(1,2,10)        =         2.094553	     120.009056
	 B(1,2,16)        =         2.088723	     119.675016
	 B(1,8,9)         =         2.091569	     119.838095
	 B(1,8,11)        =         2.093692	     119.959722
	 B(2,1,8)         =         2.094940	     120.031219
	 B(2,1,15)        =         2.079469	     119.144799
	 B(2,10,5)        =         2.094306	     119.994870
	 B(2,10,13)       =         2.094247	     119.991510
	 B(3,6,12)        =         2.165211	     124.057445
	 B(3,6,20)        =         2.107791	     120.767548
	 B(3,9,4)         =         2.089790	     119.736135
	 B(3,9,8)         =         2.096656	     120.129524
	 B(4,7,12)        =         2.164668	     124.026364
	 B(4,7,21)        =         2.107421	     120.746344
	 B(4,9,8)         =         2.096739	     120.134309
	 B(5,10,13)       =         2.094633	     120.013619
	 B(5,11,8)        =         2.095181	     120.045019
	 B(5,11,14)       =         2.081414	     119.256220
	 B(6,3,9)         =         2.057714	     117.898335
	 B(6,3,17)        =         2.098197	     120.217854
	 B(6,12,7)        =         2.030771	     116.354583
	 B(7,4,9)         =         2.058217	     117.927126
	 B(7,4,18)        =         2.099769	     120.307895
	 B(8,1,15)        =         2.108776	     120.823969
	 B(8,11,14)       =         2.106591	     120.698759
	 B(9,3,17)        =         2.127271	     121.883627
	 B(9,4,18)        =         2.125200	     121.764971
	 B(9,8,11)        =         2.097924	     120.202184
	 B(10,2,16)       =         2.099909	     120.315896
	 B(10,5,11)       =         2.093699	     119.960108
	 B(10,5,19)       =         2.100355	     120.341451
	 B(10,13,22)      =         1.923947	     110.234070
	 B(11,5,19)       =         2.089132	     119.698439
	 B(12,6,20)       =         2.010181	     115.174900
	 B(12,7,21)       =         2.011095	     115.227270
	 D(1,2,10,5)      =        -0.000325	      -0.018609
	 D(1,2,10,13)     =         3.141388	     179.988267
	 D(1,8,9,3)       =        -1.047732	     -60.030615
	 D(1,8,9,4)       =         2.092736	     119.904915
	 D(1,8,11,5)      =         0.000325	       0.018608
	 D(1,8,11,14)     =        -3.141528	    -179.996269
	 D(2,1,8,9)       =         3.141277	     179.981897
	 D(2,1,8,11)      =        -0.000348	      -0.019945
	 D(2,10,5,11)     =         0.000301	       0.017261
	 D(2,10,5,19)     =        -3.141029	    -179.967685
	 D(2,10,13,22)    =        -2.618601	    -150.034761
	 D(3,6,12,7)      =         0.000000	       0.000000
	 D(3,9,4,7)       =        -0.000043	      -0.002444
	 D(3,9,4,18)      =        -3.141070	    -179.970061
	 D(3,9,8,11)      =         2.093893	     119.971231
	 D(4,7,12,6)      =        -0.000490	      -0.028079
	 D(4,9,3,6)       =        -0.000394	      -0.022595
	 D(4,9,3,17)      =        -3.139269	    -179.866889
	 D(4,9,8,11)      =        -1.048825	     -60.093239
	 D(5,10,2,16)     =         3.140149	     179.917291
	 D(5,10,13,22)    =         0.523112	      29.972116
	 D(5,11,8,9)      =        -3.141300	    -179.983240
	 D(6,3,9,8)       =         3.140078	     179.913192
	 D(6,12,7,21)     =         3.140154	     179.917593
	 D(7,4,9,8)       =        -3.140515	    -179.938228
	 D(7,12,6,20)     =         3.139530	     179.881843
	 D(8,1,2,10)      =         0.000348	       0.019955
	 D(8,1,2,16)      =        -3.140133	    -179.916358
	 D(8,9,3,17)      =         0.001202	       0.068898
	 D(8,9,4,18)      =         0.001643	       0.094154
	 D(8,11,5,10)     =        -0.000301	      -0.017270
	 D(8,11,5,19)     =         3.141030	     179.967774
	 D(9,3,6,12)      =         0.000430	       0.024638
	 D(9,3,6,20)      =        -3.138988	    -179.850775
	 D(9,4,7,12)      =         0.000513	       0.029399
	 D(9,4,7,21)      =        -3.140081	    -179.913416
	 D(9,8,1,15)      =         0.000403	       0.023110
	 D(9,8,11,14)     =         0.000033	       0.001883
	 D(10,2,1,15)     =         3.141234	     179.979432
	 D(10,5,11,14)    =         3.141547	     179.997392
	 D(11,5,10,13)    =        -3.141411	    -179.989616
	 D(11,8,1,15)     =        -3.141221	    -179.978731
	 D(12,6,3,17)     =         3.139352	     179.871634
	 D(12,7,4,18)     =         3.141549	     179.997508
	 D(13,10,2,16)    =        -0.001324	      -0.075833
	 D(13,10,5,19)    =         0.000444	       0.025437
	 D(14,11,5,19)    =        -0.000307	      -0.017564
	 D(15,1,2,16)     =         0.000753	       0.043120
	 D(17,3,6,20)     =        -0.000066	      -0.003779
	 D(18,4,7,21)     =         0.000955	       0.054693
	 R(4,14)          =         5.689185	       3.010587

	Current energy   :      -652.8691594081

	Generating empirical Hessian (Schlegel '84) for each fragment.
	Adding user-defined constraint: Fragment 1; Coordinate 69:
		Value =    -2.618601; Fixed value    =    -2.617994
		Force =     0.000303; Force constant =     0.500000
	Removing off-diagonal coupling between coordinate 69 and others.
	Taking RFO optimization step.
	Going to follow RFO solution 1.
	Using RFO vector 1.

	Determining step-restricting scale parameter for RS-RFO.
	Maximum step size allowed    0.10000

	 Iter      |step|        alpha        rfo_root  
	------------------------------------------------
	    0     0.22480       1.00000           1
	    1     0.16742       4.10122           1
	    2     0.13300      11.62034           1
	    3     0.11112      24.20976           1
	    4     0.10176      33.38844           1
	    5     0.10005      35.41690           1
	    6     0.10000      35.48360           1
	------------------------------------------------
	Norm of target step-size    0.10000
	Projected energy change by RFO approximation:        -0.0049112028

	Back-transformation to cartesian coordinates...
	Could not converge backtransformation.
	Using first guess instead.

	--- Internal Coordinate Step in ANG or DEG, aJ/ANG or AJ/DEG ---
	 ---------------------------------------------------------------------------
	   Coordinate                Previous        Force       Change         New 
	   ----------                --------       ------       ------       ------
	    1 R(1,2)          =      1.394038    -0.052976    -0.005356     1.388682
	    2 R(1,8)          =      1.394891    -0.029276    -0.002718     1.392173
	    3 R(1,15)         =      1.087431    -0.051053    -0.006350     1.081081
	    4 R(2,10)         =      1.394821    -0.080179    -0.008172     1.386649
	    5 R(2,16)         =      1.087214    -0.049256    -0.006060     1.081154
	    6 R(3,6)          =      1.385530     0.006201     0.000610     1.386140
	    7 R(3,9)          =      1.390235    -0.018028    -0.001373     1.388862
	    8 R(3,17)         =      1.085046    -0.035308    -0.004365     1.080681
	    9 R(4,7)          =      1.385507     0.001927     0.000172     1.385679
	   10 R(4,9)          =      1.390209    -0.017754    -0.001251     1.388958
	   11 R(4,18)         =      1.085673    -0.041598    -0.005152     1.080521
	   12 R(5,10)         =      1.395407    -0.048503    -0.004979     1.390428
	   13 R(5,11)         =      1.394521    -0.105222    -0.010650     1.383871
	   14 R(5,19)         =      1.086545    -0.038750    -0.004749     1.081796
	   15 R(6,12)         =      1.351877    -0.121154    -0.011208     1.340669
	   16 R(6,20)         =      1.084725    -0.021329    -0.002634     1.082091
	   17 R(7,12)         =      1.351982    -0.117062    -0.010855     1.341127
	   18 R(7,21)         =      1.084355    -0.019890    -0.002449     1.081906
	   19 R(8,9)          =      1.447320     0.131521     0.015562     1.462882
	   20 R(8,11)         =      1.394821    -0.076014    -0.007385     1.387436
	   21 R(10,13)        =      1.361638     0.006056     0.000718     1.362356
	   22 R(11,14)        =      1.341125    -0.021882    -0.001847     1.339278
	   23 R(13,22)        =      0.970106    -0.076473    -0.007023     0.963083
	   24 B(1,2,10)       =    120.009056    -0.000155    -0.290149   119.718907
	   25 B(1,2,16)       =    119.675016     0.000296     0.654389   120.329406
	   26 B(1,8,9)        =    119.838095     0.000646     1.114866   120.952960
	   27 B(1,8,11)       =    119.959722    -0.000911    -1.685331   118.274391
	   28 B(2,1,8)        =    120.031219     0.000498     1.001617   121.032836
	   29 B(2,1,15)       =    119.144799     0.000002     0.083030   119.227829
	   30 B(2,10,5)       =    119.994870    -0.000017    -0.031367   119.963503
	   31 B(2,10,13)      =    119.991510    -0.000622    -1.129267   118.862243
	   32 B(3,6,12)       =    124.057445    -0.000032    -0.122996   123.934449
	   33 B(3,6,20)       =    120.767548    -0.000039    -0.066378   120.701170
	   34 B(3,9,4)        =    119.736135    -0.000827    -1.418977   118.317159
	   35 B(3,9,8)        =    120.129524     0.000407     0.661979   120.791503
	   36 B(4,7,12)       =    124.026364    -0.000012    -0.087013   123.939351
	   37 B(4,7,21)       =    120.746344    -0.000040    -0.063748   120.682596
	   38 B(4,9,8)        =    120.134309     0.000420     0.756965   120.891275
	   39 B(5,10,13)      =    120.013619     0.000639     1.160558   121.174177
	   40 B(5,11,8)       =    120.045019     0.000790     1.415232   121.460251
	   41 B(5,11,14)      =    119.256220    -0.000180    -0.369766   118.886455
	   42 B(6,3,9)        =    117.898335     0.000365     0.771344   118.669680
	   43 B(6,3,17)       =    120.217854    -0.000005     0.026400   120.244254
	   44 B(6,12,7)       =    116.354583     0.000153     0.111543   116.466126
	   45 B(7,4,9)        =    117.927126     0.000353     0.746053   118.673179
	   46 B(7,4,18)       =    120.307895    -0.000023    -0.017048   120.290847
	   47 B(8,1,15)       =    120.823969    -0.000500    -1.084821   119.739148
	   48 B(8,11,14)      =    120.698759    -0.000610    -1.045816   119.652943
	   49 B(9,3,17)       =    121.883627    -0.000360    -0.797627   121.086000
	   50 B(9,4,18)       =    121.764971    -0.000330    -0.729002   121.035969
	   51 B(9,8,11)       =    120.202184     0.000266     0.570465   120.772649
	   52 B(10,2,16)      =    120.315896    -0.000141    -0.364263   119.951633
	   53 B(10,5,11)      =    119.960108    -0.000205    -0.410366   119.549742
	   54 B(10,5,19)      =    120.341451     0.000155     0.326671   120.668122
	   55 B(10,13,22)     =    110.234070    -0.000302    -0.697991   109.536078
	   56 B(11,5,19)      =    119.698439     0.000050     0.083648   119.782087
	   57 B(12,6,20)      =    115.174900     0.000071     0.189480   115.364380
	   58 B(12,7,21)      =    115.227270     0.000052     0.150783   115.378052
	   59 D(1,2,10,5)     =     -0.018609     0.000005     0.107445     0.088836
	   60 D(1,2,10,13)    =    179.988267     0.000013     0.200419   180.188686
	   61 D(1,8,9,3)      =    -60.030615     0.000033     0.589161   -59.441454
	   62 D(1,8,9,4)      =    119.904915     0.000032     0.560558   120.465473
	   63 D(1,8,11,5)     =      0.018608     0.000006     0.103125     0.121732
	   64 D(1,8,11,14)    =   -179.996269    -0.000005    -0.099837  -180.096106
	   65 D(2,1,8,9)      =    179.981897     0.000004     0.075354   180.057251
	   66 D(2,1,8,11)     =     -0.019945     0.000004     0.079498     0.059553
	   67 D(2,10,5,11)    =      0.017261     0.000005     0.070700     0.087962
	   68 D(2,10,5,19)    =   -179.967685     0.000008     0.136214  -179.831471
	   69 D(2,10,13,22)   =   -150.034761    -0.000017    -0.113034  -150.147794
	   70 D(3,6,12,7)     =      0.000000    -0.000001    -0.019174    -0.019174
	   71 D(3,9,4,7)      =     -0.002444     0.000004     0.051256     0.048812
	   72 D(3,9,4,18)     =   -179.970061     0.000000    -0.007918  -179.977979
	   73 D(3,9,8,11)     =    119.971231     0.000033     0.584956   120.556186
	   74 D(4,7,12,6)     =     -0.028079     0.000000     0.004112    -0.023966
	   75 D(4,9,3,6)      =     -0.022595    -0.000004    -0.065212    -0.087808
	   76 D(4,9,3,17)     =   -179.866889    -0.000008    -0.127190  -179.994079
	   77 D(4,9,8,11)     =    -60.093239     0.000033     0.556353   -59.536886
	   78 D(5,10,2,16)    =    179.917291     0.000004     0.087199   180.004491
	   79 D(5,10,13,22)   =     29.972116    -0.000008    -0.018807    29.953309
	   80 D(5,11,8,9)     =   -179.983240     0.000006     0.107270  -179.875970
	   81 D(6,3,9,8)      =    179.913192    -0.000004    -0.091726   179.821466
	   82 D(6,12,7,21)    =    179.917593     0.000003     0.053204   179.970797
	   83 D(7,4,9,8)      =   -179.938228     0.000004     0.077861  -179.860367
	   84 D(7,12,6,20)    =    179.881843     0.000005     0.087329   179.969172
	   85 D(8,1,2,10)     =      0.019955    -0.000009    -0.184085    -0.164131
	   86 D(8,1,2,16)     =   -179.916358    -0.000008    -0.163103  -180.079461
	   87 D(8,9,3,17)     =      0.068898    -0.000008    -0.153704    -0.084806
	   88 D(8,9,4,18)     =      0.094154     0.000000     0.018687     0.112842
	   89 D(8,11,5,10)    =     -0.017270    -0.000010    -0.178675    -0.195945
	   90 D(8,11,5,19)    =    179.967774    -0.000013    -0.243563   179.724210
	   91 D(9,3,6,12)     =      0.024638     0.000003     0.051325     0.075962
	   92 D(9,3,6,20)     =   -179.850775    -0.000003    -0.061016  -179.911791
	   93 D(9,4,7,12)     =      0.029399    -0.000001    -0.021000     0.008400
	   94 D(9,4,7,21)     =   -179.913416    -0.000004    -0.072683  -179.986099
	   95 D(9,8,1,15)     =      0.023110    -0.000006    -0.124419    -0.101309
	   96 D(9,8,11,14)    =      0.001883    -0.000005    -0.095691    -0.093808
	   97 D(10,2,1,15)    =    179.979432     0.000001     0.014199   179.993631
	   98 D(10,5,11,14)   =    179.997392    -0.000000     0.022874   180.020266
	   99 D(11,5,10,13)   =   -179.989616    -0.000003    -0.024628  -180.014244
	  100 D(11,8,1,15)    =   -179.978731    -0.000007    -0.120276  -180.099007
	  101 D(12,6,3,17)    =    179.871634     0.000006     0.111413   179.983047
	  102 D(12,7,4,18)    =    179.997508     0.000002     0.037477   180.034985
	  103 D(13,10,2,16)   =     -0.075833     0.000012     0.180173     0.104340
	  104 D(13,10,5,19)   =      0.025437    -0.000000     0.040886     0.066324
	  105 D(14,11,5,19)   =     -0.017564    -0.000003    -0.042015    -0.059579
	  106 D(15,1,2,16)    =      0.043120     0.000002     0.035181     0.078301
	  107 D(17,3,6,20)    =     -0.003779     0.000000    -0.000927    -0.004706
	  108 D(18,4,7,21)    =      0.054693    -0.000001    -0.014207     0.040487
	  109 R(4,14)         =      3.010587     0.009690     0.002874     3.013461
	 ---------------------------------------------------------------------------
	Successfully symmetrized geometry.
	 Forces used to impose fixed constraints are not included.
	  Forces zeroed: 69 

  ==> Convergence Check <==

  Measures of convergence in internal coordinates in au.
  Criteria marked as inactive (o), active & met (*), and active & unmet ( ).
  --------------------------------------------------------------------------------------------- ~
   Step     Total Energy     Delta E     MAX Force     RMS Force      MAX Disp      RMS Disp    ~
  --------------------------------------------------------------------------------------------- ~
    Convergence Criteria    1.00e-06 *    3.00e-04 *             o    1.20e-03 *             o  ~
  --------------------------------------------------------------------------------------------- ~
      1    -652.86915941   -6.53e+02      1.60e-02      4.62e-03 o    2.94e-02      9.58e-03 o  ~
  ---------------------------------------------------------------------------------------------

	Writing optimization data to binary file.
	Structure for next step:
	Cartesian Geometry (in Angstrom)
	    C    -1.3420202930   0.7565378297  -0.7762342187
	    C    -2.4152072608   1.3290472057  -0.1062033217
	    C     0.6399270617  -1.4793739601  -1.6842984627
	    C     2.1316360211   0.0167658471  -0.5776701950
	    C    -1.4123674490   0.7180770136   1.9921348578
	    C     1.7418240805  -2.0142277167  -2.3332503085
	    C     3.1676337362  -0.5842869454  -1.2744851571
	    C    -0.2941918373   0.1626795037  -0.0779980903
	    C     0.8360961736  -0.4388114370  -0.7855858676
	    C    -2.4502495037   1.3086239986   1.2798524117
	    C    -0.3488562659   0.1555204826   1.3083422736
	    N     2.9994973453  -1.5888513738  -2.1469548391
	    O    -3.5132573488   1.8719131617   1.9191755389
	    F     0.6434428095  -0.4101154008   2.0076733550
	    H    -1.3228632302   0.7768445264  -1.8569549471
	    H    -3.2222996676   1.7883535498  -0.6598579011
	    H    -0.3490426424  -1.8685620522  -1.8801112083
	    H     2.3345266240   0.8235717075   0.1118406252
	    H    -1.4293629359   0.6933370010   3.0735146327
	    H     1.6266325472  -2.8246485056  -3.0409724069
	    H     4.1891549599  -0.2553496007  -1.1373134977
	    H    -3.2319453520   2.2086657544   2.7764915853
			--------------------------
			 OPTKING Finished Execution 
			--------------------------

    Structure for next step:
    Molecular point group: c1
    Full point group: C1

    Geometry (in Angstrom), charge = 0, multiplicity = 1:

    C           -1.340257965063     0.754315839794    -0.774737879489
    C           -2.413444932843     1.326825215772    -0.104706982510
    C            0.641689389674    -1.481595950007    -1.682802123487
    C            2.133398349104     0.014543857165    -0.576173855824
    C           -1.410605121044     0.715855023708     1.993631196988
    C            1.743586408439    -2.016449706584    -2.331753969283
    C            3.169396064206    -0.586508935334    -1.272988817872
    C           -0.292429509311     0.160457513839    -0.076501751097
    C            0.837858501562    -0.441033426909    -0.784089528352
    C           -2.448487175722     1.306402008710     1.281348750942
    C           -0.347093937971     0.153298492699     1.309838612801
    N            3.001259673303    -1.591073363729    -2.145458499913
    O           -3.511495020866     1.869691171790     1.920671878097
    F            0.645205137501    -0.412337390653     2.009169694183
    H           -1.321100902234     0.774622536523    -1.855458607920
    H           -3.220537339622     1.786131559859    -0.658361561881
    H           -0.347280314429    -1.870784042062    -1.878614869058
    H            2.336288951967     0.821349717620     0.113336964400
    H           -1.427600607964     0.691115011086     3.075010971868
    H            1.628394875147    -2.826870495472    -3.039476067696
    H            4.190917287841    -0.257571590559    -1.135817158485
    H           -3.230183024064     2.206443764518     2.777987924532

gradient() will perform analytic gradient computation.

*** tstart() called on gpu-2-7.local
*** at Sun Nov 12 00:31:44 2017

    SCF Algorithm Type (re)set to DF.

*** tstart() called on gpu-2-7.local
*** at Sun Nov 12 00:31:44 2017

   => Loading Basis Set <=

    Name: AUG-CC-PVTZ
    Role: ORBITAL
    Keyword: BASIS
    atoms 1-11  entry C          line   221 file /cbio/jclab/home/chayas/anaconda/envs/py35/share/psi4/basis/aug-cc-pvtz.gbs 
    atoms 12    entry N          line   267 file /cbio/jclab/home/chayas/anaconda/envs/py35/share/psi4/basis/aug-cc-pvtz.gbs 
    atoms 13    entry O          line   313 file /cbio/jclab/home/chayas/anaconda/envs/py35/share/psi4/basis/aug-cc-pvtz.gbs 
    atoms 14    entry F          line   359 file /cbio/jclab/home/chayas/anaconda/envs/py35/share/psi4/basis/aug-cc-pvtz.gbs 
    atoms 15-22 entry H          line    34 file /cbio/jclab/home/chayas/anaconda/envs/py35/share/psi4/basis/aug-cc-pvtz.gbs 


         ---------------------------------------------------------
                                   SCF
            by Justin Turney, Rob Parrish, and Andy Simmonett
                              RHF Reference
                        8 Threads,   4768 MiB Core
         ---------------------------------------------------------

  ==> Geometry <==

    Molecular point group: c1
    Full point group: C1

    Geometry (in Angstrom), charge = 0, multiplicity = 1:

       Center              X                  Y                   Z               Mass       
    ------------   -----------------  -----------------  -----------------  -----------------
           C         -1.340257965063     0.754315839794    -0.774737879489    12.000000000000
           C         -2.413444932843     1.326825215772    -0.104706982510    12.000000000000
           C          0.641689389674    -1.481595950007    -1.682802123487    12.000000000000
           C          2.133398349104     0.014543857165    -0.576173855824    12.000000000000
           C         -1.410605121044     0.715855023708     1.993631196988    12.000000000000
           C          1.743586408439    -2.016449706584    -2.331753969283    12.000000000000
           C          3.169396064206    -0.586508935334    -1.272988817872    12.000000000000
           C         -0.292429509311     0.160457513839    -0.076501751097    12.000000000000
           C          0.837858501562    -0.441033426909    -0.784089528352    12.000000000000
           C         -2.448487175722     1.306402008710     1.281348750942    12.000000000000
           C         -0.347093937971     0.153298492699     1.309838612801    12.000000000000
           N          3.001259673303    -1.591073363729    -2.145458499913    14.003074004780
           O         -3.511495020866     1.869691171790     1.920671878097    15.994914619560
           F          0.645205137501    -0.412337390653     2.009169694183    18.998403224000
           H         -1.321100902234     0.774622536523    -1.855458607920     1.007825032070
           H         -3.220537339622     1.786131559859    -0.658361561881     1.007825032070
           H         -0.347280314429    -1.870784042062    -1.878614869058     1.007825032070
           H          2.336288951967     0.821349717620     0.113336964400     1.007825032070
           H         -1.427600607964     0.691115011086     3.075010971868     1.007825032070
           H          1.628394875147    -2.826870495472    -3.039476067696     1.007825032070
           H          4.190917287841    -0.257571590559    -1.135817158485     1.007825032070
           H         -3.230183024064     2.206443764518     2.777987924532     1.007825032070

  Running in c1 symmetry.

  Rotational constants: A =      0.06435  B =      0.01295  C =      0.01156 [cm^-1]
  Rotational constants: A =   1929.08470  B =    388.29830  C =    346.66479 [MHz]
  Nuclear repulsion =  814.479709871432533

  Charge       = 0
  Multiplicity = 1
  Electrons    = 98
  Nalpha       = 49
  Nbeta        = 49

  ==> Algorithm <==

  SCF Algorithm Type is DF.
  DIIS enabled.
  MOM disabled.
  Fractional occupation disabled.
  Guess Type is READ.
  Energy threshold   = 1.00e-10
  Density threshold  = 1.00e-10
  Integral threshold = 0.00e+00

  ==> Primary Basis <==

  Basis Set: AUG-CC-PVTZ
    Blend: AUG-CC-PVTZ
    Number of shells: 268
    Number of basis function: 828
    Number of Cartesian functions: 970
    Spherical Harmonics?: true
    Max angular momentum: 3

   => Loading Basis Set <=

    Name: (AUG-CC-PVTZ AUX)
    Role: JKFIT
    Keyword: DF_BASIS_SCF
    atoms 1-11  entry C          line   161 file /cbio/jclab/home/chayas/anaconda/envs/py35/share/psi4/basis/aug-cc-pvtz-jkfit.gbs 
    atoms 12    entry N          line   223 file /cbio/jclab/home/chayas/anaconda/envs/py35/share/psi4/basis/aug-cc-pvtz-jkfit.gbs 
    atoms 13    entry O          line   285 file /cbio/jclab/home/chayas/anaconda/envs/py35/share/psi4/basis/aug-cc-pvtz-jkfit.gbs 
    atoms 14    entry F          line   347 file /cbio/jclab/home/chayas/anaconda/envs/py35/share/psi4/basis/aug-cc-pvtz-jkfit.gbs 
    atoms 15-22 entry H          line    69 file /cbio/jclab/home/chayas/anaconda/envs/py35/share/psi4/basis/aug-cc-pvtz-jkfit.gbs 

  Reading orbitals from file 180, no projection.

  ==> Pre-Iterations <==

   -------------------------------------------------------
    Irrep   Nso     Nmo     Nalpha   Nbeta   Ndocc  Nsocc
   -------------------------------------------------------
     A        828     828       0       0       0       0
   -------------------------------------------------------
    Total     828     828      49      49      49       0
   -------------------------------------------------------

  ==> Integral Setup <==

  ==> DFJK: Density-Fitted J/K Matrices <==

    J tasked:                  Yes
    K tasked:                  Yes
    wK tasked:                  No
    OpenMP threads:              8
    Integrals threads:           8
    Memory (MB):              3576
    Algorithm:                Disk
    Integral Cache:           NONE
    Schwarz Cutoff:          1E-12
    Fitting Condition:       1E-12

   => Auxiliary Basis Set <=

  Basis Set: (AUG-CC-PVTZ AUX)
    Blend: AUG-CC-PVTZ-JKFIT
    Number of shells: 532
    Number of basis function: 1824
    Number of Cartesian functions: 2274
    Spherical Harmonics?: true
    Max angular momentum: 4

  Minimum eigenvalue in the overlap matrix is 7.3113295114E-07.
  Using Symmetric Orthogonalization.

  SCF Guess: Orbitals guess was supplied from a previous computation.

  ==> Iterations <==

                           Total Energy        Delta E     RMS |[F,P]|

   @DF-RHF iter   0:  -650.23335732331066   -6.50233e+02   4.14929e-04 
   @DF-RHF iter   1:  -650.17827416008765    5.50832e-02   7.69588e-05 
   @DF-RHF iter   2:  -650.17856682858655   -2.92668e-04   3.56694e-05 DIIS
   @DF-RHF iter   3:  -650.17873043548798   -1.63607e-04   1.05569e-05 DIIS
   @DF-RHF iter   4:  -650.17873666761773   -6.23213e-06   3.45833e-06 DIIS
   @DF-RHF iter   5:  -650.17873850296735   -1.83535e-06   1.53740e-06 DIIS
   @DF-RHF iter   6:  -650.17873886824702   -3.65280e-07   4.81127e-07 DIIS
   @DF-RHF iter   7:  -650.17873900158054   -1.33334e-07   3.41363e-07 DIIS
   @DF-RHF iter   8:  -650.17873903587906   -3.42985e-08   1.12998e-07 DIIS
   @DF-RHF iter   9:  -650.17873903911595   -3.23689e-09   4.39042e-08 DIIS
   @DF-RHF iter  10:  -650.17873903944565   -3.29692e-10   1.17570e-08 DIIS
   @DF-RHF iter  11:  -650.17873903948703   -4.13820e-11   4.21329e-09 DIIS
   @DF-RHF iter  12:  -650.17873903948180    5.22959e-12   1.54683e-09 DIIS
   @DF-RHF iter  13:  -650.17873903948214   -3.41061e-13   5.74223e-10 DIIS
   @DF-RHF iter  14:  -650.17873903948498   -2.84217e-12   3.33880e-10 DIIS
   @DF-RHF iter  15:  -650.17873903949442   -9.43601e-12   1.62193e-10 DIIS
   @DF-RHF iter  16:  -650.17873903946952    2.48974e-11   4.47931e-11 DIIS

  ==> Post-Iterations <==

    Orbital Energies (a.u.)
    -----------------------

    Doubly Occupied:                                                      

       1A    -26.324918     2A    -20.605819     3A    -15.564085  
       4A    -11.346180     5A    -11.323824     6A    -11.273462  
       7A    -11.272700     8A    -11.267104     9A    -11.262671  
      10A    -11.254055    11A    -11.251410    12A    -11.242759  
      13A    -11.239274    14A    -11.237987    15A     -1.645003  
      16A     -1.423497    17A     -1.256790    18A     -1.184179  
      19A     -1.111662    20A     -1.042821    21A     -1.034939  
      22A     -1.022835    23A     -0.891845    24A     -0.876644  
      25A     -0.856345    26A     -0.826926    27A     -0.773451  
      28A     -0.746506    29A     -0.726406    30A     -0.711173  
      31A     -0.697699    32A     -0.666226    33A     -0.662256  
      34A     -0.642161    35A     -0.636722    36A     -0.624611  
      37A     -0.606788    38A     -0.598200    39A     -0.570130  
      40A     -0.545087    41A     -0.537372    42A     -0.530660  
      43A     -0.523215    44A     -0.496602    45A     -0.419484  
      46A     -0.390348    47A     -0.360405    48A     -0.348726  
      49A     -0.328727  

    Virtual:                                                              

      50A      0.021871    51A      0.029312    52A      0.034304  
      53A      0.036812    54A      0.043863    55A      0.047168  
      56A      0.051042    57A      0.055772    58A      0.075503  
      59A      0.082633    60A      0.083319    61A      0.085883  
      62A      0.092053    63A      0.094951    64A      0.096988  
      65A      0.101245    66A      0.105067    67A      0.108338  
      68A      0.108968    69A      0.113094    70A      0.114983  
      71A      0.118420    72A      0.119577    73A      0.126322  
      74A      0.129503    75A      0.131516    76A      0.133439  
      77A      0.136007    78A      0.141297    79A      0.142991  
      80A      0.145470    81A      0.151025    82A      0.154447  
      83A      0.155519    84A      0.155946    85A      0.166163  
      86A      0.172631    87A      0.173642    88A      0.177986  
      89A      0.185609    90A      0.195690    91A      0.201479  
      92A      0.208900    93A      0.214054    94A      0.216472  
      95A      0.224680    96A      0.228006    97A      0.234212  
      98A      0.235395    99A      0.239585   100A      0.241823  
     101A      0.243817   102A      0.249333   103A      0.254139  
     104A      0.257345   105A      0.259393   106A      0.263816  
     107A      0.265272   108A      0.269732   109A      0.275075  
     110A      0.277451   111A      0.281394   112A      0.285143  
     113A      0.292138   114A      0.294620   115A      0.299852  
     116A      0.303092   117A      0.309109   118A      0.313107  
     119A      0.315874   120A      0.319051   121A      0.322786  
     122A      0.325509   123A      0.328559   124A      0.333364  
     125A      0.337410   126A      0.346963   127A      0.347265  
     128A      0.350931   129A      0.355035   130A      0.360682  
     131A      0.367651   132A      0.376042   133A      0.380386  
     134A      0.386127   135A      0.388086   136A      0.395496  
     137A      0.400873   138A      0.405102   139A      0.409530  
     140A      0.411332   141A      0.413297   142A      0.421851  
     143A      0.425925   144A      0.427374   145A      0.435558  
     146A      0.436785   147A      0.442653   148A      0.446167  
     149A      0.448180   150A      0.451592   151A      0.459111  
     152A      0.465692   153A      0.469789   154A      0.472503  
     155A      0.473859   156A      0.476105   157A      0.479148  
     158A      0.482619   159A      0.485778   160A      0.490275  
     161A      0.492543   162A      0.497431   163A      0.500067  
     164A      0.502767   165A      0.506430   166A      0.510456  
     167A      0.511449   168A      0.514887   169A      0.520512  
     170A      0.523491   171A      0.528511   172A      0.528859  
     173A      0.536272   174A      0.538116   175A      0.541842  
     176A      0.545625   177A      0.550587   178A      0.556093  
     179A      0.559913   180A      0.565358   181A      0.572285  
     182A      0.575979   183A      0.582252   184A      0.584224  
     185A      0.588745   186A      0.592688   187A      0.601984  
     188A      0.611229   189A      0.622072   190A      0.624871  
     191A      0.627484   192A      0.636451   193A      0.639254  
     194A      0.642664   195A      0.649726   196A      0.651864  
     197A      0.662360   198A      0.669930   199A      0.675259  
     200A      0.679073   201A      0.683646   202A      0.695089  
     203A      0.703695   204A      0.705595   205A      0.707330  
     206A      0.714896   207A      0.719651   208A      0.726730  
     209A      0.730356   210A      0.734062   211A      0.739442  
     212A      0.744005   213A      0.749046   214A      0.753425  
     215A      0.763923   216A      0.769392   217A      0.771468  
     218A      0.784057   219A      0.790843   220A      0.794183  
     221A      0.798234   222A      0.799177   223A      0.809265  
     224A      0.821021   225A      0.826182   226A      0.828693  
     227A      0.837196   228A      0.842264   229A      0.850475  
     230A      0.853037   231A      0.858827   232A      0.861696  
     233A      0.863653   234A      0.872886   235A      0.879376  
     236A      0.883298   237A      0.889961   238A      0.893785  
     239A      0.895009   240A      0.902536   241A      0.904749  
     242A      0.911033   243A      0.914491   244A      0.924488  
     245A      0.929512   246A      0.931760   247A      0.932643  
     248A      0.935828   249A      0.944252   250A      0.946621  
     251A      0.952475   252A      0.956420   253A      0.958589  
     254A      0.964123   255A      0.967716   256A      0.969206  
     257A      0.975389   258A      0.987551   259A      0.988989  
     260A      0.990411   261A      0.995363   262A      0.997899  
     263A      1.004757   264A      1.011125   265A      1.016761  
     266A      1.020199   267A      1.026450   268A      1.027315  
     269A      1.031201   270A      1.034656   271A      1.040907  
     272A      1.045865   273A      1.051365   274A      1.052100  
     275A      1.064526   276A      1.067982   277A      1.070848  
     278A      1.076299   279A      1.079242   280A      1.084000  
     281A      1.087605   282A      1.090835   283A      1.096286  
     284A      1.108883   285A      1.112335   286A      1.113088  
     287A      1.120540   288A      1.125269   289A      1.129225  
     290A      1.134264   291A      1.139121   292A      1.143486  
[...]
	           Ed Hohenstein, and C. David Sherrill          
	 --------------------------------------------------------

   => Auxiliary Basis Set <=

  Basis Set: (AUG-CC-PVTZ AUX)
    Blend: AUG-CC-PVTZ-RI
    Number of shells: 504
    Number of basis function: 1852
    Number of Cartesian functions: 2344
    Spherical Harmonics?: true
    Max angular momentum: 4

	 --------------------------------------------------------
	                 NBF =   828, NAUX =  1852
	 --------------------------------------------------------
	   CLASS    FOCC     OCC    AOCC    AVIR     VIR    FVIR
	   PAIRS       0      49      49     779     779       0
	 --------------------------------------------------------


         ------------------------------------------------------------
                                     CPHF                           
                                  Rob Parrish                       
         ------------------------------------------------------------

  ==> Geometry <==

    Molecular point group: c1
    Full point group: C1

    Geometry (in Angstrom), charge = 0, multiplicity = 1:

       Center              X                  Y                   Z               Mass       
    ------------   -----------------  -----------------  -----------------  -----------------
           C         -1.352400590576     0.734270858162    -0.761730668265    12.000000000000
           C         -2.423264875332     1.309894408009    -0.097658109444    12.000000000000
           C          0.650675771596    -1.472674971584    -1.696877312827    12.000000000000
           C          2.147304164781    -0.010595618538    -0.570343441371    12.000000000000
           C         -1.408702996448     0.729874492932     2.001622713914    12.000000000000
           C          1.747342017603    -2.008212486420    -2.354388050587    12.000000000000
           C          3.180610694431    -0.608648187659    -1.273331167049    12.000000000000
           C         -0.288883328525     0.157288464530    -0.073242561588    12.000000000000
           C          0.844534109744    -0.446267838874    -0.780935887339    12.000000000000
           C         -2.452443256955     1.303352287331     1.287937034042    12.000000000000
           C         -0.350153116822     0.176584487248     1.312349010554    12.000000000000
           N          3.001503076778    -1.594824662871    -2.156922025162    14.003074004780
           O         -3.528905095769     1.866201946076     1.909632739095    15.994914619560
           F          0.647231405243    -0.377541815936     2.019170818631    18.998403224000
           H         -1.330079472268     0.740595717917    -1.840914675999     1.007825032070
           H         -3.235602344754     1.762040993130    -0.643324635670     1.007825032070
           H         -0.341102565454    -1.850457555108    -1.894223602843     1.007825032070
           H          2.353114540883     0.784249774743     0.129587650063     1.007825032070
           H         -1.415544810162     0.705263457528     3.080573375918     1.007825032070
           H          1.617905469465    -2.808334360831    -3.069987790333     1.007825032070
           H          4.200896990587    -0.283294939936    -1.125901879587     1.007825032070
           H         -3.256102128953     2.217029770250     2.761841048026     1.007825032070

  Nuclear repulsion =  814.208798240981764
  Reference energy  = -650.180450843633025

  ==> Basis Set <==

  Basis Set: AUG-CC-PVTZ
    Blend: AUG-CC-PVTZ
    Number of shells: 268
    Number of basis function: 828
    Number of Cartesian functions: 970
    Spherical Harmonics?: true
    Max angular momentum: 3

  ==> CGRSolver (by Rob Parrish) <==

   Number of roots    =         1
   Preconditioning    =    JACOBI
   Convergence cutoff =     1E-06
   Maximum iterations =       100

  ==> CPHFRHamiltonian (by Rob Parrish) <== 

  ==> DFJK: Density-Fitted J/K Matrices <==

    J tasked:                  Yes
    K tasked:                  Yes
    wK tasked:                  No
    OpenMP threads:              8
    Integrals threads:           8
    Memory (MB):              3576
    Algorithm:                Disk
    Integral Cache:           NONE
    Schwarz Cutoff:          1E-12
    Fitting Condition:       1E-12

   => Auxiliary Basis Set <=

  Basis Set: (AUG-CC-PVTZ AUX)
    Blend: AUG-CC-PVTZ-JKFIT
    Number of shells: 532
    Number of basis function: 1824
    Number of Cartesian functions: 2274
    Spherical Harmonics?: true
    Max angular momentum: 4

  ==> CPHF Iterations <==

  => Iterations <=

             Iter  Converged  Remaining    Residual
  CGR           1          0          1   1.004E-01
  CGR           2          0          1   3.219E-02
  CGR           3          0          1   2.118E-02
  CGR           4          0          1   9.062E-03
  CGR           5          0          1   3.796E-03
  CGR           6          0          1   1.434E-03
  CGR           7          0          1   4.195E-04
  CGR           8          0          1   1.386E-04
  CGR           9          0          1   4.555E-05
  CGR          10          0          1   1.460E-05
  CGR          11          0          1   7.025E-06
  CGR          12          0          1   2.985E-06
  CGR          13          0          1   1.419E-06
  CGR          14          1          0   5.026E-07

    CGRSolver converged.

  ==> DFCorrGrad: Density-Fitted Correlated Gradients <==

    OpenMP threads:              8
    Integrals threads:           8
    Memory (MB):              3576
    Schwarz Cutoff:          0E+00
    Fitting Condition:       1E-12

   => Auxiliary Basis Set <=

  Basis Set: (AUG-CC-PVTZ AUX)
    Blend: AUG-CC-PVTZ-JKFIT
    Number of shells: 532
    Number of basis function: 1824
    Number of Cartesian functions: 2274
    Spherical Harmonics?: true
    Max angular momentum: 4

	-----------------------------------------------------------
	 ==================> DF-MP2 Energies <==================== 
	-----------------------------------------------------------
	 Reference Energy          =    -650.1804508436330252 [Eh]
	 Singles Energy            =      -0.0000000000000003 [Eh]
	 Same-Spin Energy          =      -0.6763674796217686 [Eh]
	 Opposite-Spin Energy      =      -2.0163699402019852 [Eh]
	 Correlation Energy        =      -2.6927374198237541 [Eh]
	 Total Energy              =    -652.8731882634567683 [Eh]
	-----------------------------------------------------------
	 ================> DF-SCS-MP2 Energies <================== 
	-----------------------------------------------------------
	 SCS Same-Spin Scale       =       0.3333333333333333 [-]
	 SCS Opposite-Spin Scale   =       1.2000000000000000 [-]
	 SCS Same-Spin Energy      =      -0.2254558265405895 [Eh]
	 SCS Opposite-Spin Energy  =      -2.4196439282423823 [Eh]
	 SCS Correlation Energy    =      -2.6450997547829722 [Eh]
	 SCS Total Energy          =    -652.8255505984160436 [Eh]
	-----------------------------------------------------------


  -Total Gradient:
     Atom            X                  Y                   Z
    ------   -----------------  -----------------  -----------------
       1        0.002845959350     0.000983888519    -0.001250355560
       2        0.000507769958     0.002406849040     0.001734974628
       3       -0.000242717626    -0.000917965868     0.001636326302
       4       -0.000639202171     0.001209146896    -0.000503334685
       5        0.000463574917    -0.000752771630    -0.001049836963
       6       -0.001058609259    -0.000106383468     0.000382764831
       7       -0.000231576595     0.000748349882     0.000750181942
       8       -0.003024302635     0.001426246148     0.001048553507
       9        0.001623396603    -0.000805898047    -0.001723764599
      10       -0.002196101727    -0.001949344815    -0.001209492403
      11        0.001885453671    -0.003028867924     0.002327729696
      12        0.000507995223    -0.000285644694    -0.000389185624
      13        0.000338137360    -0.002177334344     0.002158693463
      14       -0.001365118016     0.000829814266    -0.001299186862
      15       -0.000586731889     0.000016843628     0.000190250568
      16        0.000056943242    -0.000488319252    -0.000532152024
      17        0.000199761911     0.000118749787    -0.000471059101
      18        0.000199710774    -0.000010018009    -0.000156180119
      19       -0.000274697920     0.000621261845     0.000173953960
      20        0.000345784281    -0.000104019835    -0.000182827754
      21        0.000203280272    -0.000232309216    -0.000186141997
      22        0.000441290260     0.002497727101    -0.001449911191


*** tstop() called on gpu-2-7.local at Sun Nov 12 02:03:58 2017
Module time:
	user time   =    5811.04 seconds =      96.85 minutes
	system time =     112.44 seconds =       1.87 minutes
	total time  =       2739 seconds =      45.65 minutes
Total time:
	user time   =   17584.20 seconds =     293.07 minutes
	system time =     350.71 seconds =       5.85 minutes
	total time  =       8278 seconds =     137.97 minutes

			-----------------------------------------
			 OPTKING 2.0: for geometry optimizations 
			  - R.A. King,  Bethel University        
			-----------------------------------------

	Previous internal coordinate definitions found.
	---Fragment 1 Geometry and Gradient---
	 C          -2.5556667381        1.3875708293       -1.4394623500
	 C          -4.5793069618        2.4753416941       -0.1845470815
	 C           1.2295990096       -2.7829523790       -3.2066334023
	 C           4.0578167954       -0.0200228172       -1.0777929059
	 C          -2.6620628659        1.3792629030        3.7825187507
	 C           3.3019978738       -3.7949716160       -4.4491486261
	 C           6.0104831478       -1.1501783860       -2.4062471822
	 C          -0.5459103753        0.2972321218       -0.1384083827
	 C           1.5959381773       -0.8433239974       -1.4757549544
	 C          -4.6344461121        2.4629788777        2.4338482707
	 C          -0.6616934954        0.3336963202        2.4799802207
	 N           5.6720188021       -3.0137818428       -4.0759919175
	 O          -6.6686641799        3.5266105867        3.6086828913
	 F           1.2230901005       -0.7134506358        3.8156798627
	 H          -2.5134859376        1.3995230821       -3.4788245716
	 H          -6.1144023065        3.3297749119       -1.2157073760
	 H          -0.6445904319       -3.4968579997       -3.5795638438
	 H           4.4467420416        1.4820172940        0.2448851688
	 H          -2.6749920200        1.3327547863        5.8214400127
	 H           3.0573982462       -5.3069828315       -5.8014361550
	 H           7.9385448247       -0.5353498513       -2.1276462049
	 H          -6.1531412844        4.1895790942        5.2191232033
	             0.0028459594        0.0009838885       -0.0012503556
	             0.0005077700        0.0024068490        0.0017349746
	            -0.0002427176       -0.0009179659        0.0016363263
	            -0.0006392022        0.0012091469       -0.0005033347
	             0.0004635749       -0.0007527716       -0.0010498370
	            -0.0010586093       -0.0001063835        0.0003827648
	            -0.0002315766        0.0007483499        0.0007501819
	            -0.0030243026        0.0014262461        0.0010485535
	             0.0016233966       -0.0008058980       -0.0017237646
	            -0.0021961017       -0.0019493448       -0.0012094924
	             0.0018854537       -0.0030288679        0.0023277297
	             0.0005079952       -0.0002856447       -0.0003891856
	             0.0003381374       -0.0021773343        0.0021586935
	            -0.0013651180        0.0008298143       -0.0012991869
	            -0.0005867319        0.0000168436        0.0001902506
	             0.0000569432       -0.0004883193       -0.0005321520
	             0.0001997619        0.0001187498       -0.0004710591
	             0.0001997108       -0.0000100180       -0.0001561801
	            -0.0002746979        0.0006212618        0.0001739540
	             0.0003457843       -0.0001040198       -0.0001828278
	             0.0002032803       -0.0002323092       -0.0001861420
	             0.0004412903        0.0024977271       -0.0014499112

	---Fragment 1 Intrafragment Coordinates---
	 - Coordinate -           - BOHR/RAD -       - ANG/DEG -
	 R(1,2)           =         2.617857	       1.385310
	 R(1,8)           =         2.630722	       1.392118
	 R(1,15)          =         2.039833	       1.079433
	 R(2,10)          =         2.619005	       1.385918
	 R(2,16)          =         2.037122	       1.077998
	 R(3,6)           =         2.619707	       1.386289
	 R(3,9)           =         2.625320	       1.389259
	 R(3,17)          =         2.039932	       1.079486
	 R(4,7)           =         2.618196	       1.385489
	 R(4,9)           =         2.626223	       1.389737
	 R(4,18)          =         2.038839	       1.078907
	 R(5,10)          =         2.623671	       1.388387
	 R(5,11)          =         2.606011	       1.379042
	 R(5,19)          =         2.039493	       1.079253
	 R(6,12)          =         2.523193	       1.335216
	 R(6,20)          =         2.043205	       1.081218
	 R(7,12)          =         2.525000	       1.336172
	 R(7,21)          =         2.042806	       1.081006
	 R(8,9)           =         2.770718	       1.466201
	 R(8,11)          =         2.621201	       1.387080
	 R(10,13)         =         2.578680	       1.364579
	 R(11,14)         =         2.536340	       1.342173
	 R(13,22)         =         1.816262	       0.961125
	 B(1,2,10)        =         2.086985	     119.575427
	 B(1,2,16)        =         2.110809	     120.940428
	 B(1,8,9)         =         2.120533	     121.497595
	 B(1,8,11)        =         2.042629	     117.034044
	 B(2,1,8)         =         2.124322	     121.714691
	 B(2,1,15)        =         2.086109	     119.525224
	 B(2,10,5)        =         2.094444	     120.002805
	 B(2,10,13)       =         2.060258	     118.044063
	 B(3,6,12)        =         2.157130	     123.594425
	 B(3,6,20)        =         2.100276	     120.336954
	 B(3,9,4)         =         2.051416	     117.537471
	 B(3,9,8)         =         2.111207	     120.963238
	 B(4,7,12)        =         2.158134	     123.651973
	 B(4,7,21)        =         2.099946	     120.318024
	 B(4,9,8)         =         2.120537	     121.497822
	 B(5,10,13)       =         2.128473	     121.952494
	 B(5,11,8)        =         2.139775	     122.600089
	 B(5,11,14)       =         2.063304	     118.218613
	 B(6,3,9)         =         2.080282	     119.191367
	 B(6,3,17)        =         2.100065	     120.324862
	 B(6,12,7)        =         2.040040	     116.885708
	 B(7,4,9)         =         2.079365	     119.138821
	 B(7,4,18)        =         2.100067	     120.324948
	 B(8,1,15)        =         2.072681	     118.755848
	 B(8,11,14)       =         2.080011	     119.175866
	 B(9,3,17)        =         2.102838	     120.483724
	 B(9,4,18)        =         2.103752	     120.536115
	 B(9,8,11)        =         2.120021	     121.468265
	 B(10,2,16)       =         2.085391	     119.484091
	 B(10,5,11)       =         2.078130	     119.068057
	 B(10,5,19)       =         2.115949	     121.234970
	 B(10,13,22)      =         1.907755	     109.306291
	 B(11,5,19)       =         2.089089	     119.695979
	 B(12,6,20)       =         2.025771	     116.068150
	 B(12,7,21)       =         2.025103	     116.029842
	 D(1,2,10,5)      =         0.007065	       0.404784
	 D(1,2,10,13)     =        -3.129557	    -179.310395
	 D(1,8,9,3)       =        -0.999656	     -57.276059
	 D(1,8,9,4)       =         2.134051	     122.272130
	 D(1,8,11,5)      =         0.005727	       0.328113
	 D(1,8,11,14)     =         3.132249	     179.464670
	 D(2,1,8,9)       =        -3.137600	    -179.771246
	 D(2,1,8,11)      =         0.005934	       0.339984
	 D(2,10,5,11)     =         0.004112	       0.235599
	 D(2,10,5,19)     =        -3.131130	    -179.400550
	 D(2,10,13,22)    =        -2.622753	    -150.272651
	 D(3,6,12,7)      =        -0.001636	      -0.093711
	 D(3,9,4,7)       =         0.001176	       0.067393
	 D(3,9,4,18)      =         3.140616	     179.944067
	 D(3,9,8,11)      =         2.139909	     122.607780
	 D(4,7,12,6)      =        -0.000205	      -0.011742
	 D(4,9,3,6)       =        -0.002859	      -0.163809
	 D(4,9,3,17)      =         3.137349	     179.756840
	 D(4,9,8,11)      =        -1.009569	     -57.844031
	 D(5,10,2,16)     =        -3.135992	    -179.679133
	 D(5,10,13,22)    =         0.523914	      30.018049
	 D(5,11,8,9)      =        -3.133925	    -179.560692
	 D(6,3,9,8)       =         3.131151	     179.401729
	 D(6,12,7,21)     =        -3.139250	    -179.865769
	 D(7,4,9,8)       =        -3.132791	    -179.495680
	 D(7,12,6,20)     =        -3.138869	    -179.843967
	 D(8,1,2,10)      =        -0.012295	      -0.704439
	 D(8,1,2,16)      =         3.130784	     179.380730
	 D(8,9,3,17)      =        -0.011827	      -0.677622
	 D(8,9,4,18)      =         0.006650	       0.380993
	 D(8,11,5,10)     =        -0.010744	      -0.615591
	 D(8,11,5,19)     =         3.124598	     179.026262
	 D(9,3,6,12)      =         0.003235	       0.185337
	 D(9,3,6,20)      =         3.140291	     179.925406
	 D(9,4,7,12)      =         0.000392	       0.022463
	 D(9,4,7,21)      =         3.139333	     179.870516
	 D(9,8,1,15)      =        -0.009145	      -0.523946
	 D(9,8,11,14)     =        -0.007403	      -0.424135
	 D(10,2,1,15)     =        -3.140652	    -179.946083
	 D(10,5,11,14)    =        -3.137404	    -179.760010
	 D(11,5,10,13)    =         3.140534	     179.939331
	 D(11,8,1,15)     =         3.134389	     179.587284
	 D(12,6,3,17)     =        -3.136975	    -179.735442
	 D(12,7,4,18)     =        -3.139053	    -179.854478
	 D(13,10,2,16)    =         0.010571	       0.605688
	 D(13,10,5,19)    =         0.005292	       0.303183
	 D(14,11,5,19)    =        -0.002062	      -0.118157
	 D(15,1,2,16)     =         0.002428	       0.139086
	 D(17,3,6,20)     =         0.000081	       0.004628
	 D(18,4,7,21)     =        -0.000112	      -0.006425
	 R(4,14)          =         5.697595	       3.015038

	Current energy   :      -652.8731882635

	Energy change for the previous step:
		Projected    :        -0.0014551819
		Actual       :        -0.0008768833

	Performing BFGS update.
	Previous computed or guess Hessian on step 1.
	Steps to be used in Hessian update: 2 1
	Adding user-defined constraint: Fragment 1; Coordinate 69:
		Value =    -2.622753; Fixed value    =    -2.617990
		Force =     0.002619; Force constant =     0.550000
	Removing off-diagonal coupling between coordinate 69 and others.
	Taking RFO optimization step.
	Going to follow RFO solution 1.
	Using RFO vector 1.

	Determining step-restricting scale parameter for RS-RFO.
	Maximum step size allowed    0.10000

	 Iter      |step|        alpha        rfo_root  
	------------------------------------------------
	    0     0.21823       1.00000           1
	    1     0.15557      11.53463           1
	    2     0.11998      27.95488           1
	    3     0.10414      41.91598           1
	    4     0.10025      46.48224           1
	    5     0.10000      46.78822           1
	------------------------------------------------
	Norm of target step-size    0.10000
	Projected energy change by RFO approximation:        -0.0001319798

	Back-transformation to cartesian coordinates...
	The INTCO_EXCEPTion handler:
	TORS::compute_val: unable to compute torsion value
	Dynamic level is 0.
	exc.g_really_quit() is 0.

  **** Optimization has failed! (in 3 steps) ****
			--------------------------
			 OPTKING Finished Execution 
			--------------------------
	Cleaning optimization helper files.

*** Psi4 exiting successfully. Buy a developer a beer!
