
    -----------------------------------------------------------------------
          Psi4: An Open-Source Ab Initio Electronic Structure Package
                               Psi4 1.1 release

                         Git: Rev {HEAD} add49b9 


    R. M. Parrish, L. A. Burns, D. G. A. Smith, A. C. Simmonett,
    A. E. DePrince III, E. G. Hohenstein, U. Bozkaya, A. Yu. Sokolov,
    R. Di Remigio, R. M. Richard, J. F. Gonthier, A. M. James,
    H. R. McAlexander, A. Kumar, M. Saitow, X. Wang, B. P. Pritchard,
    P. Verma, H. F. Schaefer III, K. Patkowski, R. A. King, E. F. Valeev,
    F. A. Evangelista, J. M. Turney, T. D. Crawford, and C. D. Sherrill,
    J. Chem. Theory Comput. in press (2017).
    (doi: 10.1021/acs.jctc.7b00174)

    -----------------------------------------------------------------------


    Psi4 started on: Sunday, 12 November 2017 09:02AM

    Process ID:  14342
    PSIDATADIR: /cbio/jclab/home/chayas/anaconda/envs/py35/share/psi4
    Memory:     500.0 MiB
    Threads:    8
    
  ==> Input File <==

--------------------------------------------------------------------------

memory 5 Gb

molecule phepyrOH_cation {
  symmetry C1
  1 1 
  C      1.885   -1.036   -0.112
  C      2.878   -1.652   2.002
  C      0.807   -0.463   0.561
  C      1.800   -1.079   2.676
  C      4.440   -1.719   -1.322
  C      4.716   -3.305   0.469
  C      5.516   -2.309   -1.970
  C      5.786   -3.855   -0.224
  C      2.921   -1.631   0.608
  C      4.040   -2.225   -0.090
  C      0.764   -0.484   1.955
  N      6.150   -3.348   -1.409
  O      -0.288   0.076   2.612
  H      1.904   -1.012   -1.199
  H      3.678   -2.112   2.578
  H      0.003   -0.001   -0.006
  H      1.772   -1.098   3.762
  H      3.931   -0.877   -1.782
  H      4.425   -3.721   1.429
  H      5.897   -1.982   -2.928
  H      6.368   -4.693   0.134
  H      6.938   -3.767   -1.902
  H      -0.005   0.412   3.477
  units Angstrom
}

dih_string = "3 11 13 23 210"
set optking fixed_dihedral = $dih_string

optimize('MP2/aug-cc-PVTZ')
--------------------------------------------------------------------------

  Memory set to   4.657 GiB by Python driver.
gradient() will perform analytic gradient computation.

*** tstart() called on gpu-2-14.local
*** at Sun Nov 12 09:02:18 2017

    SCF Algorithm Type (re)set to DF.

*** tstart() called on gpu-2-14.local
*** at Sun Nov 12 09:02:18 2017

   => Loading Basis Set <=

    Name: AUG-CC-PVTZ
    Role: ORBITAL
    Keyword: BASIS
    atoms 1-11  entry C          line   221 file /cbio/jclab/home/chayas/anaconda/envs/py35/share/psi4/basis/aug-cc-pvtz.gbs 
    atoms 12    entry N          line   267 file /cbio/jclab/home/chayas/anaconda/envs/py35/share/psi4/basis/aug-cc-pvtz.gbs 
    atoms 13    entry O          line   313 file /cbio/jclab/home/chayas/anaconda/envs/py35/share/psi4/basis/aug-cc-pvtz.gbs 
    atoms 14-23 entry H          line    34 file /cbio/jclab/home/chayas/anaconda/envs/py35/share/psi4/basis/aug-cc-pvtz.gbs 


         ---------------------------------------------------------
                                   SCF
            by Justin Turney, Rob Parrish, and Andy Simmonett
                              RHF Reference
                        8 Threads,   4768 MiB Core
         ---------------------------------------------------------

  ==> Geometry <==

    Molecular point group: c1
    Full point group: C1

    Geometry (in Angstrom), charge = 1, multiplicity = 1:

       Center              X                  Y                   Z               Mass       
    ------------   -----------------  -----------------  -----------------  -----------------
           C         -1.272510605442     0.717648207251    -0.578509884194    12.000000000000
           C         -0.279510605442     0.101648207251     1.535490115806    12.000000000000
           C         -2.350510605442     1.290648207251     0.094490115806    12.000000000000
           C         -1.357510605442     0.674648207251     2.209490115806    12.000000000000
           C          1.282489394558     0.034648207251    -1.788509884194    12.000000000000
           C          1.558489394558    -1.551351792749     0.002490115806    12.000000000000
           C          2.358489394558    -0.555351792749    -2.436509884194    12.000000000000
           C          2.628489394558    -2.101351792749    -0.690509884194    12.000000000000
           C         -0.236510605442     0.122648207251     0.141490115806    12.000000000000
           C          0.882489394558    -0.471351792749    -0.556509884194    12.000000000000
           C         -2.393510605442     1.269648207251     1.488490115806    12.000000000000
           N          2.992489394558    -1.594351792749    -1.875509884194    14.003074004780
           O         -3.445510605442     1.829648207251     2.145490115806    15.994914619560
           H         -1.253510605442     0.741648207251    -1.665509884194     1.007825032070
           H          0.520489394558    -0.358351792749     2.111490115806     1.007825032070
           H         -3.154510605442     1.752648207251    -0.472509884194     1.007825032070
           H         -1.385510605442     0.655648207251     3.295490115806     1.007825032070
           H          0.773489394558     0.876648207251    -2.248509884194     1.007825032070
           H          1.267489394558    -1.967351792749     0.962490115806     1.007825032070
           H          2.739489394558    -0.228351792749    -3.394509884194     1.007825032070
           H          3.210489394558    -2.939351792749    -0.332509884194     1.007825032070
           H          3.780489394558    -2.013351792749    -2.368509884194     1.007825032070
           H         -3.162510605442     2.165648207251     3.010490115806     1.007825032070

  Running in c1 symmetry.

  Rotational constants: A =      0.09612  B =      0.01335  C =      0.01192 [cm^-1]
  Rotational constants: A =   2881.73840  B =    400.31047  C =    357.49889 [MHz]
  Nuclear repulsion =  713.222664120700870

  Charge       = 1
  Multiplicity = 1
  Electrons    = 90
  Nalpha       = 45
  Nbeta        = 45

  ==> Algorithm <==

  SCF Algorithm Type is DF.
  DIIS enabled.
  MOM disabled.
  Fractional occupation disabled.
  Guess Type is SAD.
  Energy threshold   = 1.00e-10
  Density threshold  = 1.00e-10
  Integral threshold = 0.00e+00

  ==> Primary Basis <==

  Basis Set: AUG-CC-PVTZ
    Blend: AUG-CC-PVTZ
    Number of shells: 272
    Number of basis function: 828
    Number of Cartesian functions: 965
    Spherical Harmonics?: true
    Max angular momentum: 3

   => Loading Basis Set <=

    Name: (AUG-CC-PVTZ AUX)
    Role: JKFIT
    Keyword: DF_BASIS_SCF
    atoms 1-11  entry C          line   161 file /cbio/jclab/home/chayas/anaconda/envs/py35/share/psi4/basis/aug-cc-pvtz-jkfit.gbs 
    atoms 12    entry N          line   223 file /cbio/jclab/home/chayas/anaconda/envs/py35/share/psi4/basis/aug-cc-pvtz-jkfit.gbs 
    atoms 13    entry O          line   285 file /cbio/jclab/home/chayas/anaconda/envs/py35/share/psi4/basis/aug-cc-pvtz-jkfit.gbs 
    atoms 14-23 entry H          line    69 file /cbio/jclab/home/chayas/anaconda/envs/py35/share/psi4/basis/aug-cc-pvtz-jkfit.gbs 

  ==> Pre-Iterations <==

   -------------------------------------------------------
    Irrep   Nso     Nmo     Nalpha   Nbeta   Ndocc  Nsocc
   -------------------------------------------------------
     A        828     828       0       0       0       0
   -------------------------------------------------------
    Total     828     828      45      45      45       0
   -------------------------------------------------------

  ==> Integral Setup <==

  ==> DFJK: Density-Fitted J/K Matrices <==

    J tasked:                  Yes
    K tasked:                  Yes
    wK tasked:                  No
    OpenMP threads:              8
    Integrals threads:           8
    Memory (MB):              3576
    Algorithm:                Disk
    Integral Cache:           NONE
    Schwarz Cutoff:          1E-12
    Fitting Condition:       1E-12

   => Auxiliary Basis Set <=

  Basis Set: (AUG-CC-PVTZ AUX)
    Blend: AUG-CC-PVTZ-JKFIT
    Number of shells: 530
    Number of basis function: 1812
    Number of Cartesian functions: 2253
    Spherical Harmonics?: true
    Max angular momentum: 4

  Minimum eigenvalue in the overlap matrix is 5.9184022819E-07.
  Using Symmetric Orthogonalization.

  SCF Guess: Superposition of Atomic Densities via on-the-fly atomic UHF.

  ==> Iterations <==

                           Total Energy        Delta E     RMS |[F,P]|

   @DF-RHF iter   0:  -553.49826797159972   -5.53498e+02   2.26134e-02 
   @DF-RHF iter   1:  -551.17678838479833    2.32148e+00   1.99192e-03 
   @DF-RHF iter   2:  -551.55315018301962   -3.76362e-01   1.06899e-03 DIIS
   @DF-RHF iter   3:  -551.65028707582439   -9.71369e-02   4.37321e-04 DIIS
   @DF-RHF iter   4:  -551.67053801380484   -2.02509e-02   1.91090e-04 DIIS
   @DF-RHF iter   5:  -551.67396860880297   -3.43059e-03   4.21884e-05 DIIS
   @DF-RHF iter   6:  -551.67451073519021   -5.42126e-04   2.43787e-05 DIIS
   @DF-RHF iter   7:  -551.67458349349522   -7.27583e-05   8.34909e-06 DIIS
   @DF-RHF iter   8:  -551.67459247284796   -8.97935e-06   2.97940e-06 DIIS
   @DF-RHF iter   9:  -551.67459464849901   -2.17565e-06   1.62331e-06 DIIS
   @DF-RHF iter  10:  -551.67459544124745   -7.92748e-07   7.39818e-07 DIIS
   @DF-RHF iter  11:  -551.67459559682129   -1.55574e-07   2.38889e-07 DIIS
   @DF-RHF iter  12:  -551.67459560837881   -1.15575e-08   9.58942e-08 DIIS
   @DF-RHF iter  13:  -551.67459560990460   -1.52579e-09   3.94245e-08 DIIS
   @DF-RHF iter  14:  -551.67459561025305   -3.48450e-10   1.73796e-08 DIIS
   @DF-RHF iter  15:  -551.67459561035162   -9.85665e-11   6.18343e-09 DIIS
   @DF-RHF iter  16:  -551.67459561034389    7.73070e-12   3.03664e-09 DIIS
   @DF-RHF iter  17:  -551.67459561035071   -6.82121e-12   1.18694e-09 DIIS
   @DF-RHF iter  18:  -551.67459561034730    3.41061e-12   5.05624e-10 DIIS
   @DF-RHF iter  19:  -551.67459561035764   -1.03455e-11   2.35563e-10 DIIS
   @DF-RHF iter  20:  -551.67459561035878   -1.13687e-12   8.55400e-11 DIIS

  ==> Post-Iterations <==

    Orbital Energies (a.u.)
    -----------------------

    Doubly Occupied:                                                      

       1A    -20.699409     2A    -15.833194     3A    -11.484026  
       4A    -11.483973     5A    -11.445790     6A    -11.432044  
       7A    -11.414435     8A    -11.414258     9A    -11.379558  
      10A    -11.378175    11A    -11.372385    12A    -11.357216  
      13A    -11.354385    14A     -1.515582    15A     -1.511119  
      16A     -1.321107    17A     -1.263940    18A     -1.236942  
      19A     -1.154510    20A     -1.151142    21A     -1.068392  
      22A     -1.054193    23A     -0.974484    24A     -0.962034  
      25A     -0.950072    26A     -0.869857    27A     -0.859165  
      28A     -0.854037    29A     -0.821560    30A     -0.798564  
      31A     -0.780997    32A     -0.772652    33A     -0.756575  
      34A     -0.736394    35A     -0.722633    36A     -0.706765  
      37A     -0.705907    38A     -0.675006    39A     -0.653618  
      40A     -0.634236    41A     -0.615985    42A     -0.571488  
      43A     -0.537329    44A     -0.469425    45A     -0.439926  

    Virtual:                                                              

      46A     -0.105532    47A     -0.084597    48A     -0.063836  
      49A     -0.062876    50A     -0.059512    51A     -0.049408  
      52A     -0.043020    53A     -0.040240    54A     -0.035115  
      55A     -0.029077    56A     -0.025798    57A     -0.022733  
      58A     -0.017853    59A     -0.011364    60A     -0.006070  
      61A     -0.003961    62A      0.004902    63A      0.005919  
      64A      0.008927    65A      0.014282    66A      0.017577  
      67A      0.020708    68A      0.023899    69A      0.025752  
      70A      0.028752    71A      0.032372    72A      0.036779  
      73A      0.038799    74A      0.039888    75A      0.044941  
      76A      0.050524    77A      0.052943    78A      0.057727  
      79A      0.061031    80A      0.065911    81A      0.069062  
      82A      0.072605    83A      0.073105    84A      0.078070  
      85A      0.083258    86A      0.086421    87A      0.089134  
      88A      0.094301    89A      0.097508    90A      0.108309  
      91A      0.110861    92A      0.114622    93A      0.118955  
      94A      0.122493    95A      0.124899    96A      0.129931  
      97A      0.131439    98A      0.137033    99A      0.139501  
     100A      0.144818   101A      0.154877   102A      0.157668  
     103A      0.162268   104A      0.165409   105A      0.166254  
     106A      0.168177   107A      0.169922   108A      0.173481  
     109A      0.179736   110A      0.181571   111A      0.188490  
     112A      0.188921   113A      0.191506   114A      0.196477  
     115A      0.201711   116A      0.206920   117A      0.208883  
     118A      0.213330   119A      0.215624   120A      0.223407  
     121A      0.226353   122A      0.229420   123A      0.230977  
     124A      0.232188   125A      0.233005   126A      0.239088  
     127A      0.240500   128A      0.246912   129A      0.251700  
     130A      0.255003   131A      0.259642   132A      0.267828  
     133A      0.276664   134A      0.278886   135A      0.279783  
     136A      0.287068   137A      0.288467   138A      0.292636  
     139A      0.301275   140A      0.307395   141A      0.308317  
     142A      0.312059   143A      0.315383   144A      0.321459  
     145A      0.324090   146A      0.326024   147A      0.327086  
     148A      0.333945   149A      0.335360   150A      0.338584  
     151A      0.343437   152A      0.345954   153A      0.348745  
     154A      0.353813   155A      0.354194   156A      0.359775  
     157A      0.363942   158A      0.368043   159A      0.370420  
     160A      0.374733   161A      0.376437   162A      0.377999  
     163A      0.384069   164A      0.387399   165A      0.393447  
     166A      0.395513   167A      0.398741   168A      0.403040  
     169A      0.405185   170A      0.407217   171A      0.409852  
     172A      0.414557   173A      0.415912   174A      0.419987  
     175A      0.421501   176A      0.426157   177A      0.430280  
     178A      0.435275   179A      0.438029   180A      0.442684  
     181A      0.452747   182A      0.454682   183A      0.457267  
     184A      0.467546   185A      0.472309   186A      0.474933  
     187A      0.482861   188A      0.486823   189A      0.493095  
     190A      0.498353   191A      0.505512   192A      0.510780  
     193A      0.519691   194A      0.526540   195A      0.532556  
     196A      0.534323   197A      0.539831   198A      0.545910  
     199A      0.550561   200A      0.560050   201A      0.567687  
     202A      0.571042   203A      0.577896   204A      0.578252  
     205A      0.583368   206A      0.588072   207A      0.593300  
     208A      0.599351   209A      0.605896   210A      0.608268  
     211A      0.619981   212A      0.623852   213A      0.626811  
     214A      0.631206   215A      0.635012   216A      0.640137  
     217A      0.643696   218A      0.647154   219A      0.656255  
     220A      0.659353   221A      0.669422   222A      0.673287  
     223A      0.679259   224A      0.690513   225A      0.700499  
     226A      0.703536   227A      0.709580   228A      0.711700  
     229A      0.718415   230A      0.720769   231A      0.722726  
     232A      0.732777   233A      0.734466   234A      0.740046  
     235A      0.743781   236A      0.752069   237A      0.755805  
     238A      0.757731   239A      0.766035   240A      0.767013  
     241A      0.774138   242A      0.780683   243A      0.782487  
     244A      0.789705   245A      0.792636   246A      0.796404  
     247A      0.799831   248A      0.807256   249A      0.809994  
     250A      0.815104   251A      0.819865   252A      0.826442  
     253A      0.826724   254A      0.833418   255A      0.839274  
     256A      0.845575   257A      0.849042   258A      0.854042  
     259A      0.856721   260A      0.860566   261A      0.865085  
     262A      0.869876   263A      0.876766   264A      0.877345  
     265A      0.880257   266A      0.883009   267A      0.884505  
     268A      0.892547   269A      0.902298   270A      0.907506  
     271A      0.910808   272A      0.917630   273A      0.921389  
     274A      0.926704   275A      0.929779   276A      0.931752  
     277A      0.931915   278A      0.938438   279A      0.945913  
     280A      0.952808   281A      0.956723   282A      0.961617  
     283A      0.964480   284A      0.967807   285A      0.972228  
     286A      0.982056   287A      0.985256   288A      0.987215  
     289A      0.987452   290A      0.994309   291A      0.998793  
     292A      1.000752   293A      1.004771   294A      1.007836  
     295A      1.011865   296A      1.017101   297A      1.019389  
     298A      1.026098   299A      1.033023   300A      1.034036  
     301A      1.044800   302A      1.048759   303A      1.053918  
     304A      1.062369   305A      1.063782   306A      1.067311  
     307A      1.070275   308A      1.072909   309A      1.080343  
     310A      1.084673   311A      1.090882   312A      1.094642  
     313A      1.097823   314A      1.104102   315A      1.108911  
     316A      1.118629   317A      1.122603   318A      1.124132  
     319A      1.126322   320A      1.131392   321A      1.139010  
     322A      1.152357   323A      1.156018   324A      1.158558  
     325A      1.162816   326A      1.168617   327A      1.179347  
     328A      1.180868   329A      1.186376   330A      1.197455  
     331A      1.211908   332A      1.214273   333A      1.220909  
     334A      1.229453   335A      1.232106   336A      1.236583  
     337A      1.241937   338A      1.248007   339A      1.255505  
     340A      1.266762   341A      1.275220   342A      1.277110  
     343A      1.287653   344A      1.289784   345A      1.296683  
     346A      1.301734   347A      1.306959   348A      1.313222  
     349A      1.319033   350A      1.328558   351A      1.339049  
     352A      1.341540   353A      1.354618   354A      1.363659  
     355A      1.367396   356A      1.377803   357A      1.378952  
     358A      1.385961   359A      1.395472   360A      1.401834  
     361A      1.406752   362A      1.408482   363A      1.417371  
     364A      1.419287   365A      1.425804   366A      1.444384  
     367A      1.449083   368A      1.456353   369A      1.460749  
     370A      1.474253   371A      1.479941   372A      1.485350  
     373A      1.491548   374A      1.510194   375A      1.512530  
     376A      1.524412   377A      1.529752   378A      1.536338  
     379A      1.540313   380A      1.545638   381A      1.557480  
     382A      1.562501   383A      1.569391   384A      1.583366  
     385A      1.584086   386A      1.589499   387A      1.603571  
     388A      1.607281   389A      1.620136   390A      1.633746  
     391A      1.637857   392A      1.649082   393A      1.656428  
     394A      1.665290   395A      1.672212   396A      1.674550  
     397A      1.681072   398A      1.699677   399A      1.703800  
     400A      1.707509   401A      1.713731   402A      1.717258  
     403A      1.723051   404A      1.731404   405A      1.733042  
     406A      1.743730   407A      1.754438   408A      1.760982  
     409A      1.767423   410A      1.777339   411A      1.787002  
     412A      1.791973   413A      1.803642   414A      1.812046  
     415A      1.827059   416A      1.832184   417A      1.836172  
     418A      1.843988   419A      1.847392   420A      1.860812  
     421A      1.865386   422A      1.873052   423A      1.879929  
     424A      1.888953   425A      1.892264   426A      1.905209  
     427A      1.907115   428A      1.915903   429A      1.921463  
     430A      1.927767   431A      1.928859   432A      1.940933  
     433A      1.949154   434A      1.953191   435A      1.956081  
     436A      1.968832   437A      1.970999   438A      1.983221  
     439A      1.987574   440A      2.000578   441A      2.003034  
     442A      2.011400   443A      2.017508   444A      2.025407  
     445A      2.032490   446A      2.045938   447A      2.051398  
     448A      2.061362   449A      2.067667   450A      2.082186  
     451A      2.085109   452A      2.096461   453A      2.099825  
     454A      2.120837   455A      2.137126   456A      2.138653  
     457A      2.150794   458A      2.157044   459A      2.188259  
     460A      2.197192   461A      2.203316   462A      2.205032  
     463A      2.210855   464A      2.219757   465A      2.229366  
     466A      2.236418   467A      2.252439   468A      2.255316  
     469A      2.260668   470A      2.279884   471A      2.284755  
     472A      2.289155   473A      2.293893   474A      2.308360  
     475A      2.323346   476A      2.333282   477A      2.345255  
     478A      2.355877   479A      2.366961   480A      2.371167  
     481A      2.389453   482A      2.395262   483A      2.404578  
     484A      2.407885   485A      2.419754   486A      2.423962  
     487A      2.433903   488A      2.440487   489A      2.458409  
     490A      2.475423   491A      2.501891   492A      2.509830  
     493A      2.518141   494A      2.530245   495A      2.549160  
     496A      2.561990   497A      2.563731   498A      2.571259  
     499A      2.594325   500A      2.609733   501A      2.627659  
     502A      2.639419   503A      2.648409   504A      2.656907  
     505A      2.679557   506A      2.709092   507A      2.718883  
     508A      2.734881   509A      2.744404   510A      2.751791  
     511A      2.763466   512A      2.788045   513A      2.814945  
     514A      2.844090   515A      2.857532   516A      2.878880  
     517A      2.920770   518A      2.936878   519A      2.941512  
     520A      2.957601   521A      2.963126   522A      2.981392  
     523A      2.995498   524A      3.008610   525A      3.035934  
     526A      3.057939   527A      3.067587   528A      3.080307  
     529A      3.082835   530A      3.103638   531A      3.140848  
     532A      3.153076   533A      3.169196   534A      3.190370  
     535A      3.194773   536A      3.195837   537A      3.210081  
     538A      3.221683   539A      3.226198   540A      3.236698  
     541A      3.242957   542A      3.255672   543A      3.262397  
     544A      3.274027   545A      3.280546   546A      3.285589  
     547A      3.293541   548A      3.314431   549A      3.332182  
     550A      3.342485   551A      3.354909   552A      3.363237  
     553A      3.372218   554A      3.383410   555A      3.387518  
     556A      3.396682   557A      3.397319   558A      3.407840  
     559A      3.415550   560A      3.416580   561A      3.419486  
     562A      3.432221   563A      3.445060   564A      3.447485  
     565A      3.461250   566A      3.470042   567A      3.477635  
     568A      3.491109   569A      3.504461   570A      3.512474  
     571A      3.520381   572A      3.535561   573A      3.548367  
     574A      3.551485   575A      3.563717   576A      3.566426  
     577A      3.574029   578A      3.598247   579A      3.600716  
     580A      3.614903   581A      3.624143   582A      3.629412  
     583A      3.632751   584A      3.653894   585A      3.655465  
     586A      3.661369   587A      3.663490   588A      3.686237  
     589A      3.697598   590A      3.707457   591A      3.712957  
     592A      3.723392   593A      3.732027   594A      3.737273  
     595A      3.750092   596A      3.755587   597A      3.760788  
     598A      3.767186   599A      3.781717   600A      3.784546  
     601A      3.793414   602A      3.794146   603A      3.822151  
     604A      3.830906   605A      3.835169   606A      3.841636  
     607A      3.852681   608A      3.864854   609A      3.865156  
     610A      3.871396   611A      3.875528   612A      3.880002  
     613A      3.889708   614A      3.895571   615A      3.905132  
     616A      3.908809   617A      3.937217   618A      3.944234  
     619A      3.947648   620A      3.955402   621A      3.969827  
     622A      3.984501   623A      3.991564   624A      4.002705  
     625A      4.019347   626A      4.026846   627A      4.038470  
     628A      4.044770   629A      4.056510   630A      4.059365  
     631A      4.064216   632A      4.079959   633A      4.086973  
     634A      4.090380   635A      4.105139   636A      4.107959  
     637A      4.114410   638A      4.120759   639A      4.135635  
     640A      4.137784   641A      4.147807   642A      4.161600  
     643A      4.173253   644A      4.185077   645A      4.189389  
     646A      4.196751   647A      4.202384   648A      4.213705  
     649A      4.224471   650A      4.228391   651A      4.232912  
     652A      4.237905   653A      4.247213   654A      4.256541  
     655A      4.269074   656A      4.275615   657A      4.282567  
     658A      4.295836   659A      4.300383   660A      4.304413  
     661A      4.321573   662A      4.327747   663A      4.338838  
     664A      4.344002   665A      4.361031   666A      4.366519  
     667A      4.370340   668A      4.372553   669A      4.386340  
     670A      4.398058   671A      4.403103   672A      4.416523  
     673A      4.430858   674A      4.450942   675A      4.453238  
     676A      4.458001   677A      4.474176   678A      4.495412  
     679A      4.503101   680A      4.515410   681A      4.543229  
     682A      4.556268   683A      4.567903   684A      4.582854  
     685A      4.588524   686A      4.606109   687A      4.615407  
     688A      4.636557   689A      4.649164   690A      4.651274  
     691A      4.659502   692A      4.667432   693A      4.682382  
     694A      4.697693   695A      4.727122   696A      4.735167  
     697A      4.750022   698A      4.750768   699A      4.758612  
     700A      4.767383   701A      4.783725   702A      4.793445  
     703A      4.812681   704A      4.828914   705A      4.833390  
     706A      4.835222   707A      4.847151   708A      4.872993  
     709A      4.879011   710A      4.896417   711A      4.905347  
     712A      4.916936   713A      4.935867   714A      4.940097  
     715A      4.948139   716A      4.961690   717A      4.969237  
     718A      4.978897   719A      4.994591   720A      4.999556  
     721A      5.009912   722A      5.011047   723A      5.020611  
     724A      5.034621   725A      5.042981   726A      5.059033  
     727A      5.087686   728A      5.096557   729A      5.111252  
     730A      5.139675   731A      5.151975   732A      5.152902  
     733A      5.178622   734A      5.188832   735A      5.201878  
     736A      5.209312   737A      5.214999   738A      5.242156  
     739A      5.266232   740A      5.277311   741A      5.284143  
     742A      5.300478   743A      5.310383   744A      5.348309  
     745A      5.350206   746A      5.366496   747A      5.384020  
     748A      5.391174   749A      5.420490   750A      5.442314  
     751A      5.448043   752A      5.449887   753A      5.511552  
     754A      5.525591   755A      5.533879   756A      5.554246  
     757A      5.572830   758A      5.592618   759A      5.613689  
     760A      5.616819   761A      5.625260   762A      5.669567  
     763A      5.693761   764A      5.700176   765A      5.711673  
     766A      5.734819   767A      5.779684   768A      5.812766  
     769A      5.842857   770A      5.861279   771A      5.937533  
     772A      5.941047   773A      5.987790   774A      5.994737  
     775A      6.023484   776A      6.046818   777A      6.095013  
     778A      6.125503   779A      6.176756   780A      6.191354  
     781A      6.241538   782A      6.287154   783A      6.301930  
     784A      6.347214   785A      6.369816   786A      6.395263  
     787A      6.415318   788A      6.481755   789A      6.488064  
     790A      6.548801   791A      6.577852   792A      6.607138  
     793A      6.671965   794A      6.752003   795A      6.779840  
     796A      6.795981   797A      6.817119   798A      6.835168  
     799A      6.845226   800A      6.857194   801A      6.968783  
     802A      6.980325   803A      7.011379   804A      7.135450  
     805A      7.194993   806A      7.301922   807A      7.405452  
     808A      7.466231   809A      7.545038   810A      7.565099  
     811A      7.587360   812A      7.676723   813A      7.839085  
     814A      8.243433   815A      8.494253   816A     16.004490  
     817A     16.269378   818A     16.600833   819A     16.666597  
     820A     16.959975   821A     18.791317   822A     19.091264  
     823A     19.383555   824A     19.751991   825A     19.972751  
     826A     20.006365   827A     20.543751   828A     21.756511  

    Final Occupation by Irrep:
              A 
    DOCC [    45 ]

  Energy converged.

  @DF-RHF Final Energy:  -551.67459561035878

   => Energetics <=

    Nuclear Repulsion Energy =            713.2226641207008697
    One-Electron Energy =               -2149.4055581856546269
    Two-Electron Energy =                 884.5082984545950922
    DFT Exchange-Correlation Energy =       0.0000000000000000
    Empirical Dispersion Energy =           0.0000000000000000
    PCM Polarization Energy =               0.0000000000000000
    EFP Energy =                            0.0000000000000000
    Total Energy =                       -551.6745956103587787



Properties will be evaluated at   0.000000,   0.000000,   0.000000 Bohr

Properties computed using the SCF density matrix

  Nuclear Dipole Moment: (a.u.)
     X:     3.1021      Y:    -1.2189      Z:    -1.0174

  Electronic Dipole Moment: (a.u.)
     X:     0.2869      Y:    -0.2743      Z:    -0.4795

  Dipole Moment: (a.u.)
     X:     3.3889      Y:    -1.4932      Z:    -1.4969     Total:     3.9944

  Dipole Moment: (Debye)
     X:     8.6138      Y:    -3.7953      Z:    -3.8048     Total:    10.1527


*** tstop() called on gpu-2-14.local at Sun Nov 12 09:11:00 2017
Module time:
	user time   =    1173.17 seconds =      19.55 minutes
	system time =      55.57 seconds =       0.93 minutes
	total time  =        522 seconds =       8.70 minutes
Total time:
	user time   =    1173.18 seconds =      19.55 minutes
	system time =      55.57 seconds =       0.93 minutes
	total time  =        522 seconds =       8.70 minutes

  //>>>>>>>>>>>>>>>>>>>>>>>>>>>>>>>>>>>//
  //               DFMP2               //
  //<<<<<<<<<<<<<<<<<<<<<<<<<<<<<<<<<<<//

   => Loading Basis Set <=

    Name: (AUG-CC-PVTZ AUX)
    Role: RIFIT
    Keyword: DF_BASIS_MP2
    atoms 1-11  entry C          line   147 file /cbio/jclab/home/chayas/anaconda/envs/py35/share/psi4/basis/aug-cc-pvtz-ri.gbs 
    atoms 12    entry N          line   205 file /cbio/jclab/home/chayas/anaconda/envs/py35/share/psi4/basis/aug-cc-pvtz-ri.gbs 
    atoms 13    entry O          line   263 file /cbio/jclab/home/chayas/anaconda/envs/py35/share/psi4/basis/aug-cc-pvtz-ri.gbs 
    atoms 14-23 entry H          line    29 file /cbio/jclab/home/chayas/anaconda/envs/py35/share/psi4/basis/aug-cc-pvtz-ri.gbs 

	 --------------------------------------------------------
	                          DF-MP2                         
	      2nd-Order Density-Fitted Moller-Plesset Theory     
	              RMP2 Wavefunction,   8 Threads             
	                                                         
	        Rob Parrish, Justin Turney, Andy Simmonett,      
	           Ed Hohenstein, and C. David Sherrill          
	 --------------------------------------------------------

   => Auxiliary Basis Set <=

  Basis Set: (AUG-CC-PVTZ AUX)
    Blend: AUG-CC-PVTZ-RI
    Number of shells: 504
    Number of basis function: 1838
    Number of Cartesian functions: 2318
    Spherical Harmonics?: true
    Max angular momentum: 4

	 --------------------------------------------------------
	                 NBF =   828, NAUX =  1838
	 --------------------------------------------------------
	   CLASS    FOCC     OCC    AOCC    AVIR     VIR    FVIR
	   PAIRS       0      45      45     783     783       0
	 --------------------------------------------------------


         ------------------------------------------------------------
                                     CPHF                           
                                  Rob Parrish                       
         ------------------------------------------------------------

  ==> Geometry <==

    Molecular point group: c1
    Full point group: C1

    Geometry (in Angstrom), charge = 1, multiplicity = 1:

       Center              X                  Y                   Z               Mass       
    ------------   -----------------  -----------------  -----------------  -----------------
           C         -1.272510605442     0.717648207251    -0.578509884194    12.000000000000
           C         -0.279510605442     0.101648207251     1.535490115806    12.000000000000
           C         -2.350510605442     1.290648207251     0.094490115806    12.000000000000
           C         -1.357510605442     0.674648207251     2.209490115806    12.000000000000
           C          1.282489394558     0.034648207251    -1.788509884194    12.000000000000
           C          1.558489394558    -1.551351792749     0.002490115806    12.000000000000
           C          2.358489394558    -0.555351792749    -2.436509884194    12.000000000000
           C          2.628489394558    -2.101351792749    -0.690509884194    12.000000000000
           C         -0.236510605442     0.122648207251     0.141490115806    12.000000000000
           C          0.882489394558    -0.471351792749    -0.556509884194    12.000000000000
           C         -2.393510605442     1.269648207251     1.488490115806    12.000000000000
           N          2.992489394558    -1.594351792749    -1.875509884194    14.003074004780
           O         -3.445510605442     1.829648207251     2.145490115806    15.994914619560
           H         -1.253510605442     0.741648207251    -1.665509884194     1.007825032070
           H          0.520489394558    -0.358351792749     2.111490115806     1.007825032070
           H         -3.154510605442     1.752648207251    -0.472509884194     1.007825032070
           H         -1.385510605442     0.655648207251     3.295490115806     1.007825032070
           H          0.773489394558     0.876648207251    -2.248509884194     1.007825032070
           H          1.267489394558    -1.967351792749     0.962490115806     1.007825032070
           H          2.739489394558    -0.228351792749    -3.394509884194     1.007825032070
           H          3.210489394558    -2.939351792749    -0.332509884194     1.007825032070
           H          3.780489394558    -2.013351792749    -2.368509884194     1.007825032070
           H         -3.162510605442     2.165648207251     3.010490115806     1.007825032070

  Nuclear repulsion =  713.222664120700870
  Reference energy  = -551.674595610358779

  ==> Basis Set <==

  Basis Set: AUG-CC-PVTZ
    Blend: AUG-CC-PVTZ
    Number of shells: 272
    Number of basis function: 828
    Number of Cartesian functions: 965
    Spherical Harmonics?: true
    Max angular momentum: 3

  ==> CGRSolver (by Rob Parrish) <==

   Number of roots    =         1
   Preconditioning    =    JACOBI
   Convergence cutoff =     1E-06
   Maximum iterations =       100

  ==> CPHFRHamiltonian (by Rob Parrish) <== 

  ==> DFJK: Density-Fitted J/K Matrices <==

    J tasked:                  Yes
    K tasked:                  Yes
    wK tasked:                  No
    OpenMP threads:              8
    Integrals threads:           8
    Memory (MB):              3576
    Algorithm:                Disk
    Integral Cache:           NONE
    Schwarz Cutoff:          1E-12
    Fitting Condition:       1E-12

   => Auxiliary Basis Set <=

  Basis Set: (AUG-CC-PVTZ AUX)
    Blend: AUG-CC-PVTZ-JKFIT
    Number of shells: 530
    Number of basis function: 1812
    Number of Cartesian functions: 2253
    Spherical Harmonics?: true
    Max angular momentum: 4

  ==> CPHF Iterations <==

  => Iterations <=

             Iter  Converged  Remaining    Residual
  CGR           1          0          1   1.104E-01
  CGR           2          0          1   5.051E-02
  CGR           3          0          1   2.932E-02
  CGR           4          0          1   9.482E-03
  CGR           5          0          1   4.405E-03
  CGR           6          0          1   2.209E-03
  CGR           7          0          1   6.964E-04
  CGR           8          0          1   2.823E-04
  CGR           9          0          1   1.330E-04
  CGR          10          0          1   4.484E-05
  CGR          11          0          1   1.393E-05
  CGR          12          0          1   5.321E-06
  CGR          13          0          1   1.661E-06
  CGR          14          1          0   5.265E-07

    CGRSolver converged.

  ==> DFCorrGrad: Density-Fitted Correlated Gradients <==

    OpenMP threads:              8
    Integrals threads:           8
    Memory (MB):              3576
    Schwarz Cutoff:          0E+00
    Fitting Condition:       1E-12

   => Auxiliary Basis Set <=

  Basis Set: (AUG-CC-PVTZ AUX)
    Blend: AUG-CC-PVTZ-JKFIT
    Number of shells: 530
    Number of basis function: 1812
    Number of Cartesian functions: 2253
    Spherical Harmonics?: true
    Max angular momentum: 4

	-----------------------------------------------------------
	 ==================> DF-MP2 Energies <==================== 
	-----------------------------------------------------------
	 Reference Energy          =    -551.6745956103587787 [Eh]
	 Singles Energy            =      -0.0000000000000002 [Eh]
	 Same-Spin Energy          =      -0.5965474095714652 [Eh]
	 Opposite-Spin Energy      =      -1.8252779328132371 [Eh]
	 Correlation Energy        =      -2.4218253423847025 [Eh]
	 Total Energy              =    -554.0964209527435287 [Eh]
	-----------------------------------------------------------
	 ================> DF-SCS-MP2 Energies <================== 
	-----------------------------------------------------------
	 SCS Same-Spin Scale       =       0.3333333333333333 [-]
	 SCS Opposite-Spin Scale   =       1.2000000000000000 [-]
	 SCS Same-Spin Energy      =      -0.1988491365238217 [Eh]
	 SCS Opposite-Spin Energy  =      -2.1903335193758844 [Eh]
	 SCS Correlation Energy    =      -2.3891826558997060 [Eh]
	 SCS Total Energy          =    -554.0637782662585096 [Eh]
	-----------------------------------------------------------


  -Total Gradient:
     Atom            X                  Y                   Z
    ------   -----------------  -----------------  -----------------
       1        0.009292208902    -0.007964271259    -0.006000219497
       2        0.010315849808    -0.001335164695    -0.009107714844
       3        0.000325766939     0.002329407716     0.007304212604
       4       -0.011743557626     0.005490373245     0.005177737064
       5       -0.015459126512     0.009066049614     0.013658275921
       6       -0.019189784079     0.008531095461     0.008439009869
       7        0.008501847748    -0.010331226344     0.004659028801
       8        0.005553908908     0.003296038325    -0.013863621117
       9       -0.002455239894     0.001284976911     0.001250340113
      10        0.014265056390    -0.006962979873    -0.009239215571
      11       -0.001362990649    -0.003679161578    -0.011539008268
      12       -0.001737912620     0.000524893942     0.001441936501
      13       -0.004394147810    -0.003495830176     0.007995674312
      14        0.001780625490     0.001124708842    -0.006018249504
      15        0.003806733505    -0.004331996847     0.002739845777
      16       -0.002966095759     0.001988750587    -0.005204743369
      17        0.000654240815    -0.000549905781     0.004738652096
      18       -0.005051010507     0.004340324189    -0.002894010274
      19       -0.001573431779    -0.000711187589     0.007017377268
      20        0.001877694317    -0.000455189244    -0.002564412255
      21        0.002421240800    -0.001678311340    -0.000085198222
      22        0.005126562606    -0.002723348414    -0.003221665598
      23        0.002011561008     0.006241954316     0.005315968202


*** tstop() called on gpu-2-14.local at Sun Nov 12 09:45:49 2017
Module time:
	user time   =    5691.86 seconds =      94.86 minutes
	system time =     123.51 seconds =       2.06 minutes
	total time  =       2611 seconds =      43.52 minutes
Total time:
	user time   =    5691.87 seconds =      94.86 minutes
	system time =     123.51 seconds =       2.06 minutes
	total time  =       2611 seconds =      43.52 minutes

			-----------------------------------------
			 OPTKING 2.0: for geometry optimizations 
			  - R.A. King,  Bethel University        
			-----------------------------------------

	Internal coordinates to be generated automatically.
	Detected frag 1 with atoms:  1 2 3 4 5 6 7 8 9 10 11 12 13 14 15 16 17 18 19 20
	 21 22 23
	---Fragment 1 Bond Connectivity---
	 1 : 3 9 14
	 2 : 4 9 15
	 3 : 1 11 16
	 4 : 2 11 17
	 5 : 7 10 18
	 6 : 8 10 19
	 7 : 5 12 20
	 8 : 6 12 21
	 9 : 1 2 10
	 10 : 5 6 9
	 11 : 3 4 13
	 12 : 7 8 22
	 13 : 11 23
	 14 : 1
	 15 : 2
	 16 : 3
	 17 : 4
	 18 : 5
	 19 : 6
	 20 : 7
	 21 : 8
	 22 : 12
	 23 : 13

	Assuming in current code that numbering for constraints corresponds to unified fragment.
	Fixed dihedral atom list: 
	     3    11    13    23
	---Fragment 1 Geometry and Gradient---
	 C          -2.4046965455        1.3561585715       -1.0932252463
	 C          -0.5281984955        0.1920872736        2.9016557986
	 C          -4.4418213167        2.4389716456        0.1785604411
	 C          -2.5653232668        1.2749003477        4.1753312122
	 C           2.4235537240        0.0654756227       -3.3797938671
	 C           2.9451181367       -2.9316300241        0.0047056369
	 C           4.4568990430       -1.0494627957       -4.6043364012
	 C           4.9671250989       -3.9709793971       -1.3048745732
	 C          -0.4469402718        0.2317715224        0.2673775694
	 C           1.6676632709       -0.8907258005       -1.0516512714
	 C          -4.5230795404        2.3992873968        2.8128386704
	 N           5.6549854113       -3.0128882478       -3.5442000406
	 O          -6.5110714322        3.4575340312        4.0543887397
	 H          -2.3687917490        1.4015119987       -3.1473575527
	 H           0.9835824108       -0.6771867475        3.9901380512
	 H          -5.9611611276        3.3120251190       -0.8929142762
	 H          -2.6182355985        1.2389955512        6.2275737925
	 H           1.4616831224        1.6566250266       -4.2490678882
	 H           2.3952078321       -3.7177560953        1.8188427245
	 H           5.1768846997       -0.4315223502       -6.4146940365
	 H           6.0669457082       -5.5545698965       -0.6283526176
	 H           7.1440896040       -3.8046834974       -4.4758350242
	 H          -5.9762789366        4.0924820119        5.6890018446
	             0.0092922089       -0.0079642713       -0.0060002195
	             0.0103158498       -0.0013351647       -0.0091077148
	             0.0003257669        0.0023294077        0.0073042126
	            -0.0117435576        0.0054903732        0.0051777371
	            -0.0154591265        0.0090660496        0.0136582759
	            -0.0191897841        0.0085310955        0.0084390099
	             0.0085018477       -0.0103312263        0.0046590288
	             0.0055539089        0.0032960383       -0.0138636211
	            -0.0024552399        0.0012849769        0.0012503401
	             0.0142650564       -0.0069629799       -0.0092392156
	            -0.0013629906       -0.0036791616       -0.0115390083
	            -0.0017379126        0.0005248939        0.0014419365
	            -0.0043941478       -0.0034958302        0.0079956743
	             0.0017806255        0.0011247088       -0.0060182495
	             0.0038067335       -0.0043319968        0.0027398458
	            -0.0029660958        0.0019887506       -0.0052047434
	             0.0006542408       -0.0005499058        0.0047386521
	            -0.0050510105        0.0043403242       -0.0028940103
	            -0.0015734318       -0.0007111876        0.0070173773
	             0.0018776943       -0.0004551892       -0.0025644123
	             0.0024212408       -0.0016783113       -0.0000851982
	             0.0051265626       -0.0027233484       -0.0032216656
	             0.0020115610        0.0062419543        0.0053159682

	Previous optimization step data not found.  Starting new optimization.

	---Fragment 1 Intrafragment Coordinates---
	 - Coordinate -           - BOHR/RAD -       - ANG/DEG -
	 R(1,3)           =         2.634350	       1.394038
	 R(1,9)           =         2.635962	       1.394891
	 R(1,14)          =         2.054947	       1.087431
	 R(2,4)           =         2.635263	       1.394521
	 R(2,9)           =         2.635830	       1.394821
	 R(2,15)          =         2.055702	       1.087831
	 R(3,11)          =         2.635830	       1.394821
	 R(3,16)          =         2.053941	       1.086899
	 R(4,11)          =         2.636938	       1.395407
	 R(4,17)          =         2.053239	       1.086527
	 R(5,7)           =         2.622420	       1.387725
	 R(5,10)          =         2.627915	       1.390633
	 R(5,18)          =         2.052459	       1.086115
	 R(6,8)           =         2.623692	       1.388398
	 R(6,10)          =         2.629272	       1.391351
	 R(6,19)          =         2.052191	       1.085973
	 R(7,12)          =         2.532655	       1.340223
	 R(7,20)          =         2.043924	       1.081598
	 R(8,12)          =         2.530942	       1.339317
	 R(8,21)          =         2.043293	       1.081264
	 R(9,10)          =         2.733384	       1.446444
	 R(11,13)         =         2.571662	       1.360865
	 R(12,22)         =         1.926737	       1.019585
	 R(13,23)         =         1.833336	       0.970160
	 B(1,3,11)        =         2.094553	     120.009056
	 B(1,3,16)        =         2.088505	     119.662516
	 B(1,9,2)         =         2.093692	     119.959722
	 B(1,9,10)        =         2.095161	     120.043881
	 B(2,4,11)        =         2.093699	     119.960108
	 B(2,4,17)        =         2.089577	     119.723926
	 B(2,9,10)        =         2.094332	     119.996376
	 B(3,1,9)         =         2.094940	     120.031219
	 B(3,1,14)        =         2.079469	     119.144799
	 B(3,11,4)        =         2.094306	     119.994870
	 B(3,11,13)       =         2.094549	     120.008801
	 B(4,2,9)         =         2.095181	     120.045019
	 B(4,2,15)        =         2.078675	     119.099297
	 B(4,11,13)       =         2.094331	     119.996326
	 B(5,7,12)        =         2.095473	     120.061759
	 B(5,7,20)        =         2.162990	     123.930212
	 B(5,10,6)        =         2.092808	     119.909049
	 B(5,10,9)        =         2.095104	     120.040644
	 B(6,8,12)        =         2.095689	     120.074121
	 B(6,8,21)        =         2.161055	     123.819347
	 B(6,10,9)        =         2.095271	     120.050189
	 B(7,5,10)        =         2.073747	     118.816947
	 B(7,5,18)        =         2.088865	     119.683141
	 B(7,12,8)        =         2.135611	     122.361511
	 B(7,12,22)       =         2.073499	     118.802740
	 B(8,6,10)        =         2.073041	     118.776513
	 B(8,6,19)        =         2.089782	     119.735704
	 B(8,12,22)       =         2.074075	     118.835741
	 B(9,1,14)        =         2.108776	     120.823969
	 B(9,2,15)        =         2.109330	     120.855683
	 B(10,5,18)       =         2.120573	     121.499869
	 B(10,6,19)       =         2.120361	     121.487761
	 B(11,3,16)       =         2.100127	     120.328425
	 B(11,4,17)       =         2.099910	     120.315955
	 B(11,13,23)      =         1.925668	     110.332626
	 B(12,7,20)       =         2.024722	     116.007998
	 B(12,8,21)       =         2.026441	     116.106509
	 D(1,3,11,4)      =        -0.000325	      -0.018609
	 D(1,3,11,13)     =         3.140978	     179.964785
	 D(1,9,2,4)       =         0.000325	       0.018608
	 D(1,9,2,15)      =        -3.141497	    -179.994534
	 D(1,9,10,5)      =         0.522161	      29.917626
	 D(1,9,10,6)      =        -2.617252	    -149.957477
	 D(2,4,11,3)      =         0.000301	       0.017261
	 D(2,4,11,13)     =        -3.141002	    -179.966135
	 D(2,9,1,3)       =        -0.000348	      -0.019945
	 D(2,9,1,14)      =        -3.141221	    -179.978731
	 D(2,9,10,5)      =        -2.618515	    -150.029870
	 D(2,9,10,6)      =         0.525257	      30.095026
	 D(3,1,9,10)      =        -3.141025	    -179.967461
	 D(3,11,4,17)     =         3.141223	     179.978848
	 D(3,11,13,23)    =        -2.617715	    -149.984008
	 D(4,2,9,10)      =         3.141002	     179.966149
	 D(4,11,3,16)     =         3.141593	     180.000000
	 D(4,11,13,23)    =         0.523588	      29.999386
	 D(5,7,12,8)      =        -0.000900	      -0.051587
	 D(5,7,12,22)     =         3.141281	     179.982140
	 D(5,10,6,8)      =         0.001757	       0.100696
	 D(5,10,6,19)     =        -3.140779	    -179.953357
	 D(6,8,12,7)      =         0.001479	       0.084766
	 D(6,8,12,22)     =        -3.140702	    -179.948971
	 D(6,10,5,7)      =        -0.001201	      -0.068795
	 D(6,10,5,18)     =        -3.141485	    -179.993816
	 D(7,5,10,9)      =        -3.140617	    -179.944076
	 D(7,12,8,21)     =        -3.141052	    -179.969035
	 D(8,6,10,9)      =         3.141173	     179.975965
	 D(8,12,7,20)     =         3.139609	     179.886353
	 D(9,1,3,11)      =         0.000348	       0.019955
	 D(9,1,3,16)      =        -3.141571	    -179.998735
	 D(9,2,4,11)      =        -0.000301	      -0.017270
	 D(9,2,4,17)      =        -3.141228	    -179.979086
	 D(9,10,5,18)     =         0.002285	       0.130903
	 D(9,10,6,19)     =        -0.001363	      -0.078088
	 D(10,5,7,12)     =         0.000747	       0.042772
	 D(10,5,7,20)     =        -3.139673	    -179.890006
	 D(10,6,8,12)     =        -0.001882	      -0.107847
	 D(10,6,8,21)     =         3.140725	     179.950304
	 D(10,9,1,14)     =         0.001287	       0.073752
	 D(10,9,2,15)     =        -0.000820	      -0.046992
	 D(11,3,1,14)     =         3.141234	     179.979432
	 D(11,4,2,15)     =         3.141517	     179.995641
	 D(12,7,5,18)     =         3.141055	     179.969186
	 D(12,8,6,19)     =         3.140637	     179.945236
	 D(13,11,3,16)    =        -0.000286	      -0.016400
	 D(13,11,4,17)    =        -0.000079	      -0.004548
	 D(14,1,3,16)     =        -0.000685	      -0.039257
	 D(15,2,4,17)     =         0.000590	       0.033826
	 D(18,5,7,20)     =         0.000635	       0.036408
	 D(19,6,8,21)     =         0.000059	       0.003387
	 D(20,7,12,22)    =        -0.001395	      -0.079920
	 D(21,8,12,22)    =        -0.000048	      -0.002772

	Current energy   :      -554.0964209527

	Generating empirical Hessian (Schlegel '84) for each fragment.
	Adding user-defined constraint: Fragment 1; Coordinate 76:
		Value =    -2.617715; Fixed value    =    -2.617994
		Force =    -0.000140; Force constant =     0.500000
	Removing off-diagonal coupling between coordinate 76 and others.
	Taking RFO optimization step.
	Going to follow RFO solution 1.
	Using RFO vector 1.

	Determining step-restricting scale parameter for RS-RFO.
	Maximum step size allowed    0.10000

	 Iter      |step|        alpha        rfo_root  
	------------------------------------------------
	    0     0.20226       1.00000           1
	    1     0.15332       4.49777           1
	    2     0.12465      12.11698           1
	    3     0.10739      23.16903           1
	    4     0.10088      29.65377           1
	    5     0.10001      30.64875           1
	    6     0.10000      30.66591           1
	------------------------------------------------
	Norm of target step-size    0.10000
	Projected energy change by RFO approximation:        -0.0048976249

	Back-transformation to cartesian coordinates...
	The INTCO_EXCEPTion handler:
	TORS::compute_val: unable to compute torsion value
	Dynamic level is 0.
	exc.g_really_quit() is 0.

  **** Optimization has failed! (in 1 steps) ****
			--------------------------
			 OPTKING Finished Execution 
			--------------------------
	Cleaning optimization helper files.

*** Psi4 exiting successfully. Buy a developer a beer!
