
    -----------------------------------------------------------------------
          Psi4: An Open-Source Ab Initio Electronic Structure Package
                               Psi4 1.1 release

                         Git: Rev {HEAD} add49b9 


    R. M. Parrish, L. A. Burns, D. G. A. Smith, A. C. Simmonett,
    A. E. DePrince III, E. G. Hohenstein, U. Bozkaya, A. Yu. Sokolov,
    R. Di Remigio, R. M. Richard, J. F. Gonthier, A. M. James,
    H. R. McAlexander, A. Kumar, M. Saitow, X. Wang, B. P. Pritchard,
    P. Verma, H. F. Schaefer III, K. Patkowski, R. A. King, E. F. Valeev,
    F. A. Evangelista, J. M. Turney, T. D. Crawford, and C. D. Sherrill,
    J. Chem. Theory Comput. in press (2017).
    (doi: 10.1021/acs.jctc.7b00174)

    -----------------------------------------------------------------------


    Psi4 started on: Sunday, 12 November 2017 12:03AM

    Process ID:  14342
    PSIDATADIR: /cbio/jclab/home/chayas/anaconda/envs/py35/share/psi4
    Memory:     500.0 MiB
    Threads:    8
    
  ==> Input File <==

--------------------------------------------------------------------------

memory 5 Gb

molecule phepyrFOH_neutral {
  symmetry C1
  0 1 
  C      1.885   -1.036   -0.112
  C      0.807   -0.463   0.561
  C      3.825   -3.269   -0.988
  C      5.328   -1.753   0.119
  C      1.800   -1.079   2.676
  C      4.927   -3.802   -1.637
  C      6.363   -2.354   -0.579
  C      2.921   -1.631   0.608
  C      4.038   -2.225   -0.095
  C      0.764   -0.484   1.955
  C      2.878   -1.652   2.002
  N      6.195   -3.370   -1.455
  O      -0.289   0.076   2.612
  F      3.866   -2.220   2.709
  H      1.904   -1.012   -1.199
  H      0.002   -0.002   -0.006
  H      2.833   -3.663   -1.183
  H      5.532   -0.940   0.809
  H      1.772   -1.099   3.762
  H      4.814   -4.616   -2.345
  H      7.387   -2.023   -0.446
  H      -0.355   1.020   2.398
  units Angstrom
}

dih_string = "2 10 13 22 300"
set optking fixed_dihedral = $dih_string

optimize('MP2/aug-cc-PVTZ')
--------------------------------------------------------------------------

  Memory set to   4.657 GiB by Python driver.
gradient() will perform analytic gradient computation.

*** tstart() called on gpu-2-10.local
*** at Sun Nov 12 00:03:40 2017

    SCF Algorithm Type (re)set to DF.

*** tstart() called on gpu-2-10.local
*** at Sun Nov 12 00:03:40 2017

   => Loading Basis Set <=

    Name: AUG-CC-PVTZ
    Role: ORBITAL
    Keyword: BASIS
    atoms 1-11  entry C          line   221 file /cbio/jclab/home/chayas/anaconda/envs/py35/share/psi4/basis/aug-cc-pvtz.gbs 
    atoms 12    entry N          line   267 file /cbio/jclab/home/chayas/anaconda/envs/py35/share/psi4/basis/aug-cc-pvtz.gbs 
    atoms 13    entry O          line   313 file /cbio/jclab/home/chayas/anaconda/envs/py35/share/psi4/basis/aug-cc-pvtz.gbs 
    atoms 14    entry F          line   359 file /cbio/jclab/home/chayas/anaconda/envs/py35/share/psi4/basis/aug-cc-pvtz.gbs 
    atoms 15-22 entry H          line    34 file /cbio/jclab/home/chayas/anaconda/envs/py35/share/psi4/basis/aug-cc-pvtz.gbs 


         ---------------------------------------------------------
                                   SCF
            by Justin Turney, Rob Parrish, and Andy Simmonett
                              RHF Reference
                        8 Threads,   4768 MiB Core
         ---------------------------------------------------------

  ==> Geometry <==

    Molecular point group: c1
    Full point group: C1

    Geometry (in Angstrom), charge = 0, multiplicity = 1:

       Center              X                  Y                   Z               Mass       
    ------------   -----------------  -----------------  -----------------  -----------------
           C         -1.320783895502     0.749467694790    -0.793241997625    12.000000000000
           C         -2.398783895502     1.322467694790    -0.120241997625    12.000000000000
           C          0.619216104498    -1.483532305210    -1.669241997625    12.000000000000
           C          2.122216104498     0.032467694790    -0.562241997625    12.000000000000
           C         -1.405783895502     0.706467694790     1.994758002375    12.000000000000
           C          1.721216104498    -2.016532305210    -2.318241997625    12.000000000000
           C          3.157216104498    -0.568532305210    -1.260241997625    12.000000000000
           C         -0.284783895502     0.154467694790    -0.073241997625    12.000000000000
           C          0.832216104498    -0.439532305210    -0.776241997625    12.000000000000
           C         -2.441783895502     1.301467694790     1.273758002375    12.000000000000
           C         -0.327783895502     0.133467694790     1.320758002375    12.000000000000
           N          2.989216104498    -1.584532305210    -2.136241997625    14.003074004780
           O         -3.494783895502     1.861467694790     1.930758002375    15.994914619560
           F          0.660216104498    -0.434532305210     2.027758002375    18.998403224000
           H         -1.301783895502     0.773467694790    -1.880241997625     1.007825032070
           H         -3.203783895502     1.783467694790    -0.687241997625     1.007825032070
           H         -0.372783895502    -1.877532305210    -1.864241997625     1.007825032070
           H          2.326216104498     0.845467694790     0.127758002375     1.007825032070
           H         -1.433783895502     0.686467694790     3.080758002375     1.007825032070
           H          1.608216104498    -2.830532305210    -3.026241997625     1.007825032070
           H          4.181216104498    -0.237532305210    -1.127241997625     1.007825032070
           H         -3.560783895502     2.805467694790     1.716758002375     1.007825032070

  Running in c1 symmetry.

  Rotational constants: A =      0.06308  B =      0.01307  C =      0.01165 [cm^-1]
  Rotational constants: A =   1891.01367  B =    391.76043  C =    349.29500 [MHz]
  Nuclear repulsion =  813.832670980972921

  Charge       = 0
  Multiplicity = 1
  Electrons    = 98
  Nalpha       = 49
  Nbeta        = 49

  ==> Algorithm <==

  SCF Algorithm Type is DF.
  DIIS enabled.
  MOM disabled.
  Fractional occupation disabled.
  Guess Type is SAD.
  Energy threshold   = 1.00e-10
  Density threshold  = 1.00e-10
  Integral threshold = 0.00e+00

  ==> Primary Basis <==

  Basis Set: AUG-CC-PVTZ
    Blend: AUG-CC-PVTZ
    Number of shells: 268
    Number of basis function: 828
    Number of Cartesian functions: 970
    Spherical Harmonics?: true
    Max angular momentum: 3

   => Loading Basis Set <=

    Name: (AUG-CC-PVTZ AUX)
    Role: JKFIT
    Keyword: DF_BASIS_SCF
    atoms 1-11  entry C          line   161 file /cbio/jclab/home/chayas/anaconda/envs/py35/share/psi4/basis/aug-cc-pvtz-jkfit.gbs 
    atoms 12    entry N          line   223 file /cbio/jclab/home/chayas/anaconda/envs/py35/share/psi4/basis/aug-cc-pvtz-jkfit.gbs 
    atoms 13    entry O          line   285 file /cbio/jclab/home/chayas/anaconda/envs/py35/share/psi4/basis/aug-cc-pvtz-jkfit.gbs 
    atoms 14    entry F          line   347 file /cbio/jclab/home/chayas/anaconda/envs/py35/share/psi4/basis/aug-cc-pvtz-jkfit.gbs 
    atoms 15-22 entry H          line    69 file /cbio/jclab/home/chayas/anaconda/envs/py35/share/psi4/basis/aug-cc-pvtz-jkfit.gbs 

  ==> Pre-Iterations <==

   -------------------------------------------------------
    Irrep   Nso     Nmo     Nalpha   Nbeta   Ndocc  Nsocc
   -------------------------------------------------------
     A        828     828       0       0       0       0
   -------------------------------------------------------
    Total     828     828      49      49      49       0
   -------------------------------------------------------

  ==> Integral Setup <==

  ==> DFJK: Density-Fitted J/K Matrices <==

    J tasked:                  Yes
    K tasked:                  Yes
    wK tasked:                  No
    OpenMP threads:              8
    Integrals threads:           8
    Memory (MB):              3576
    Algorithm:                Disk
    Integral Cache:           NONE
    Schwarz Cutoff:          1E-12
    Fitting Condition:       1E-12

   => Auxiliary Basis Set <=

  Basis Set: (AUG-CC-PVTZ AUX)
    Blend: AUG-CC-PVTZ-JKFIT
    Number of shells: 532
    Number of basis function: 1824
    Number of Cartesian functions: 2274
    Spherical Harmonics?: true
    Max angular momentum: 4

  Minimum eigenvalue in the overlap matrix is 7.6480387342E-07.
  Using Symmetric Orthogonalization.

  SCF Guess: Superposition of Atomic Densities via on-the-fly atomic UHF.

  ==> Iterations <==

                           Total Energy        Delta E     RMS |[F,P]|

   @DF-RHF iter   0:  -658.34895203622818   -6.58349e+02   2.12022e-02 
   @DF-RHF iter   1:  -649.83377408099614    8.51518e+00   2.08109e-03 
   @DF-RHF iter   2:  -650.10880345650389   -2.75029e-01   9.07022e-04 DIIS
   @DF-RHF iter   3:  -650.15409895814776   -4.52955e-02   4.44840e-04 DIIS
   @DF-RHF iter   4:  -650.16840376783091   -1.43048e-02   1.42671e-04 DIIS
   @DF-RHF iter   5:  -650.17021291970968   -1.80915e-03   5.76771e-05 DIIS
   @DF-RHF iter   6:  -650.17053393264177   -3.21013e-04   1.76487e-05 DIIS
   @DF-RHF iter   7:  -650.17057699201382   -4.30594e-05   5.56224e-06 DIIS
   @DF-RHF iter   8:  -650.17058166876586   -4.67675e-06   2.58360e-06 DIIS
   @DF-RHF iter   9:  -650.17058276763464   -1.09887e-06   1.23249e-06 DIIS
   @DF-RHF iter  10:  -650.17058315470581   -3.87071e-07   5.46781e-07 DIIS
   @DF-RHF iter  11:  -650.17058325350979   -9.88040e-08   1.82394e-07 DIIS
   @DF-RHF iter  12:  -650.17058326659605   -1.30863e-08   7.03456e-08 DIIS
   @DF-RHF iter  13:  -650.17058326761844   -1.02239e-09   2.32497e-08 DIIS
   @DF-RHF iter  14:  -650.17058326770120   -8.27640e-11   7.21558e-09 DIIS
   @DF-RHF iter  15:  -650.17058326772712   -2.59206e-11   4.44735e-09 DIIS
   @DF-RHF iter  16:  -650.17058326772781   -6.82121e-13   2.05124e-09 DIIS
   @DF-RHF iter  17:  -650.17058326771564    1.21645e-11   8.58037e-10 DIIS
   @DF-RHF iter  18:  -650.17058326770848    7.16227e-12   3.94656e-10 DIIS
   @DF-RHF iter  19:  -650.17058326772076   -1.22782e-11   1.59525e-10 DIIS
   @DF-RHF iter  20:  -650.17058326772269   -1.93268e-12   6.76319e-11 DIIS

  ==> Post-Iterations <==

    Orbital Energies (a.u.)
    -----------------------

    Doubly Occupied:                                                      

       1A    -26.325429     2A    -20.599055     3A    -15.566375  
       4A    -11.346713     5A    -11.320738     6A    -11.275836  
       7A    -11.275116     8A    -11.266529     9A    -11.264141  
      10A    -11.256642    11A    -11.252241    12A    -11.248309  
      13A    -11.240801    14A    -11.239611    15A     -1.643671  
      16A     -1.416493    17A     -1.251478    18A     -1.181806  
      19A     -1.110435    20A     -1.040681    21A     -1.035214  
      22A     -1.018803    23A     -0.889697    24A     -0.874692  
      25A     -0.852848    26A     -0.826689    27A     -0.776448  
      28A     -0.733513    29A     -0.724609    30A     -0.709948  
      31A     -0.699463    32A     -0.665059    33A     -0.662560  
      34A     -0.651441    35A     -0.631035    36A     -0.625790  
      37A     -0.604047    38A     -0.599823    39A     -0.564135  
      40A     -0.538195    41A     -0.537146    42A     -0.525788  
      43A     -0.510155    44A     -0.496729    45A     -0.420412  
      46A     -0.389817    47A     -0.358157    48A     -0.349982  
      49A     -0.331532  

    Virtual:                                                              

      50A      0.020804    51A      0.030070    52A      0.033069  
      53A      0.037073    54A      0.042282    55A      0.046038  
      56A      0.050804    57A      0.057679    58A      0.074058  
      59A      0.082342    60A      0.083789    61A      0.085088  
      62A      0.087800    63A      0.094556    64A      0.096843  
      65A      0.101156    66A      0.107069    67A      0.107240  
      68A      0.108782    69A      0.112236    70A      0.117296  
      71A      0.117730    72A      0.119311    73A      0.124596  
      74A      0.127029    75A      0.131973    76A      0.133179  
      77A      0.134394    78A      0.139193    79A      0.144693  
      80A      0.146693    81A      0.149445    82A      0.152139  
      83A      0.154710    84A      0.155933    85A      0.166389  
      86A      0.172872    87A      0.174085    88A      0.179176  
      89A      0.185559    90A      0.195358    91A      0.198688  
      92A      0.207435    93A      0.211939    94A      0.216158  
      95A      0.223934    96A      0.232858    97A      0.234632  
      98A      0.239648    99A      0.240497   100A      0.240849  
     101A      0.244957   102A      0.250315   103A      0.253812  
     104A      0.256778   105A      0.260138   106A      0.262829  
     107A      0.264650   108A      0.266553   109A      0.274501  
     110A      0.276226   111A      0.282201   112A      0.284512  
     113A      0.291460   114A      0.296934   115A      0.301401  
     116A      0.305545   117A      0.309019   118A      0.312600  
     119A      0.316840   120A      0.318597   121A      0.322160  
     122A      0.323698   123A      0.328501   124A      0.331467  
     125A      0.335067   126A      0.340001   127A      0.346732  
     128A      0.349607   129A      0.352659   130A      0.358553  
     131A      0.368182   132A      0.375109   133A      0.376759  
     134A      0.383419   135A      0.383914   136A      0.390948  
     137A      0.395796   138A      0.404277   139A      0.406496  
     140A      0.415254   141A      0.415562   142A      0.420984  
     143A      0.422353   144A      0.427984   145A      0.428583  
     146A      0.438743   147A      0.440519   148A      0.444344  
     149A      0.447615   150A      0.453462   151A      0.456659  
     152A      0.463223   153A      0.469478   154A      0.473104  
     155A      0.475834   156A      0.477014   157A      0.479933  
     158A      0.483347   159A      0.488674   160A      0.489489  
     161A      0.495500   162A      0.497028   163A      0.497715  
     164A      0.505144   165A      0.507877   166A      0.511586  
     167A      0.514554   168A      0.516616   169A      0.518432  
     170A      0.520190   171A      0.525869   172A      0.530693  
     173A      0.535822   174A      0.540602   175A      0.543923  
     176A      0.547958   177A      0.548481   178A      0.555894  
     179A      0.560429   180A      0.565158   181A      0.570012  
     182A      0.578565   183A      0.580174   184A      0.585764  
     185A      0.591671   186A      0.593914   187A      0.603247  
     188A      0.610096   189A      0.619088   190A      0.624027  
     191A      0.626911   192A      0.627652   193A      0.638782  
     194A      0.642172   195A      0.648748   196A      0.655058  
     197A      0.655216   198A      0.670425   199A      0.671346  
     200A      0.677264   201A      0.681329   202A      0.692702  
     203A      0.699729   204A      0.704752   205A      0.707457  
     206A      0.715554   207A      0.716420   208A      0.724263  
     209A      0.725458   210A      0.733741   211A      0.734497  
     212A      0.741125   213A      0.743121   214A      0.749842  
     215A      0.760119   216A      0.769510   217A      0.773900  
     218A      0.777643   219A      0.792103   220A      0.793651  
     221A      0.799357   222A      0.802768   223A      0.804919  
     224A      0.819013   225A      0.825716   226A      0.828996  
     227A      0.834084   228A      0.837382   229A      0.850439  
     230A      0.852637   231A      0.855648   232A      0.861029  
     233A      0.865110   234A      0.871995   235A      0.877057  
     236A      0.880795   237A      0.886105   238A      0.889846  
     239A      0.898040   240A      0.898889   241A      0.908377  
     242A      0.913121   243A      0.917035   244A      0.924790  
     245A      0.930590   246A      0.932486   247A      0.938195  
     248A      0.943879   249A      0.945573   250A      0.948763  
     251A      0.955781   252A      0.957929   253A      0.962675  
     254A      0.963536   255A      0.966023   256A      0.976173  
     257A      0.979551   258A      0.984155   259A      0.987439  
     260A      0.993030   261A      0.999080   262A      1.002039  
     263A      1.009271   264A      1.011419   265A      1.017703  
     266A      1.020224   267A      1.026090   268A      1.027467  
     269A      1.033705   270A      1.037043   271A      1.042180  
     272A      1.044788   273A      1.050844   274A      1.056266  
     275A      1.065034   276A      1.066899   277A      1.071454  
     278A      1.079299   279A      1.081066   280A      1.085919  
     281A      1.088013   282A      1.089921   283A      1.098589  
     284A      1.101162   285A      1.106469   286A      1.110908  
     287A      1.115877   288A      1.124033   289A      1.128760  
     290A      1.133202   291A      1.135907   292A      1.139892  
     293A      1.142648   294A      1.153577   295A      1.156428  
     296A      1.159985   297A      1.163792   298A      1.172758  
     299A      1.178981   300A      1.180818   301A      1.184962  
     302A      1.187056   303A      1.198499   304A      1.200490  
     305A      1.207581   306A      1.208837   307A      1.210420  
     308A      1.217134   309A      1.225700   310A      1.232750  
     311A      1.241421   312A      1.242825   313A      1.251795  
     314A      1.256447   315A      1.266667   316A      1.268378  
     317A      1.272522   318A      1.275066   319A      1.284978  
     320A      1.294522   321A      1.298058   322A      1.307786  
     323A      1.312405   324A      1.320943   325A      1.321986  
     326A      1.328317   327A      1.335402   328A      1.339893  
     329A      1.346942   330A      1.356083   331A      1.362704  
     332A      1.368002   333A      1.375651   334A      1.381669  
     335A      1.388417   336A      1.391940   337A      1.404567  
     338A      1.407918   339A      1.415005   340A      1.433652  
     341A      1.439144   342A      1.442556   343A      1.448556  
     344A      1.451707   345A      1.462294   346A      1.468968  
     347A      1.481087   348A      1.488141   349A      1.495111  
     350A      1.497134   351A      1.506136   352A      1.520548  
     353A      1.533214   354A      1.536118   355A      1.550393  
     356A      1.558745   357A      1.564437   358A      1.568933  
     359A      1.575930   360A      1.577582   361A      1.585549  
     362A      1.587427   363A      1.595640   364A      1.610133  
     365A      1.619103   366A      1.625434   367A      1.633647  
     368A      1.641616   369A      1.647372   370A      1.652093  
     371A      1.660980   372A      1.666620   373A      1.673277  
     374A      1.684960   375A      1.688348   376A      1.693206  
     377A      1.698633   378A      1.704515   379A      1.721251  
     380A      1.722669   381A      1.731255   382A      1.742594  
     383A      1.749480   384A      1.756895   385A      1.762574  
     386A      1.767440   387A      1.770811   388A      1.779527  
     389A      1.786708   390A      1.803346   391A      1.804365  
     392A      1.813663   393A      1.821902   394A      1.824248  
     395A      1.833175   396A      1.858436   397A      1.865492  
     398A      1.866401   399A      1.873072   400A      1.886010  
     401A      1.888780   402A      1.893699   403A      1.899154  
     404A      1.911410   405A      1.921520   406A      1.925605  
     407A      1.933435   408A      1.938844   409A      1.942296  
     410A      1.947214   411A      1.961955   412A      1.968871  
     413A      1.978549   414A      1.984358   415A      1.991064  
     416A      2.001170   417A      2.010250   418A      2.016225  
     419A      2.022898   420A      2.034465   421A      2.037618  
     422A      2.042263   423A      2.052997   424A      2.060634  
     425A      2.069247   426A      2.076488   427A      2.081417  
     428A      2.085828   429A      2.090873   430A      2.105415  
     431A      2.112629   432A      2.120894   433A      2.127219  
     434A      2.131619   435A      2.140217   436A      2.152302  
     437A      2.160240   438A      2.169255   439A      2.172993  
     440A      2.184029   441A      2.192722   442A      2.194107  
     443A      2.211049   444A      2.221381   445A      2.228324  
     446A      2.237741   447A      2.248902   448A      2.251289  
     449A      2.258083   450A      2.268983   451A      2.273825  
     452A      2.289138   453A      2.291905   454A      2.304138  
     455A      2.313067   456A      2.319418   457A      2.331444  
     458A      2.341820   459A      2.354128   460A      2.357068  
     461A      2.375170   462A      2.378684   463A      2.394550  
     464A      2.400895   465A      2.419799   466A      2.427477  
     467A      2.447286   468A      2.454093   469A      2.465957  
     470A      2.471462   471A      2.474999   472A      2.488471  
     473A      2.515215   474A      2.538700   475A      2.548530  
     476A      2.558457   477A      2.563646   478A      2.573234  
     479A      2.582957   480A      2.585553   481A      2.594570  
     482A      2.602237   483A      2.625930   484A      2.644059  
     485A      2.660575   486A      2.675538   487A      2.686909  
     488A      2.693598   489A      2.709541   490A      2.732331  
     491A      2.738709   492A      2.762069   493A      2.764923  
     494A      2.777223   495A      2.786988   496A      2.805746  
     497A      2.829806   498A      2.836832   499A      2.846853  
     500A      2.873244   501A      2.896747   502A      2.914675  
     503A      2.929922   504A      2.951688   505A      2.974707  
     506A      2.985452   507A      2.994979   508A      3.026614  
     509A      3.045035   510A      3.059427   511A      3.076985  
     512A      3.089274   513A      3.097631   514A      3.114986  
     515A      3.135309   516A      3.140595   517A      3.157594  
     518A      3.181699   519A      3.184096   520A      3.190189  
     521A      3.200275   522A      3.210916   523A      3.219338  
     524A      3.240057   525A      3.261782   526A      3.273226  
     527A      3.288287   528A      3.288748   529A      3.307969  
     530A      3.314638   531A      3.330992   532A      3.344596  
     533A      3.352703   534A      3.365750   535A      3.376381  
     536A      3.393547   537A      3.399875   538A      3.419984  
     539A      3.424884   540A      3.427950   541A      3.436103  
     542A      3.445407   543A      3.446081   544A      3.448026  
     545A      3.457627   546A      3.479363   547A      3.483959  
     548A      3.489905   549A      3.504626   550A      3.517159  
     551A      3.521313   552A      3.536850   553A      3.542838  
     554A      3.546768   555A      3.562124   556A      3.565412  
     557A      3.570452   558A      3.581148   559A      3.583476  
     560A      3.596444   561A      3.598504   562A      3.607944  
     563A      3.620234   564A      3.629106   565A      3.635198  
     566A      3.641130   567A      3.646994   568A      3.652832  
     569A      3.661372   570A      3.679630   571A      3.688366  
     572A      3.699160   573A      3.701611   574A      3.712079  
     575A      3.725224   576A      3.739194   577A      3.742333  
     578A      3.753262   579A      3.765456   580A      3.773534  
     581A      3.783851   582A      3.790925   583A      3.800219  
     584A      3.814512   585A      3.815060   586A      3.826306  
     587A      3.832640   588A      3.851517   589A      3.852766  
     590A      3.862612   591A      3.869999   592A      3.879215  
     593A      3.892484   594A      3.896630   595A      3.905531  
     596A      3.914608   597A      3.923843   598A      3.930660  
     599A      3.933605   600A      3.945316   601A      3.948982  
     602A      3.953471   603A      3.960859   604A      3.966649  
     605A      3.982201   606A      3.986936   607A      4.000091  
     608A      4.010659   609A      4.020018   610A      4.022152  
     611A      4.036424   612A      4.039696   613A      4.048062  
     614A      4.065595   615A      4.075210   616A      4.082409  
     617A      4.092225   618A      4.103279   619A      4.108395  
     620A      4.111869   621A      4.131957   622A      4.135220  
     623A      4.142254   624A      4.150787   625A      4.161285  
     626A      4.168744   627A      4.184754   628A      4.194179  
     629A      4.201326   630A      4.209070   631A      4.213985  
     632A      4.226382   633A      4.229236   634A      4.235468  
     635A      4.260151   636A      4.265089   637A      4.282271  
     638A      4.287326   639A      4.301066   640A      4.303479  
     641A      4.311645   642A      4.317083   643A      4.330119  
     644A      4.342957   645A      4.354499   646A      4.357747  
     647A      4.367814   648A      4.372595   649A      4.378245  
     650A      4.399327   651A      4.403298   652A      4.406247  
     653A      4.419944   654A      4.424719   655A      4.442692  
     656A      4.449819   657A      4.458109   658A      4.461529  
     659A      4.478857   660A      4.484998   661A      4.495861  
     662A      4.511840   663A      4.527711   664A      4.537594  
     665A      4.551929   666A      4.564383   667A      4.579641  
     668A      4.583040   669A      4.597773   670A      4.605634  
     671A      4.614996   672A      4.618356   673A      4.645069  
     674A      4.647401   675A      4.657229   676A      4.683401  
     677A      4.704818   678A      4.709740   679A      4.724055  
     680A      4.735136   681A      4.746876   682A      4.757925  
     683A      4.762457   684A      4.776985   685A      4.783871  
     686A      4.807787   687A      4.819492   688A      4.842387  
     689A      4.864727   690A      4.871984   691A      4.888758  
     692A      4.904017   693A      4.925453   694A      4.945101  
     695A      4.948955   696A      4.967608   697A      4.976192  
     698A      4.980463   699A      4.984400   700A      5.010682  
     701A      5.015741   702A      5.027621   703A      5.034547  
     704A      5.047170   705A      5.056450   706A      5.066499  
     707A      5.072568   708A      5.090303   709A      5.100164  
     710A      5.106678   711A      5.132818   712A      5.139309  
     713A      5.154723   714A      5.167230   715A      5.176070  
     716A      5.178298   717A      5.186038   718A      5.189011  
     719A      5.191226   720A      5.209335   721A      5.222251  
     722A      5.237641   723A      5.281733   724A      5.292425  
     725A      5.303186   726A      5.312862   727A      5.334579  
     728A      5.347842   729A      5.370560   730A      5.378317  
     731A      5.388190   732A      5.407698   733A      5.444706  
     734A      5.455360   735A      5.460786   736A      5.472183  
     737A      5.495073   738A      5.503867   739A      5.544338  
     740A      5.554610   741A      5.584835   742A      5.592854  
     743A      5.610455   744A      5.631163   745A      5.650538  
     746A      5.704494   747A      5.732676   748A      5.742530  
     749A      5.756826   750A      5.769788   751A      5.795075  
     752A      5.801529   753A      5.827097   754A      5.844157  
     755A      5.871737   756A      5.882255   757A      5.908841  
     758A      5.954279   759A      6.012088   760A      6.024555  
     761A      6.080423   762A      6.112861   763A      6.166281  
     764A      6.185468   765A      6.220229   766A      6.249996  
     767A      6.270124   768A      6.293798   769A      6.307550  
     770A      6.335457   771A      6.362510   772A      6.451684  
     773A      6.485990   774A      6.512905   775A      6.554971  
     776A      6.571279   777A      6.674870   778A      6.698120  
     779A      6.704043   780A      6.727804   781A      6.734853  
     782A      6.807231   783A      6.869632   784A      6.898214  
     785A      6.912650   786A      6.927493   787A      6.954197  
     788A      7.051720   789A      7.071693   790A      7.125514  
     791A      7.277261   792A      7.310295   793A      7.406713  
     794A      7.416379   795A      7.436002   796A      7.534048  
     797A      7.592156   798A      7.651788   799A      7.815506  
     800A      7.936177   801A      8.214605   802A      8.603697  
     803A      9.005058   804A      9.047362   805A      9.268967  
     806A      9.289861   807A      9.406367   808A      9.518048  
     809A      9.539832   810A      9.586787   811A      9.640198  
     812A      9.717581   813A     10.029002   814A     10.076275  
     815A     15.526485   816A     16.117753   817A     16.569544  
     818A     16.612206   819A     16.702393   820A     17.005594  
     821A     18.456440   822A     18.696139   823A     19.159189  
     824A     19.808008   825A     20.151948   826A     20.244390  
     827A     20.475563   828A     21.769656  

    Final Occupation by Irrep:
              A 
    DOCC [    49 ]

  Energy converged.

  @DF-RHF Final Energy:  -650.17058326772269

   => Energetics <=

    Nuclear Repulsion Energy =            813.8326709809729209
    One-Electron Energy =               -2502.5548551008305367
    Two-Electron Energy =                1038.5516008521349249
    DFT Exchange-Correlation Energy =       0.0000000000000000
    Empirical Dispersion Energy =           0.0000000000000000
    PCM Polarization Energy =               0.0000000000000000
    EFP Energy =                            0.0000000000000000
    Total Energy =                       -650.1705832677225771



Properties will be evaluated at   0.000000,   0.000000,   0.000000 Bohr

Properties computed using the SCF density matrix

  Nuclear Dipole Moment: (a.u.)
     X:    -2.2957      Y:     2.2504      Z:    -5.3285

  Electronic Dipole Moment: (a.u.)
     X:     1.2879      Y:    -1.1082      Z:     5.2325

  Dipole Moment: (a.u.)
     X:    -1.0078      Y:     1.1421      Z:    -0.0960     Total:     1.5262

  Dipole Moment: (Debye)
     X:    -2.5616      Y:     2.9030      Z:    -0.2440     Total:     3.8792


*** tstop() called on gpu-2-10.local at Sun Nov 12 00:12:18 2017
Module time:
	user time   =    1230.78 seconds =      20.51 minutes
	system time =      52.42 seconds =       0.87 minutes
	total time  =        518 seconds =       8.63 minutes
Total time:
	user time   =    1230.78 seconds =      20.51 minutes
	system time =      52.42 seconds =       0.87 minutes
	total time  =        518 seconds =       8.63 minutes

  //>>>>>>>>>>>>>>>>>>>>>>>>>>>>>>>>>>>//
  //               DFMP2               //
  //<<<<<<<<<<<<<<<<<<<<<<<<<<<<<<<<<<<//

   => Loading Basis Set <=

    Name: (AUG-CC-PVTZ AUX)
    Role: RIFIT
    Keyword: DF_BASIS_MP2
    atoms 1-11  entry C          line   147 file /cbio/jclab/home/chayas/anaconda/envs/py35/share/psi4/basis/aug-cc-pvtz-ri.gbs 
    atoms 12    entry N          line   205 file /cbio/jclab/home/chayas/anaconda/envs/py35/share/psi4/basis/aug-cc-pvtz-ri.gbs 
    atoms 13    entry O          line   263 file /cbio/jclab/home/chayas/anaconda/envs/py35/share/psi4/basis/aug-cc-pvtz-ri.gbs 
    atoms 14    entry F          line   321 file /cbio/jclab/home/chayas/anaconda/envs/py35/share/psi4/basis/aug-cc-pvtz-ri.gbs 
    atoms 15-22 entry H          line    29 file /cbio/jclab/home/chayas/anaconda/envs/py35/share/psi4/basis/aug-cc-pvtz-ri.gbs 

	 --------------------------------------------------------
	                          DF-MP2                         
	      2nd-Order Density-Fitted Moller-Plesset Theory     
	              RMP2 Wavefunction,   8 Threads             
	                                                         
	        Rob Parrish, Justin Turney, Andy Simmonett,      
	           Ed Hohenstein, and C. David Sherrill          
	 --------------------------------------------------------

   => Auxiliary Basis Set <=

  Basis Set: (AUG-CC-PVTZ AUX)
    Blend: AUG-CC-PVTZ-RI
    Number of shells: 504
    Number of basis function: 1852
    Number of Cartesian functions: 2344
    Spherical Harmonics?: true
    Max angular momentum: 4

	 --------------------------------------------------------
	                 NBF =   828, NAUX =  1852
	 --------------------------------------------------------
	   CLASS    FOCC     OCC    AOCC    AVIR     VIR    FVIR
	   PAIRS       0      49      49     779     779       0
	 --------------------------------------------------------


         ------------------------------------------------------------
                                     CPHF                           
                                  Rob Parrish                       
         ------------------------------------------------------------

  ==> Geometry <==

    Molecular point group: c1
    Full point group: C1

    Geometry (in Angstrom), charge = 0, multiplicity = 1:

       Center              X                  Y                   Z               Mass       
    ------------   -----------------  -----------------  -----------------  -----------------
           C         -1.320783895502     0.749467694790    -0.793241997625    12.000000000000
           C         -2.398783895502     1.322467694790    -0.120241997625    12.000000000000
           C          0.619216104498    -1.483532305210    -1.669241997625    12.000000000000
           C          2.122216104498     0.032467694790    -0.562241997625    12.000000000000
           C         -1.405783895502     0.706467694790     1.994758002375    12.000000000000
           C          1.721216104498    -2.016532305210    -2.318241997625    12.000000000000
           C          3.157216104498    -0.568532305210    -1.260241997625    12.000000000000
           C         -0.284783895502     0.154467694790    -0.073241997625    12.000000000000
           C          0.832216104498    -0.439532305210    -0.776241997625    12.000000000000
           C         -2.441783895502     1.301467694790     1.273758002375    12.000000000000
           C         -0.327783895502     0.133467694790     1.320758002375    12.000000000000
           N          2.989216104498    -1.584532305210    -2.136241997625    14.003074004780
           O         -3.494783895502     1.861467694790     1.930758002375    15.994914619560
           F          0.660216104498    -0.434532305210     2.027758002375    18.998403224000
           H         -1.301783895502     0.773467694790    -1.880241997625     1.007825032070
           H         -3.203783895502     1.783467694790    -0.687241997625     1.007825032070
           H         -0.372783895502    -1.877532305210    -1.864241997625     1.007825032070
           H          2.326216104498     0.845467694790     0.127758002375     1.007825032070
           H         -1.433783895502     0.686467694790     3.080758002375     1.007825032070
           H          1.608216104498    -2.830532305210    -3.026241997625     1.007825032070
           H          4.181216104498    -0.237532305210    -1.127241997625     1.007825032070
           H         -3.560783895502     2.805467694790     1.716758002375     1.007825032070

  Nuclear repulsion =  813.832670980972921
  Reference energy  = -650.170583267722691

  ==> Basis Set <==

  Basis Set: AUG-CC-PVTZ
    Blend: AUG-CC-PVTZ
    Number of shells: 268
    Number of basis function: 828
    Number of Cartesian functions: 970
    Spherical Harmonics?: true
    Max angular momentum: 3

  ==> CGRSolver (by Rob Parrish) <==

   Number of roots    =         1
   Preconditioning    =    JACOBI
   Convergence cutoff =     1E-06
   Maximum iterations =       100

  ==> CPHFRHamiltonian (by Rob Parrish) <== 

  ==> DFJK: Density-Fitted J/K Matrices <==

    J tasked:                  Yes
    K tasked:                  Yes
    wK tasked:                  No
    OpenMP threads:              8
    Integrals threads:           8
    Memory (MB):              3576
    Algorithm:                Disk
    Integral Cache:           NONE
    Schwarz Cutoff:          1E-12
    Fitting Condition:       1E-12

   => Auxiliary Basis Set <=

  Basis Set: (AUG-CC-PVTZ AUX)
    Blend: AUG-CC-PVTZ-JKFIT
    Number of shells: 532
    Number of basis function: 1824
    Number of Cartesian functions: 2274
    Spherical Harmonics?: true
    Max angular momentum: 4

  ==> CPHF Iterations <==

  => Iterations <=

             Iter  Converged  Remaining    Residual
  CGR           1          0          1   9.877E-02
  CGR           2          0          1   3.181E-02
  CGR           3          0          1   2.088E-02
  CGR           4          0          1   9.506E-03
  CGR           5          0          1   3.906E-03
  CGR           6          0          1   1.411E-03
  CGR           7          0          1   4.030E-04
  CGR           8          0          1   1.263E-04
  CGR           9          0          1   4.455E-05
  CGR          10          0          1   1.337E-05
  CGR          11          0          1   6.096E-06
  CGR          12          0          1   2.483E-06
  CGR          13          0          1   1.261E-06
  CGR          14          1          0   4.999E-07

    CGRSolver converged.

  ==> DFCorrGrad: Density-Fitted Correlated Gradients <==

    OpenMP threads:              8
    Integrals threads:           8
    Memory (MB):              3576
    Schwarz Cutoff:          0E+00
    Fitting Condition:       1E-12

   => Auxiliary Basis Set <=

  Basis Set: (AUG-CC-PVTZ AUX)
    Blend: AUG-CC-PVTZ-JKFIT
    Number of shells: 532
    Number of basis function: 1824
    Number of Cartesian functions: 2274
    Spherical Harmonics?: true
    Max angular momentum: 4

	-----------------------------------------------------------
	 ==================> DF-MP2 Energies <==================== 
	-----------------------------------------------------------
	 Reference Energy          =    -650.1705832677226908 [Eh]
	 Singles Energy            =      -0.0000000000000003 [Eh]
	 Same-Spin Energy          =      -0.6771769309103024 [Eh]
	 Opposite-Spin Energy      =      -2.0188534810062397 [Eh]
	 Correlation Energy        =      -2.6960304119165426 [Eh]
	 Total Energy              =    -652.8666136796392720 [Eh]
	-----------------------------------------------------------
	 ================> DF-SCS-MP2 Energies <================== 
	-----------------------------------------------------------
	 SCS Same-Spin Scale       =       0.3333333333333333 [-]
	 SCS Opposite-Spin Scale   =       1.2000000000000000 [-]
	 SCS Same-Spin Energy      =      -0.2257256436367674 [Eh]
	 SCS Opposite-Spin Energy  =      -2.4226241772074877 [Eh]
	 SCS Correlation Energy    =      -2.6483498208442557 [Eh]
	 SCS Total Energy          =    -652.8189330885669506 [Eh]
	-----------------------------------------------------------


  -Total Gradient:
     Atom            X                  Y                   Z
    ------   -----------------  -----------------  -----------------
       1        0.009820178045    -0.003108781026    -0.011035092612
       2       -0.003206164068     0.002255578433     0.004424798267
       3       -0.007095942476    -0.001032212614     0.002945578948
       4       -0.003697054513     0.005780108488     0.003607301552
       5       -0.002618111513     0.003566247324    -0.004423248107
       6       -0.014038831658    -0.000990870841     0.002585413259
       7       -0.003109922053     0.009515962533     0.008782363981
       8       -0.000791726840     0.000327944978    -0.002526349797
       9       -0.001696794109     0.001196152722    -0.000555372443
      10       -0.013216901094    -0.000817308153     0.013127387328
      11        0.022520660772    -0.013358755624     0.005724355259
      12        0.013541647528    -0.006777894219    -0.008467825701
      13        0.005612203782    -0.008281267480    -0.010757005658
      14        0.001887551411    -0.000736350900     0.002715766354
      15       -0.003295230636     0.001601975384    -0.005989608240
      16       -0.002923945159     0.001984259535    -0.004761868085
      17       -0.003115168577    -0.002558602135    -0.002748448407
      18        0.002864579734     0.003664794983     0.002766210986
      19        0.000586114385    -0.000790351811     0.005537751380
      20        0.000398325650    -0.001784858570    -0.002008903313
      21        0.002501048128     0.000174491240     0.000069822750
      22       -0.000926516745     0.010169737753     0.000986972300


*** tstop() called on gpu-2-10.local at Sun Nov 12 00:49:56 2017
Module time:
	user time   =    5957.24 seconds =      99.29 minutes
	system time =     121.42 seconds =       2.02 minutes
	total time  =       2776 seconds =      46.27 minutes
Total time:
	user time   =    5957.24 seconds =      99.29 minutes
	system time =     121.42 seconds =       2.02 minutes
	total time  =       2776 seconds =      46.27 minutes

			-----------------------------------------
			 OPTKING 2.0: for geometry optimizations 
			  - R.A. King,  Bethel University        
			-----------------------------------------

	Internal coordinates to be generated automatically.
	Detected frag 1 with atoms:  1 2 3 4 5 6 7 8 9 10 11 12 13 14 15 16 17 18 19 20
	 21 22
	---Fragment 1 Bond Connectivity---
	 1 : 2 8 15
	 2 : 1 10 16
	 3 : 6 9 17
	 4 : 7 9 18
	 5 : 10 11 19
	 6 : 3 12 20
	 7 : 4 12 21
	 8 : 1 9 11
	 9 : 3 4 8
	 10 : 2 5 13
	 11 : 5 8 14
	 12 : 6 7
	 13 : 10 22
	 14 : 11
	 15 : 1
	 16 : 2
	 17 : 3
	 18 : 4
	 19 : 5
	 20 : 6
	 21 : 7
	 22 : 13

	Assuming in current code that numbering for constraints corresponds to unified fragment.
	Fixed dihedral atom list: 
	     2    10    13    22
	---Fragment 1 Geometry and Gradient---
	 C          -2.4959198432        1.4162886886       -1.4990101326
	 C          -4.5330446145        2.4991017627       -0.2272244452
	 C           1.1701488546       -2.8034697661       -3.1544102250
	 C           4.0104072323        0.0613550513       -1.0624833959
	 C          -2.6565465645        1.3350304649        3.7695463259
	 C           3.2526270530       -3.8106937950       -4.3808424853
	 C           5.9662737798       -1.0743703545       -2.3815122367
	 C          -0.5381635696        0.2919016395       -0.1384073169
	 C           1.5726605209       -0.8305956834       -1.4668847884
	 C          -4.6143028382        2.4594175140        2.4070537841
	 C          -0.6194217933        0.2522173907        2.4958709123
	 N           5.6487997895       -2.9943321056       -4.0369123291
	 O          -6.6041844561        3.5176641484        3.6486038534
	 F           1.2476276260       -0.8211470527        3.8319072883
	 H          -2.4600150467        1.4616421158       -3.5531424391
	 H          -6.0542741514        3.3702655100       -1.2986991625
	 H          -0.7044594692       -3.5480218625       -3.5229068209
	 H           4.3959113634        1.5977023974        0.2414276358
	 H          -2.7094588962        1.2972359422        5.8217889062
	 H           3.0390880000       -5.3489308671       -5.7187685873
	 H           7.9013533399       -0.4488710046       -2.1301786610
	 H          -6.7289063809        5.3015656178        3.2442024609
	             0.0098201780       -0.0031087810       -0.0110350926
	            -0.0032061641        0.0022555784        0.0044247983
	            -0.0070959425       -0.0010322126        0.0029455789
	            -0.0036970545        0.0057801085        0.0036073016
	            -0.0026181115        0.0035662473       -0.0044232481
	            -0.0140388317       -0.0009908708        0.0025854133
	            -0.0031099221        0.0095159625        0.0087823640
	            -0.0007917268        0.0003279450       -0.0025263498
	            -0.0016967941        0.0011961527       -0.0005553724
	            -0.0132169011       -0.0008173082        0.0131273873
	             0.0225206608       -0.0133587556        0.0057243553
	             0.0135416475       -0.0067778942       -0.0084678257
	             0.0056122038       -0.0082812675       -0.0107570057
	             0.0018875514       -0.0007363509        0.0027157664
	            -0.0032952306        0.0016019754       -0.0059896082
	            -0.0029239452        0.0019842595       -0.0047618681
	            -0.0031151686       -0.0025586021       -0.0027484484
	             0.0028645797        0.0036647950        0.0027662110
	             0.0005861144       -0.0007903518        0.0055377514
	             0.0003983256       -0.0017848586       -0.0020089033
	             0.0025010481        0.0001744912        0.0000698228
	            -0.0009265167        0.0101697378        0.0009869723

	Previous optimization step data not found.  Starting new optimization.

	---Fragment 1 Intrafragment Coordinates---
	 - Coordinate -           - BOHR/RAD -       - ANG/DEG -
	 R(1,2)           =         2.634350	       1.394038
	 R(1,8)           =         2.635962	       1.394891
	 R(1,15)          =         2.054947	       1.087431
	 R(2,10)          =         2.635830	       1.394821
	 R(2,16)          =         2.054537	       1.087214
	 R(3,6)           =         2.618273	       1.385530
	 R(3,9)           =         2.627164	       1.390235
	 R(3,17)          =         2.050440	       1.085046
	 R(4,7)           =         2.618229	       1.385507
	 R(4,9)           =         2.627114	       1.390209
	 R(4,18)          =         2.051624	       1.085673
	 R(5,10)          =         2.636938	       1.395407
	 R(5,11)          =         2.635263	       1.394521
	 R(5,19)          =         2.053272	       1.086545
	 R(6,12)          =         2.554678	       1.351877
	 R(6,20)          =         2.049834	       1.084725
	 R(7,12)          =         2.554876	       1.351982
	 R(7,21)          =         2.049134	       1.084355
	 R(8,9)           =         2.735038	       1.447320
	 R(8,11)          =         2.635830	       1.394821
	 R(10,13)         =         2.573123	       1.361638
	 R(11,14)         =         2.534359	       1.341125
	 R(13,22)         =         1.833412	       0.970200
	 B(1,2,10)        =         2.094553	     120.009056
	 B(1,2,16)        =         2.088723	     119.675016
	 B(1,8,9)         =         2.091569	     119.838095
	 B(1,8,11)        =         2.093692	     119.959722
	 B(2,1,8)         =         2.094940	     120.031219
	 B(2,1,15)        =         2.079469	     119.144799
	 B(2,10,5)        =         2.094306	     119.994870
	 B(2,10,13)       =         2.094247	     119.991510
	 B(3,6,12)        =         2.165211	     124.057445
	 B(3,6,20)        =         2.107791	     120.767548
	 B(3,9,4)         =         2.089790	     119.736135
	 B(3,9,8)         =         2.096656	     120.129524
	 B(4,7,12)        =         2.164668	     124.026364
	 B(4,7,21)        =         2.107421	     120.746344
	 B(4,9,8)         =         2.096739	     120.134309
	 B(5,10,13)       =         2.094633	     120.013619
	 B(5,11,8)        =         2.095181	     120.045019
	 B(5,11,14)       =         2.081414	     119.256220
	 B(6,3,9)         =         2.057714	     117.898335
	 B(6,3,17)        =         2.098197	     120.217854
	 B(6,12,7)        =         2.030771	     116.354583
	 B(7,4,9)         =         2.058217	     117.927126
	 B(7,4,18)        =         2.099769	     120.307895
	 B(8,1,15)        =         2.108776	     120.823969
	 B(8,11,14)       =         2.106591	     120.698759
	 B(9,3,17)        =         2.127271	     121.883627
	 B(9,4,18)        =         2.125200	     121.764971
	 B(9,8,11)        =         2.097924	     120.202184
	 B(10,2,16)       =         2.099909	     120.315896
	 B(10,5,11)       =         2.093699	     119.960108
	 B(10,5,19)       =         2.100355	     120.341451
	 B(10,13,22)      =         1.924466	     110.263786
	 B(11,5,19)       =         2.089132	     119.698439
	 B(12,6,20)       =         2.010181	     115.174900
	 B(12,7,21)       =         2.011095	     115.227270
	 D(1,2,10,5)      =        -0.000325	      -0.018609
	 D(1,2,10,13)     =         3.141388	     179.988267
	 D(1,8,9,3)       =        -1.047732	     -60.030615
	 D(1,8,9,4)       =         2.092736	     119.904915
	 D(1,8,11,5)      =         0.000325	       0.018608
	 D(1,8,11,14)     =        -3.141528	    -179.996269
	 D(2,1,8,9)       =         3.141277	     179.981897
	 D(2,1,8,11)      =        -0.000348	      -0.019945
	 D(2,10,5,11)     =         0.000301	       0.017261
	 D(2,10,5,19)     =        -3.141029	    -179.967685
	 D(2,10,13,22)    =        -1.047376	     -60.010203
	 D(3,6,12,7)      =         0.000000	       0.000000
	 D(3,9,4,7)       =        -0.000043	      -0.002444
	 D(3,9,4,18)      =        -3.141070	    -179.970061
	 D(3,9,8,11)      =         2.093893	     119.971231
	 D(4,7,12,6)      =        -0.000490	      -0.028079
	 D(4,9,3,6)       =        -0.000394	      -0.022595
	 D(4,9,3,17)      =        -3.139269	    -179.866889
	 D(4,9,8,11)      =        -1.048825	     -60.093239
	 D(5,10,2,16)     =         3.140149	     179.917291
	 D(5,10,13,22)    =         2.094337	     119.996674
	 D(5,11,8,9)      =        -3.141300	    -179.983240
	 D(6,3,9,8)       =         3.140078	     179.913192
	 D(6,12,7,21)     =         3.140154	     179.917593
	 D(7,4,9,8)       =        -3.140515	    -179.938228
	 D(7,12,6,20)     =         3.139530	     179.881843
	 D(8,1,2,10)      =         0.000348	       0.019955
	 D(8,1,2,16)      =        -3.140133	    -179.916358
	 D(8,9,3,17)      =         0.001202	       0.068898
	 D(8,9,4,18)      =         0.001643	       0.094154
	 D(8,11,5,10)     =        -0.000301	      -0.017270
	 D(8,11,5,19)     =         3.141030	     179.967774
	 D(9,3,6,12)      =         0.000430	       0.024638
	 D(9,3,6,20)      =        -3.138988	    -179.850775
	 D(9,4,7,12)      =         0.000513	       0.029399
	 D(9,4,7,21)      =        -3.140081	    -179.913416
	 D(9,8,1,15)      =         0.000403	       0.023110
	 D(9,8,11,14)     =         0.000033	       0.001883
	 D(10,2,1,15)     =         3.141234	     179.979432
	 D(10,5,11,14)    =         3.141547	     179.997392
	 D(11,5,10,13)    =        -3.141411	    -179.989616
	 D(11,8,1,15)     =        -3.141221	    -179.978731
	 D(12,6,3,17)     =         3.139352	     179.871634
	 D(12,7,4,18)     =         3.141549	     179.997508
	 D(13,10,2,16)    =        -0.001324	      -0.075833
	 D(13,10,5,19)    =         0.000444	       0.025437
	 D(14,11,5,19)    =        -0.000307	      -0.017564
	 D(15,1,2,16)     =         0.000753	       0.043120
	 D(17,3,6,20)     =        -0.000066	      -0.003779
	 D(18,4,7,21)     =         0.000955	       0.054693
	 R(4,14)          =         5.689185	       3.010587

	Current energy   :      -652.8666136796

	Generating empirical Hessian (Schlegel '84) for each fragment.
	Adding user-defined constraint: Fragment 1; Coordinate 69:
		Value =    -1.047376; Fixed value    =    -1.047198
		Force =     0.000089; Force constant =     0.500000
	Removing off-diagonal coupling between coordinate 69 and others.
	Taking RFO optimization step.
	Going to follow RFO solution 1.
	Using RFO vector 1.

	Determining step-restricting scale parameter for RS-RFO.
	Maximum step size allowed    0.10000

	 Iter      |step|        alpha        rfo_root  
	------------------------------------------------
	    0     0.26492       1.00000           1
	    1     0.18609       3.80392           1
	    2     0.14274      10.04120           1
	    3     0.11655      21.38431           1
	    4     0.10357      32.36317           1
	    5     0.10022      36.14682           1
	    6     0.10000      36.40754           1
	------------------------------------------------
	Norm of target step-size    0.10000
	Projected energy change by RFO approximation:        -0.0050040775

	Back-transformation to cartesian coordinates...
	Could not converge backtransformation.
	Using first guess instead.

	--- Internal Coordinate Step in ANG or DEG, aJ/ANG or AJ/DEG ---
	 ---------------------------------------------------------------------------
	   Coordinate                Previous        Force       Change         New 
	   ----------                --------       ------       ------       ------
	    1 R(1,2)          =      1.394038    -0.049818    -0.004940     1.389098
	    2 R(1,8)          =      1.394891    -0.034391    -0.003265     1.391626
	    3 R(1,15)         =      1.087431    -0.049143    -0.006040     1.081391
	    4 R(2,10)         =      1.394821    -0.044380    -0.004477     1.390344
	    5 R(2,16)         =      1.087214    -0.045228    -0.005528     1.081686
	    6 R(3,6)          =      1.385530     0.005867     0.000585     1.386115
	    7 R(3,9)          =      1.390235    -0.018202    -0.001376     1.388859
	    8 R(3,17)         =      1.085046    -0.035188    -0.004308     1.080738
	    9 R(4,7)          =      1.385507     0.001836     0.000175     1.385682
	   10 R(4,9)          =      1.390209    -0.018173    -0.001289     1.388920
	   11 R(4,18)         =      1.085673    -0.041529    -0.005104     1.080568
	   12 R(5,10)         =      1.395407    -0.088292    -0.009054     1.386353
	   13 R(5,11)         =      1.394521    -0.100326    -0.010163     1.384358
	   14 R(5,19)         =      1.086545    -0.045597    -0.005605     1.080940
	   15 R(6,12)         =      1.351877    -0.121085    -0.011117     1.340760
	   16 R(6,20)         =      1.084725    -0.021496    -0.002637     1.082088
	   17 R(7,12)         =      1.351982    -0.117177    -0.010806     1.341176
	   18 R(7,21)         =      1.084355    -0.019968    -0.002425     1.081930
	   19 R(8,9)          =      1.447320     0.131362     0.015445     1.462765
	   20 R(8,11)         =      1.394821    -0.067355    -0.006395     1.388426
	   21 R(10,13)        =      1.361638     0.062293     0.006049     1.367687
	   22 R(11,14)        =      1.341125    -0.027231    -0.002319     1.338807
	   23 R(13,22)        =      0.970200    -0.080246    -0.007312     0.962888
	   24 B(1,2,10)       =    120.009056    -0.000065    -0.097580   119.911476
	   25 B(1,2,16)       =    119.675016     0.000207     0.449205   120.124222
	   26 B(1,8,9)        =    119.838095     0.000607     1.025780   120.863875
	   27 B(1,8,11)       =    119.959722    -0.000890    -1.620471   118.339250
	   28 B(2,1,8)        =    120.031219     0.000343     0.714277   120.745496
	   29 B(2,1,15)       =    119.144799     0.000117     0.304537   119.449336
	   30 B(2,10,5)       =    119.994870    -0.000026    -0.053856   119.941014
	   31 B(2,10,13)      =    119.991510     0.000584     1.043764   121.035275
	   32 B(3,6,12)       =    124.057445    -0.000033    -0.121996   123.935449
	   33 B(3,6,20)       =    120.767548    -0.000039    -0.066374   120.701173
	   34 B(3,9,4)        =    119.736135    -0.000818    -1.389578   118.346557
	   35 B(3,9,8)        =    120.129524     0.000407     0.654945   120.784470
	   36 B(4,7,12)       =    124.026364    -0.000012    -0.084415   123.941949
	   37 B(4,7,21)       =    120.746344    -0.000041    -0.065467   120.680877
	   38 B(4,9,8)        =    120.134309     0.000411     0.734594   120.868903
	   39 B(5,10,13)      =    120.013619    -0.000558    -0.992930   119.020689
	   40 B(5,11,8)       =    120.045019     0.000886     1.564544   121.609563
	   41 B(5,11,14)      =    119.256220    -0.000229    -0.448549   118.807672
	   42 B(6,3,9)        =    117.898335     0.000360     0.753606   118.651941
	   43 B(6,3,17)       =    120.217854    -0.000005     0.025244   120.243098
	   44 B(6,12,7)       =    116.354583     0.000155     0.114971   116.469555
	   45 B(7,4,9)        =    117.927126     0.000347     0.727377   118.654503
	   46 B(7,4,18)       =    120.307895    -0.000020    -0.011674   120.296221
	   47 B(8,1,15)       =    120.823969    -0.000460    -1.018879   119.805090
	   48 B(8,11,14)      =    120.698759    -0.000657    -1.115996   119.582763
	   49 B(9,3,17)       =    121.883627    -0.000355    -0.778730   121.104897
	   50 B(9,4,18)       =    121.764971    -0.000327    -0.715698   121.049272
	   51 B(9,8,11)       =    120.202184     0.000284     0.594668   120.796852
	   52 B(10,2,16)      =    120.315896    -0.000142    -0.351644   119.964253
	   53 B(10,5,11)      =    119.960108    -0.000248    -0.507243   119.452865
	   54 B(10,5,19)      =    120.341451     0.000048     0.078469   120.419920
	   55 B(10,13,22)     =    110.263786    -0.000298    -0.683702   109.580084
	   56 B(11,5,19)      =    119.698439     0.000200     0.428713   120.127152
	   57 B(12,6,20)      =    115.174900     0.000072     0.188476   115.363376
	   58 B(12,7,21)      =    115.227270     0.000053     0.149903   115.377172
	   59 D(1,2,10,5)     =     -0.018609    -0.000011    -0.205092    -0.223701
	   60 D(1,2,10,13)    =    179.988267     0.000022     0.426646   180.414913
	   61 D(1,8,9,3)      =    -60.030615     0.000033     0.591784   -59.438831
	   62 D(1,8,9,4)      =    119.904915     0.000033     0.558421   120.463335
	   63 D(1,8,11,5)     =      0.018608    -0.000003    -0.067161    -0.048554
	   64 D(1,8,11,14)    =   -179.996269    -0.000002    -0.071117  -180.067386
	   65 D(2,1,8,9)      =    179.981897    -0.000004    -0.081293   179.900603
	   66 D(2,1,8,11)     =     -0.019945    -0.000002    -0.024098    -0.044043
	   67 D(2,10,5,11)    =      0.017261     0.000005     0.115088     0.132350
	   68 D(2,10,5,19)    =   -179.967685     0.000010     0.191024  -179.776662
	   69 D(2,10,13,22)   =    -60.010203     0.000010     0.057454   -59.952749
	   70 D(3,6,12,7)     =      0.000000    -0.000001    -0.016597    -0.016597
	   71 D(3,9,4,7)      =     -0.002444     0.000004     0.048531     0.046087
	   72 D(3,9,4,18)     =   -179.970061     0.000001    -0.004614  -179.974675
	   73 D(3,9,8,11)     =    119.971231     0.000031     0.533221   120.504452
	   74 D(4,7,12,6)     =     -0.028079     0.000000     0.006715    -0.021363
	   75 D(4,9,3,6)      =     -0.022595    -0.000004    -0.057796    -0.080392
	   76 D(4,9,3,17)     =   -179.866889    -0.000008    -0.121905  -179.988794
	   77 D(4,9,8,11)     =    -60.093239     0.000030     0.499857   -59.593382
	   78 D(5,10,2,16)    =    179.917291    -0.000011    -0.221546   179.695745
	   79 D(5,10,13,22)   =    119.996674     0.000043     0.683418   120.680092
	   80 D(5,11,8,9)     =   -179.983240    -0.000001    -0.009998  -179.993239
	   81 D(6,3,9,8)      =    179.913192    -0.000005    -0.088999   179.824192
	   82 D(6,12,7,21)    =    179.917593     0.000002     0.046773   179.964366
	   83 D(7,4,9,8)      =   -179.938228     0.000004     0.079815  -179.858413
	   84 D(7,12,6,20)    =    179.881843     0.000005     0.086258   179.968101
	   85 D(8,1,2,10)     =      0.019955     0.000009     0.159989     0.179944
	   86 D(8,1,2,16)     =   -179.916358     0.000010     0.176985  -179.739373
	   87 D(8,9,3,17)     =      0.068898    -0.000008    -0.153108    -0.084210
	   88 D(8,9,4,18)     =      0.094154     0.000001     0.026670     0.120825
	   89 D(8,11,5,10)    =     -0.017270     0.000002     0.021622     0.004352
	   90 D(8,11,5,19)    =    179.967774    -0.000003    -0.054139   179.913635
	   91 D(9,3,6,12)     =      0.024638     0.000003     0.043642     0.068280
	   92 D(9,3,6,20)     =   -179.850775    -0.000003    -0.064865  -179.915639
	   93 D(9,4,7,12)     =      0.029399    -0.000002    -0.023466     0.005933
	   94 D(9,4,7,21)     =   -179.913416    -0.000004    -0.065659  -179.979075
	   95 D(9,8,1,15)     =      0.023110    -0.000001    -0.020440     0.002670
	   96 D(9,8,11,14)    =      0.001883     0.000000    -0.013954    -0.012071
	   97 D(10,2,1,15)    =    179.979432     0.000005     0.098804   180.078236
	   98 D(10,5,11,14)   =    179.997392     0.000001     0.025651   180.023043
	   99 D(11,5,10,13)   =   -179.989616    -0.000028    -0.503799  -180.493415
	  100 D(11,8,1,15)    =   -179.978731     0.000002     0.036755  -179.941976
	  101 D(12,6,3,17)    =    179.871634     0.000006     0.105862   179.977495
	  102 D(12,7,4,18)    =    179.997508     0.000001     0.029026   180.026534
	  103 D(13,10,2,16)   =     -0.075833     0.000022     0.410192     0.334359
	  104 D(13,10,5,19)   =      0.025437    -0.000023    -0.427863    -0.402426
	  105 D(14,11,5,19)   =     -0.017564    -0.000004    -0.050111    -0.067675
	  106 D(15,1,2,16)    =      0.043120     0.000006     0.115800     0.158920
	  107 D(17,3,6,20)    =     -0.003779     0.000000    -0.002645    -0.006424
	  108 D(18,4,7,21)    =      0.054693    -0.000001    -0.013167     0.041526
	  109 R(4,14)         =      3.010587     0.008731     0.002656     3.013243
	 ---------------------------------------------------------------------------
	Successfully symmetrized geometry.
	 Forces used to impose fixed constraints are not included.
	  Forces zeroed: 69 

  ==> Convergence Check <==

  Measures of convergence in internal coordinates in au.
  Criteria marked as inactive (o), active & met (*), and active & unmet ( ).
  --------------------------------------------------------------------------------------------- ~
   Step     Total Energy     Delta E     MAX Force     RMS Force      MAX Disp      RMS Disp    ~
  --------------------------------------------------------------------------------------------- ~
    Convergence Criteria    1.00e-06 *    3.00e-04 *             o    1.20e-03 *             o  ~
  --------------------------------------------------------------------------------------------- ~
      1    -652.86661368   -6.53e+02      1.59e-02      4.65e-03 o    2.92e-02      9.59e-03 o  ~
  ---------------------------------------------------------------------------------------------

	Writing optimization data to binary file.
	Structure for next step:
	Cartesian Geometry (in Angstrom)
	    C    -1.3378966951   0.7556133327  -0.7829482104
	    C    -2.4121849822   1.3266411980  -0.1125564404
	    C     0.6423948173  -1.4833166271  -1.6798842842
	    C     2.1326811202   0.0135459066  -0.5716058160
	    C    -1.4162621386   0.7238355933   1.9907419956
	    C     1.7456051685  -2.0204297561  -2.3246715028
	    C     3.1699647142  -0.5898381811  -1.2644869777
	    C    -0.2940190664   0.1626053440  -0.0791847246
	    C     0.8374369603  -0.4413717843  -0.7825333981
	    C    -2.4491146568   1.3121202388   1.2772210997
	    C    -0.3535672531   0.1573313464   1.3079539566
	    N     3.0032414114  -1.5958848021  -2.1355942771
	    O    -3.4995741241   1.8601138241   1.9604536458
	    F     0.6366235119  -0.4076820410   2.0098693322
	    H    -1.3162056980   0.7722236410  -1.8639939629
	    H    -3.2202479638   1.7811800625  -0.6697581033
	    H    -0.3464383368  -1.8719087963  -1.8778748140
	    H     2.3344355700   0.8213741945   0.1171153453
	    H    -1.4388192595   0.7049949238   3.0712819695
	    H     1.6316502378  -2.8320302303  -3.0312361610
	    H     4.1914701443  -0.2617468015  -1.1250047746
	    H    -3.5714191825   2.7959186995   1.7453721547
			--------------------------
			 OPTKING Finished Execution 
			--------------------------

    Structure for next step:
    Molecular point group: c1
    Full point group: C1

    Geometry (in Angstrom), charge = 0, multiplicity = 1:

    C           -1.335809267521     0.752516141209    -0.781418132740
    C           -2.410097554578     1.323544006557    -0.111026362720
    C            0.644482244885    -1.486413818515    -1.678354206576
    C            2.134768547769     0.010448715186    -0.570075738405
    C           -1.414174711007     0.720738401822     1.992272073253
    C            1.747692596129    -2.023526947578    -2.323141425132
    C            3.172052141765    -0.592935372588    -1.262956900059
    C           -0.291931638862     0.159508152595    -0.077654646912
    C            0.839524387904    -0.444468975697    -0.781003320489
    C           -2.447027229231     1.309023047368     1.278751177297
    C           -0.351479825488     0.154234154913     1.309484034224
    N            3.005328838987    -1.598981993554    -2.134064199494
    O           -3.497486696474     1.857016632650     1.961983723457
    F            0.638710939458    -0.410779232445     2.011399409801
    H           -1.314118270404     0.769126449547    -1.862463885267
    H           -3.218160536229     1.778082871068    -0.668228025621
    H           -0.344350909217    -1.875005987735    -1.876344736391
    H            2.336522997556     0.818277003091     0.118645422928
    H           -1.436731831937     0.701897732366     3.072812047188
    H            1.633737665422    -2.835127421789    -3.029706083392
    H            4.193557571843    -0.264843992972    -1.123474696931
    H           -3.569331754957     2.792821508064     1.746902232332

gradient() will perform analytic gradient computation.

*** tstart() called on gpu-2-10.local
*** at Sun Nov 12 00:49:57 2017

    SCF Algorithm Type (re)set to DF.

*** tstart() called on gpu-2-10.local
*** at Sun Nov 12 00:49:57 2017

   => Loading Basis Set <=

    Name: AUG-CC-PVTZ
    Role: ORBITAL
    Keyword: BASIS
    atoms 1-11  entry C          line   221 file /cbio/jclab/home/chayas/anaconda/envs/py35/share/psi4/basis/aug-cc-pvtz.gbs 
    atoms 12    entry N          line   267 file /cbio/jclab/home/chayas/anaconda/envs/py35/share/psi4/basis/aug-cc-pvtz.gbs 
    atoms 13    entry O          line   313 file /cbio/jclab/home/chayas/anaconda/envs/py35/share/psi4/basis/aug-cc-pvtz.gbs 
    atoms 14    entry F          line   359 file /cbio/jclab/home/chayas/anaconda/envs/py35/share/psi4/basis/aug-cc-pvtz.gbs 
    atoms 15-22 entry H          line    34 file /cbio/jclab/home/chayas/anaconda/envs/py35/share/psi4/basis/aug-cc-pvtz.gbs 


         ---------------------------------------------------------
                                   SCF
            by Justin Turney, Rob Parrish, and Andy Simmonett
                              RHF Reference
                        8 Threads,   4768 MiB Core
         ---------------------------------------------------------

  ==> Geometry <==

    Molecular point group: c1
    Full point group: C1

    Geometry (in Angstrom), charge = 0, multiplicity = 1:

       Center              X                  Y                   Z               Mass       
    ------------   -----------------  -----------------  -----------------  -----------------
           C         -1.335809267521     0.752516141209    -0.781418132740    12.000000000000
           C         -2.410097554578     1.323544006557    -0.111026362720    12.000000000000
           C          0.644482244885    -1.486413818515    -1.678354206576    12.000000000000
           C          2.134768547769     0.010448715186    -0.570075738405    12.000000000000
           C         -1.414174711007     0.720738401822     1.992272073253    12.000000000000
           C          1.747692596129    -2.023526947578    -2.323141425132    12.000000000000
           C          3.172052141765    -0.592935372588    -1.262956900059    12.000000000000
           C         -0.291931638862     0.159508152595    -0.077654646912    12.000000000000
           C          0.839524387904    -0.444468975697    -0.781003320489    12.000000000000
           C         -2.447027229231     1.309023047368     1.278751177297    12.000000000000
           C         -0.351479825488     0.154234154913     1.309484034224    12.000000000000
           N          3.005328838987    -1.598981993554    -2.134064199494    14.003074004780
           O         -3.497486696474     1.857016632650     1.961983723457    15.994914619560
           F          0.638710939458    -0.410779232445     2.011399409801    18.998403224000
           H         -1.314118270404     0.769126449547    -1.862463885267     1.007825032070
           H         -3.218160536229     1.778082871068    -0.668228025621     1.007825032070
           H         -0.344350909217    -1.875005987735    -1.876344736391     1.007825032070
           H          2.336522997556     0.818277003091     0.118645422928     1.007825032070
           H         -1.436731831937     0.701897732366     3.072812047188     1.007825032070
           H          1.633737665422    -2.835127421789    -3.029706083392     1.007825032070
           H          4.193557571843    -0.264843992972    -1.123474696931     1.007825032070
           H         -3.569331754957     2.792821508064     1.746902232332     1.007825032070

  Running in c1 symmetry.

  Rotational constants: A =      0.06434  B =      0.01294  C =      0.01156 [cm^-1]
  Rotational constants: A =   1928.81755  B =    387.92506  C =    346.67607 [MHz]
  Nuclear repulsion =  814.231543546262287

  Charge       = 0
  Multiplicity = 1
  Electrons    = 98
  Nalpha       = 49
  Nbeta        = 49

  ==> Algorithm <==

  SCF Algorithm Type is DF.
  DIIS enabled.
  MOM disabled.
  Fractional occupation disabled.
  Guess Type is READ.
  Energy threshold   = 1.00e-10
  Density threshold  = 1.00e-10
  Integral threshold = 0.00e+00

  ==> Primary Basis <==

  Basis Set: AUG-CC-PVTZ
    Blend: AUG-CC-PVTZ
    Number of shells: 268
    Number of basis function: 828
    Number of Cartesian functions: 970
    Spherical Harmonics?: true
    Max angular momentum: 3

   => Loading Basis Set <=

    Name: (AUG-CC-PVTZ AUX)
    Role: JKFIT
    Keyword: DF_BASIS_SCF
    atoms 1-11  entry C          line   161 file /cbio/jclab/home/chayas/anaconda/envs/py35/share/psi4/basis/aug-cc-pvtz-jkfit.gbs 
    atoms 12    entry N          line   223 file /cbio/jclab/home/chayas/anaconda/envs/py35/share/psi4/basis/aug-cc-pvtz-jkfit.gbs 
    atoms 13    entry O          line   285 file /cbio/jclab/home/chayas/anaconda/envs/py35/share/psi4/basis/aug-cc-pvtz-jkfit.gbs 
    atoms 14    entry F          line   347 file /cbio/jclab/home/chayas/anaconda/envs/py35/share/psi4/basis/aug-cc-pvtz-jkfit.gbs 
    atoms 15-22 entry H          line    69 file /cbio/jclab/home/chayas/anaconda/envs/py35/share/psi4/basis/aug-cc-pvtz-jkfit.gbs 

  Reading orbitals from file 180, no projection.

  ==> Pre-Iterations <==

   -------------------------------------------------------
    Irrep   Nso     Nmo     Nalpha   Nbeta   Ndocc  Nsocc
   -------------------------------------------------------
     A        828     828       0       0       0       0
   -------------------------------------------------------
    Total     828     828      49      49      49       0
   -------------------------------------------------------

  ==> Integral Setup <==

  ==> DFJK: Density-Fitted J/K Matrices <==

    J tasked:                  Yes
    K tasked:                  Yes
    wK tasked:                  No
    OpenMP threads:              8
    Integrals threads:           8
    Memory (MB):              3576
    Algorithm:                Disk
    Integral Cache:           NONE
    Schwarz Cutoff:          1E-12
    Fitting Condition:       1E-12

   => Auxiliary Basis Set <=

  Basis Set: (AUG-CC-PVTZ AUX)
    Blend: AUG-CC-PVTZ-JKFIT
    Number of shells: 532
    Number of basis function: 1824
    Number of Cartesian functions: 2274
    Spherical Harmonics?: true
    Max angular momentum: 4

  Minimum eigenvalue in the overlap matrix is 7.3641196817E-07.
  Using Symmetric Orthogonalization.

  SCF Guess: Orbitals guess was supplied from a previous computation.

  ==> Iterations <==

                           Total Energy        Delta E     RMS |[F,P]|

   @DF-RHF iter   0:  -650.23188781193596   -6.50232e+02   3.46424e-04 
   @DF-RHF iter   1:  -650.17612395541539    5.57639e-02   8.98405e-05 
   @DF-RHF iter   2:  -650.17643615412339   -3.12199e-04   5.21411e-05 DIIS
   @DF-RHF iter   3:  -650.17660462080244   -1.68467e-04   9.59983e-06 DIIS
   @DF-RHF iter   4:  -650.17661184350686   -7.22270e-06   4.68780e-06 DIIS
   @DF-RHF iter   5:  -650.17661399471422   -2.15121e-06   1.37685e-06 DIIS
   @DF-RHF iter   6:  -650.17661438107791   -3.86364e-07   5.89637e-07 DIIS
   @DF-RHF iter   7:  -650.17661451362915   -1.32551e-07   3.46935e-07 DIIS
   @DF-RHF iter   8:  -650.17661454586835   -3.22392e-08   1.33614e-07 DIIS
   @DF-RHF iter   9:  -650.17661454972210   -3.85376e-09   5.59884e-08 DIIS
   @DF-RHF iter  10:  -650.17661455022574   -5.03633e-10   1.51330e-08 DIIS
   @DF-RHF iter  11:  -650.17661455027212   -4.63842e-11   5.47380e-09 DIIS
   @DF-RHF iter  12:  -650.17661455028519   -1.30740e-11   2.26021e-09 DIIS
   @DF-RHF iter  13:  -650.17661455028656   -1.36424e-12   7.99172e-10 DIIS
   @DF-RHF iter  14:  -650.17661455028247    4.09273e-12   4.16536e-10 DIIS
   @DF-RHF iter  15:  -650.17661455029338   -1.09139e-11   1.70486e-10 DIIS
   @DF-RHF iter  16:  -650.17661455029270    6.82121e-13   7.78844e-11 DIIS

  ==> Post-Iterations <==

    Orbital Energies (a.u.)
    -----------------------

    Doubly Occupied:                                                      

       1A    -26.322924     2A    -20.598590     3A    -15.564896  
       4A    -11.343905     5A    -11.319387     6A    -11.274220  
       7A    -11.273425     8A    -11.268000     9A    -11.262968  
      10A    -11.256944    11A    -11.248532    12A    -11.246904  
      13A    -11.240261    14A    -11.238891    15A     -1.643294  
      16A     -1.416051    17A     -1.257531    18A     -1.184284  
      19A     -1.112060    20A     -1.042472    21A     -1.035662  
      22A     -1.022204    23A     -0.889485    24A     -0.876042  
      25A     -0.855492    26A     -0.828926    27A     -0.776493  
      28A     -0.734322    29A     -0.725235    30A     -0.709425  
      31A     -0.698651    32A     -0.666650    33A     -0.664169  
      34A     -0.652280    35A     -0.633020    36A     -0.625027  
      37A     -0.605088    38A     -0.598924    39A     -0.564532  
      40A     -0.541407    41A     -0.539777    42A     -0.527150  
      43A     -0.511917    44A     -0.498642    45A     -0.420238  
      46A     -0.392502    47A     -0.359143    48A     -0.349401  
      49A     -0.334035  

    Virtual:                                                              

      50A      0.020964    51A      0.030141    52A      0.033091  
      53A      0.037187    54A      0.042254    55A      0.046002  
      56A      0.050965    57A      0.057628    58A      0.074166  
      59A      0.082461    60A      0.084089    61A      0.085438  
      62A      0.088694    63A      0.094765    64A      0.096926  
      65A      0.101271    66A      0.107203    67A      0.107303  
      68A      0.108858    69A      0.112337    70A      0.117409  
      71A      0.117721    72A      0.119107    73A      0.124412  
      74A      0.127190    75A      0.131965    76A      0.133251  
      77A      0.134456    78A      0.139354    79A      0.145048  
      80A      0.146807    81A      0.149720    82A      0.152075  
      83A      0.154640    84A      0.155740    85A      0.166412  
      86A      0.172754    87A      0.173857    88A      0.178782  
      89A      0.185519    90A      0.195707    91A      0.198778  
      92A      0.207543    93A      0.211411    94A      0.216398  
      95A      0.224016    96A      0.232849    97A      0.234487  
      98A      0.239092    99A      0.240144   100A      0.240757  
     101A      0.245018   102A      0.249906   103A      0.253769  
     104A      0.256635   105A      0.259936   106A      0.262407  
     107A      0.264804   108A      0.267094   109A      0.274415  
     110A      0.276481   111A      0.282661   112A      0.284784  
     113A      0.291040   114A      0.297749   115A      0.301280  
     116A      0.305925   117A      0.309448   118A      0.313511  
     119A      0.317385   120A      0.319236   121A      0.322609  
     122A      0.324024   123A      0.329220   124A      0.332085  
     125A      0.335535   126A      0.340213   127A      0.347521  
     128A      0.350186   129A      0.353003   130A      0.358944  
     131A      0.368228   132A      0.375362   133A      0.377323  
     134A      0.383372   135A      0.385362   136A      0.391384  
     137A      0.396384   138A      0.404008   139A      0.406771  
     140A      0.415359   141A      0.416110   142A      0.421470  
     143A      0.423065   144A      0.427436   145A      0.429133  
     146A      0.438720   147A      0.441604   148A      0.443734  
     149A      0.448417   150A      0.453758   151A      0.456825  
     152A      0.463403   153A      0.469690   154A      0.473991  
     155A      0.476245   156A      0.477681   157A      0.480343  
     158A      0.483853   159A      0.489200   160A      0.490414  
     161A      0.496380   162A      0.496637   163A      0.498393  
     164A      0.505673   165A      0.508849   166A      0.512406  
     167A      0.514568   168A      0.516974   169A      0.518765  
     170A      0.520281   171A      0.525776   172A      0.530846  
     173A      0.536200   174A      0.541306   175A      0.543726  
     176A      0.547049   177A      0.548988   178A      0.555798  
     179A      0.559707   180A      0.564353   181A      0.570357  
     182A      0.578412   183A      0.581631   184A      0.587452  
     185A      0.591737   186A      0.593376   187A      0.602200  
     188A      0.608322   189A      0.619005   190A      0.623723  
     191A      0.626854   192A      0.627660   193A      0.639147  
     194A      0.642538   195A      0.649699   196A      0.655339  
     197A      0.657551   198A      0.671154   199A      0.671704  
     200A      0.678122   201A      0.681919   202A      0.692697  
     203A      0.701458   204A      0.705674   205A      0.709050  
     206A      0.715377   207A      0.716939   208A      0.725222  
     209A      0.725802   210A      0.734010   211A      0.735302  
     212A      0.741018   213A      0.744039   214A      0.750228  
     215A      0.761306   216A      0.768926   217A      0.774097  
     218A      0.776860   219A      0.792540   220A      0.795217  
     221A      0.799509   222A      0.802131   223A      0.806428  
     224A      0.819799   225A      0.827286   226A      0.831619  
     227A      0.833536   228A      0.837321   229A      0.850282  
     230A      0.852379   231A      0.856797   232A      0.862552  
     233A      0.866120   234A      0.871224   235A      0.875357  
     236A      0.881573   237A      0.885781   238A      0.890565  
     239A      0.899022   240A      0.900560   241A      0.909023  
     242A      0.914045   243A      0.918360   244A      0.924470  
     245A      0.930538   246A      0.933383   247A      0.938421  
     248A      0.943874   249A      0.946114   250A      0.948253  
     251A      0.956926   252A      0.957707   253A      0.962312  
     254A      0.964150   255A      0.966483   256A      0.975130  
     257A      0.979537   258A      0.984524   259A      0.986934  
     260A      0.991815   261A      0.999869   262A      1.000951  
     263A      1.010696   264A      1.011736   265A      1.017382  
     266A      1.021347   267A      1.027841   268A      1.028247  
     269A      1.033692   270A      1.037012   271A      1.041382  
     272A      1.044618   273A      1.050229   274A      1.056118  
     275A      1.065348   276A      1.068377   277A      1.071613  
     278A      1.078722   279A      1.082516   280A      1.085801  
     281A      1.086542   282A      1.090738   283A      1.097824  
     284A      1.102276   285A      1.106617   286A      1.111341  
[...]
	 B(3,9,8)         =         2.104812	     120.596869
	 B(4,7,12)        =         2.161674	     123.854788
	 B(4,7,21)        =         2.093319	     119.938369
	 B(4,9,8)         =         2.136887	     122.434587
	 B(5,10,13)       =         2.060455	     118.055369
	 B(5,11,8)        =         2.149101	     123.134400
	 B(5,11,14)       =         2.052096	     117.576444
	 B(6,3,9)         =         2.086931	     119.572313
	 B(6,3,17)        =         2.094060	     119.980822
	 B(6,12,7)        =         2.036391	     116.676588
	 B(7,4,9)         =         2.082608	     119.324642
	 B(7,4,18)        =         2.094540	     120.008276
	 B(8,1,15)        =         2.067871	     118.480266
	 B(8,11,14)       =         2.081812	     119.279036
	 B(9,3,17)        =         2.101987	     120.434971
	 B(9,4,18)        =         2.105946	     120.661832
	 B(9,8,11)        =         2.143501	     122.813551
	 B(10,2,16)       =         2.089908	     119.742908
	 B(10,5,11)       =         2.076908	     118.998049
	 B(10,5,19)       =         2.106063	     120.668497
	 B(10,13,22)      =         1.903430	     109.058533
	 B(11,5,19)       =         2.100198	     120.332475
	 B(12,6,20)       =         2.029804	     116.299191
	 B(12,7,21)       =         2.028189	     116.206692
	 D(1,2,10,5)      =        -0.031994	      -1.833146
	 D(1,2,10,13)     =        -3.086280	    -176.830820
	 D(1,8,9,3)       =        -0.687638	     -39.398754
	 D(1,8,9,4)       =         2.427741	     139.099310
	 D(1,8,11,5)      =        -0.008676	      -0.497126
	 D(1,8,11,14)     =         3.112212	     178.316627
	 D(2,1,8,9)       =         3.128702	     179.261436
	 D(2,1,8,11)      =        -0.001544	      -0.088476
	 D(2,10,5,11)     =         0.022136	       1.268317
	 D(2,10,5,19)     =        -3.113199	    -178.373144
	 D(2,10,13,22)    =        -1.044310	     -59.834563
	 D(3,6,12,7)      =         0.001813	       0.103899
	 D(3,9,4,7)       =         0.006749	       0.386717
	 D(3,9,4,18)      =         3.133796	     179.553269
	 D(3,9,8,11)      =         2.441851	     139.907738
	 D(4,7,12,6)      =        -0.000422	      -0.024166
	 D(4,9,3,6)       =        -0.005490	      -0.314551
	 D(4,9,3,17)      =         3.114204	     178.430736
	 D(4,9,8,11)      =        -0.725956	     -41.594199
	 D(5,10,2,16)     =         3.113563	     178.394012
	 D(5,10,13,22)    =         2.183031	     125.078456
	 D(5,11,8,9)      =        -3.138684	    -179.833362
	 D(6,3,9,8)       =         3.111283	     178.263359
	 D(6,12,7,21)     =        -3.139538	    -179.882256
	 D(7,4,9,8)       =        -3.109530	    -178.162938
	 D(7,12,6,20)     =        -3.133948	    -179.561989
	 D(8,1,2,10)      =         0.021737	       1.245436
	 D(8,1,2,16)      =        -3.123857	    -178.983811
	 D(8,9,3,17)      =        -0.052209	      -2.991353
	 D(8,9,4,18)      =         0.017516	       1.003614
	 D(8,11,5,10)     =        -0.001561	      -0.089434
	 D(8,11,5,19)     =         3.133796	     179.553263
	 D(9,3,6,12)      =         0.001242	       0.071154
	 D(9,3,6,20)      =         3.136793	     179.725002
	 D(9,4,7,12)      =        -0.003988	      -0.228485
	 D(9,4,7,21)      =         3.135040	     179.624587
	 D(9,8,1,15)      =        -0.023320	      -1.336128
	 D(9,8,11,14)     =        -0.017796	      -1.019609
	 D(10,2,1,15)     =        -3.109324	    -178.151155
	 D(10,5,11,14)    =        -3.122780	    -178.922121
	 D(11,5,10,13)    =         3.079699	     176.453775
	 D(11,8,1,15)     =         3.129619	     179.313959
	 D(12,6,3,17)     =        -3.118553	    -178.679911
	 D(12,7,4,18)     =        -3.131131	    -179.400582
	 D(13,10,2,16)    =         0.059277	       3.396338
	 D(13,10,5,19)    =        -0.055636	      -3.187686
	 D(14,11,5,19)    =         0.012576	       0.720576
	 D(15,1,2,16)     =         0.028267	       1.619598
	 D(17,3,6,20)     =         0.016998	       0.973936
	 D(18,4,7,21)     =         0.007897	       0.452490
	 R(4,14)          =         5.432084	       2.874535

	Current energy   :      -652.8719751871

	Energy change for the previous step:
		Projected    :        -0.0000000051
		Actual       :         0.0000016934

	Performing BFGS update.
	Previous computed or guess Hessian on step 1.
	Steps to be used in Hessian update: 11 10
	Adding user-defined constraint: Fragment 1; Coordinate 69:
		Value =    -1.044310; Fixed value    =    -1.047200
		Force =    -0.002240; Force constant =     0.775000
	Removing off-diagonal coupling between coordinate 69 and others.
	Taking RFO optimization step.
	Going to follow RFO solution 1.
	Rejecting RFO root 1 because normalization gives large value.
	Using RFO vector 2.
	Norm of target step-size    0.00135
	Projected energy change by RFO approximation:        -0.0000001088

	Back-transformation to cartesian coordinates...
	Successfully converged to displaced geometry.

	--- Internal Coordinate Step in ANG or DEG, aJ/ANG or AJ/DEG ---
	 ---------------------------------------------------------------------------
	   Coordinate                Previous        Force       Change         New 
	   ----------                --------       ------       ------       ------
	    1 R(1,2)          =      1.384058     0.000040     0.000009     1.384067
	    2 R(1,8)          =      1.395115    -0.000098    -0.000021     1.395094
	    3 R(1,15)         =      1.079630    -0.000002    -0.000001     1.079629
	    4 R(2,10)         =      1.387983    -0.000119    -0.000020     1.387962
	    5 R(2,16)         =      1.078972    -0.000033    -0.000008     1.078965
	    6 R(3,6)          =      1.385344     0.000036     0.000007     1.385351
	    7 R(3,9)          =      1.391876    -0.000126    -0.000024     1.391852
	    8 R(3,17)         =      1.079633    -0.000035    -0.000008     1.079625
	    9 R(4,7)          =      1.385668     0.000016     0.000003     1.385671
	   10 R(4,9)          =      1.391751    -0.000124    -0.000021     1.391730
	   11 R(4,18)         =      1.077880    -0.000056    -0.000013     1.077868
	   12 R(5,10)         =      1.384846    -0.000042    -0.000006     1.384841
	   13 R(5,11)         =      1.378764     0.000004     0.000000     1.378764
	   14 R(5,19)         =      1.077416    -0.000029    -0.000007     1.077409
	   15 R(6,12)         =      1.334779    -0.000192    -0.000025     1.334755
	   16 R(6,20)         =      1.081048    -0.000043    -0.000009     1.081038
	   17 R(7,12)         =      1.335109    -0.000084    -0.000009     1.335100
	   18 R(7,21)         =      1.080904    -0.000062    -0.000012     1.080892
	   19 R(8,9)          =      1.461744    -0.000025    -0.000002     1.461741
	   20 R(8,11)         =      1.389540     0.000081     0.000009     1.389549
	   21 R(10,13)        =      1.373170     0.000165     0.000026     1.373196
	   22 R(11,14)        =      1.346061     0.000017    -0.000004     1.346057
	   23 R(13,22)        =      0.961371    -0.000015    -0.000005     0.961366
	   24 B(1,2,10)       =    119.612352     0.000000     0.000295   119.612646
	   25 B(1,2,16)       =    120.644345     0.000000     0.001446   120.645791
	   26 B(1,8,9)        =    120.894043     0.000001     0.005367   120.899410
	   27 B(1,8,11)       =    116.289030    -0.000000     0.000987   116.290017
	   28 B(2,1,8)        =    122.030140    -0.000000    -0.001594   122.028546
	   29 B(2,1,15)       =    119.486926     0.000000     0.001358   119.488284
	   30 B(2,10,5)       =    119.913732     0.000000     0.002244   119.915976
	   31 B(2,10,13)      =    121.848671    -0.000001    -0.003199   121.845471
	   32 B(3,6,12)       =    123.618093     0.000000     0.000927   123.619020
	   33 B(3,6,20)       =    120.081875    -0.000000     0.000242   120.082117
	   34 B(3,9,4)        =    116.952500    -0.000000     0.000920   116.953420
	   35 B(3,9,8)        =    120.596869    -0.000000     0.000500   120.597368
	   36 B(4,7,12)       =    123.854788     0.000001     0.001892   123.856679
	   37 B(4,7,21)       =    119.938369     0.000000     0.000731   119.939100
	   38 B(4,9,8)        =    122.434587     0.000000    -0.001027   122.433559
	   39 B(5,10,13)      =    118.055369     0.000000     0.001029   118.056398
	   40 B(5,11,8)       =    123.134400     0.000000     0.000722   123.135122
	   41 B(5,11,14)      =    117.576444     0.000000     0.002196   117.578641
	   42 B(6,3,9)        =    119.572313     0.000000    -0.000388   119.571925
	   43 B(6,3,17)       =    119.980822     0.000000     0.000523   119.981345
	   44 B(6,12,7)       =    116.676588    -0.000001    -0.001793   116.674795
	   45 B(7,4,9)        =    119.324642    -0.000000    -0.001578   119.323065
	   46 B(7,4,18)       =    120.008276    -0.000000    -0.000877   120.007400
	   47 B(8,1,15)       =    118.480266    -0.000000     0.000215   118.480481
	   48 B(8,11,14)      =    119.279036    -0.000000    -0.003127   119.275910
	   49 B(9,3,17)       =    120.434971    -0.000000    -0.000166   120.434805
	   50 B(9,4,18)       =    120.661832     0.000000     0.002337   120.664169
	   51 B(9,8,11)       =    122.813551    -0.000001    -0.006537   122.807014
	   52 B(10,2,16)      =    119.742908    -0.000000    -0.001740   119.741168
	   53 B(10,5,11)      =    118.998049    -0.000000    -0.002715   118.995334
	   54 B(10,5,19)      =    120.668497    -0.000000    -0.001321   120.667176
	   55 B(10,13,22)     =    109.058533    -0.000000    -0.000576   109.057958
	   56 B(11,5,19)      =    120.332475     0.000001     0.004053   120.336529
	   57 B(12,6,20)      =    116.299191    -0.000000    -0.001205   116.297986
	   58 B(12,7,21)      =    116.206692    -0.000001    -0.002645   116.204048
	   59 D(1,2,10,5)     =     -1.833146    -0.000000    -0.002262    -1.835408
	   60 D(1,2,10,13)    =   -176.830820     0.000000    -0.003330  -176.834150
	   61 D(1,8,9,3)      =    -39.398754    -0.000000    -0.022620   -39.421373
	   62 D(1,8,9,4)      =    139.099310     0.000000    -0.004154   139.095156
	   63 D(1,8,11,5)     =     -0.497126    -0.000000    -0.002437    -0.499562
	   64 D(1,8,11,14)    =    178.316627    -0.000000    -0.014557   178.302071
	   65 D(2,1,8,9)      =    179.261436    -0.000000    -0.010763   179.250673
	   66 D(2,1,8,11)     =     -0.088476     0.000000     0.006686    -0.081791
	   67 D(2,10,5,11)    =      1.268317     0.000000     0.006297     1.274614
	   68 D(2,10,5,19)    =   -178.373144     0.000000     0.003119  -178.370025
	   69 D(2,10,13,22)   =    -59.834563    -0.000003    -0.010587   -59.845150
	   70 D(3,6,12,7)     =      0.103899    -0.000000    -0.000357     0.103542
	   71 D(3,9,4,7)      =      0.386717     0.000000     0.003430     0.390147
	   72 D(3,9,4,18)     =    179.553269    -0.000000    -0.005806   179.547464
	   73 D(3,9,8,11)     =    139.907738    -0.000000    -0.041175   139.866562
	   74 D(4,7,12,6)     =     -0.024166    -0.000000    -0.000742    -0.024908
	   75 D(4,9,3,6)      =     -0.314551    -0.000000    -0.004452    -0.319003
	   76 D(4,9,3,17)     =    178.430736    -0.000000    -0.006096   178.424641
	   77 D(4,9,8,11)     =    -41.594199    -0.000000    -0.022710   -41.616909
	   78 D(5,10,2,16)    =    178.394012    -0.000000    -0.002595   178.391417
	   79 D(5,10,13,22)   =    125.078456    -0.000002    -0.011699   125.066757
	   80 D(5,11,8,9)     =   -179.833362     0.000000     0.015291  -179.818071
	   81 D(6,3,9,8)      =    178.263359     0.000000     0.013004   178.276363
	   82 D(6,12,7,21)    =   -179.882256     0.000000     0.009217  -179.873040
	   83 D(7,4,9,8)      =   -178.162938    -0.000000    -0.014397  -178.177335
	   84 D(7,12,6,20)    =   -179.561989     0.000000     0.006681  -179.555308
	   85 D(8,1,2,10)     =      1.245436     0.000000    -0.004502     1.240935
	   86 D(8,1,2,16)     =   -178.983811     0.000000    -0.004174  -178.987985
	   87 D(8,9,3,17)     =     -2.991353     0.000000     0.011361    -2.979993
	   88 D(8,9,4,18)     =      1.003614    -0.000000    -0.023632     0.979981
	   89 D(8,11,5,10)    =     -0.089434    -0.000000    -0.003941    -0.093375
	   90 D(8,11,5,19)    =    179.553263    -0.000000    -0.000793   179.552470
	   91 D(9,3,6,12)     =      0.071154     0.000000     0.003047     0.074201
	   92 D(9,3,6,20)     =    179.725002    -0.000000    -0.004249   179.720753
	   93 D(9,4,7,12)     =     -0.228485    -0.000000    -0.000868    -0.229353
	   94 D(9,4,7,21)     =    179.624587    -0.000000    -0.011184   179.613403
	   95 D(9,8,1,15)     =     -1.336128    -0.000000    -0.013095    -1.349223
	   96 D(9,8,11,14)    =     -1.019609    -0.000000     0.003171    -1.016438
	   97 D(10,2,1,15)    =   -178.151155     0.000000    -0.002140  -178.153295
	   98 D(10,5,11,14)   =   -178.922121    -0.000000     0.008046  -178.914075
	   99 D(11,5,10,13)   =    176.453775    -0.000000     0.007111   176.460886
	  100 D(11,8,1,15)    =    179.313959     0.000000     0.004354   179.318313
	  101 D(12,6,3,17)    =   -178.679911     0.000000     0.004692  -178.675219
	  102 D(12,7,4,18)    =   -179.400582     0.000000     0.008278  -179.392304
	  103 D(13,10,2,16)   =      3.396338     0.000000    -0.003662     3.392676
	  104 D(13,10,5,19)   =     -3.187686    -0.000000     0.003933    -3.183753
	  105 D(14,11,5,19)   =      0.720576     0.000000     0.011193     0.731770
	  106 D(15,1,2,16)    =      1.619598     0.000000    -0.001813     1.617786
	  107 D(17,3,6,20)    =      0.973936    -0.000000    -0.002604     0.971332
	  108 D(18,4,7,21)    =      0.452490    -0.000000    -0.002038     0.450452
	  109 R(4,14)         =      2.874535    -0.000081    -0.000063     2.874472
	 ---------------------------------------------------------------------------
	Successfully symmetrized geometry.
	 Forces used to impose fixed constraints are not included.
	  Forces zeroed: 69 

  ==> Convergence Check <==

  Measures of convergence in internal coordinates in au.
  Criteria marked as inactive (o), active & met (*), and active & unmet ( ).
  ---------------------------------------------------------------------------------------------
   Step     Total Energy     Delta E     MAX Force     RMS Force      MAX Disp      RMS Disp   
  ---------------------------------------------------------------------------------------------
    Convergence Criteria    1.00e-06 *    3.00e-04 *             o    1.20e-03 *             o
  ---------------------------------------------------------------------------------------------
     12    -652.87197519    1.69e-06      1.07e-04 *    1.34e-05 o    7.19e-04 *    1.30e-04 o  ~
  ---------------------------------------------------------------------------------------------


  **** Optimization is complete! (in 12 steps) ****

  ==> Optimization Summary <==

  Measures of convergence in internal coordinates in au.
  --------------------------------------------------------------------------------------------------------------- ~
   Step         Total Energy             Delta E       MAX Force       RMS Force        MAX Disp        RMS Disp  ~
  --------------------------------------------------------------------------------------------------------------- ~
      1    -652.866613679639   -652.866613679639      0.01594448      0.00464977      0.02918696      0.00958764  ~
      2    -652.869783810979     -0.003170131339      0.00498358      0.00170093      0.03256532      0.00957120  ~
      3    -652.870700374751     -0.000916563773      0.00190575      0.00052387      0.04570438      0.00956228  ~
      4    -652.871052106860     -0.000351732109      0.00138223      0.00030772      0.05069860      0.00954688  ~
      5    -652.871313554923     -0.000261448063      0.00115492      0.00028077      0.04921418      0.00953228  ~
      6    -652.871531000649     -0.000217445726      0.00091491      0.00026653      0.04652131      0.00952338  ~
      7    -652.871712114090     -0.000181113441      0.00092458      0.00022836      0.04668079      0.00951962  ~
      8    -652.871851987914     -0.000139873824      0.00082870      0.00018479      0.05264948      0.00951785  ~
      9    -652.871944866823     -0.000092878909      0.00083182      0.00014512      0.05540239      0.00951808  ~
     10    -652.871982488571     -0.000037621748      0.00081972      0.00012162      0.00714657      0.00106060  ~
     11    -652.871976880505      0.000005608067      0.00026465      0.00003461      0.00143462      0.00020307  ~
     12    -652.871975187082      0.000001693423      0.00015120      0.00001975      0.00071865      0.00012968  ~
  --------------------------------------------------------------------------------------------------------------- ~

	Writing optimization data to binary file.
	Final energy is   -652.8719751870818
	Final (previous) structure:
	Cartesian Geometry (in Angstrom)
	    C    -1.4130902555   0.5587042017  -0.7472689921
	    C    -2.4972474700   1.1263948776  -0.1007809900
	    C     0.6240560489  -1.3630663506  -1.8153349477
	    C     2.1689431574  -0.1954446048  -0.4440942178
	    C    -1.3564555292   0.8778742191   1.9964203429
	    C     1.7053920232  -1.9018894950  -2.4932442011
	    C     3.1850158127  -0.7824907105  -1.1810123920
	    C    -0.2802881791   0.1298272384  -0.0550485219
	    C     0.8442770301  -0.4811524279  -0.7612717241
	    C    -2.4594587087   1.3035626066   1.2753291789
	    C    -0.2980504844   0.3055328970   1.3232235824
	    N     2.9767741230  -1.6259328604  -2.1947960640
	    O    -3.5328403499   1.8024744041   1.9714147829
	    F     0.7496628348  -0.1181573623   2.0544299286
	    H    -1.4323138519   0.4493256880  -1.8211721311
	    H    -3.3689097610   1.4354537173  -0.6565406545
	    H    -0.3808795066  -1.6436761316  -2.0927699805
	    H     2.4078952928   0.4852152298   0.3567993033
	    H    -1.3254140622   0.9856525928   3.0679827208
	    H     1.5439350533  -2.5911191978  -3.3102864964
	    H     4.2172044262  -0.5628394543  -0.9471442239
	    H    -3.7412701995   2.6805019098   1.6399653484
	Saving final (previous) structure.
			--------------------------
			 OPTKING Finished Execution 
			--------------------------

    Final optimized geometry and variables:
    Molecular point group: c1
    Full point group: C1

    Geometry (in Angstrom), charge = 0, multiplicity = 1:

    C           -1.413090255507     0.558704201694    -0.747268992139
    C           -2.497247470005     1.126394877631    -0.100780990004
    C            0.624056048897    -1.363066350644    -1.815334947713
    C            2.168943157362    -0.195444604826    -0.444094217786
    C           -1.356455529207     0.877874219115     1.996420342946
    C            1.705392023238    -1.901889494963    -2.493244201133
    C            3.185015812746    -0.782490710485    -1.181012392036
    C           -0.280288179145     0.129827238396    -0.055048521938
    C            0.844277030133    -0.481152427880    -0.761271724148
    C           -2.459458708686     1.303562606613     1.275329178889
    C           -0.298050484440     0.305532896957     1.323223582400
    N            2.976774123005    -1.625932860425    -2.194796064040
    O           -3.532840349934     1.802474404070     1.971414782928
    F            0.749662834771    -0.118157362329     2.054429928589
    H           -1.432313851932     0.449325688038    -1.821172131091
    H           -3.368909761038     1.435453717251    -0.656540654485
    H           -0.380879506599    -1.643676131631    -2.092769980481
    H            2.407895292830     0.485215229753     0.356799303344
    H           -1.325414062246     0.985652592819     3.067982720812
    H            1.543935053273    -2.591119197843    -3.310286496355
    H            4.217204426230    -0.562839454275    -0.947144223939
    H           -3.741270199539     2.680501909754     1.639965348365

	Cleaning optimization helper files.

*** Psi4 exiting successfully. Buy a developer a beer!
