
    -----------------------------------------------------------------------
          Psi4: An Open-Source Ab Initio Electronic Structure Package
                               Psi4 1.1 release

                         Git: Rev {HEAD} add49b9 


    R. M. Parrish, L. A. Burns, D. G. A. Smith, A. C. Simmonett,
    A. E. DePrince III, E. G. Hohenstein, U. Bozkaya, A. Yu. Sokolov,
    R. Di Remigio, R. M. Richard, J. F. Gonthier, A. M. James,
    H. R. McAlexander, A. Kumar, M. Saitow, X. Wang, B. P. Pritchard,
    P. Verma, H. F. Schaefer III, K. Patkowski, R. A. King, E. F. Valeev,
    F. A. Evangelista, J. M. Turney, T. D. Crawford, and C. D. Sherrill,
    J. Chem. Theory Comput. in press (2017).
    (doi: 10.1021/acs.jctc.7b00174)

    -----------------------------------------------------------------------


    Psi4 started on: Sunday, 12 November 2017 12:51PM

    Process ID:  32062
    PSIDATADIR: /cbio/jclab/home/chayas/anaconda/envs/py35/share/psi4
    Memory:     500.0 MiB
    Threads:    8
    
  ==> Input File <==

--------------------------------------------------------------------------

memory 5 Gb

molecule phepyrOH_neutral {
  symmetry C1
  0 1 
  C      1.885   -1.036   -0.112
  C      2.878   -1.652   2.002
  C      0.807   -0.463   0.561
  C      1.800   -1.079   2.676
  C      3.862   -2.773   -1.356
  C      5.298   -2.250   0.501
  C      4.965   -3.329   -1.983
  C      6.337   -2.830   -0.209
  C      2.921   -1.631   0.608
  C      4.040   -2.225   -0.090
  C      0.764   -0.484   1.955
  N      6.202   -3.372   -1.440
  O      -0.288   0.076   2.612
  H      1.904   -1.012   -1.199
  H      3.678   -2.112   2.578
  H      0.003   -0.001   -0.006
  H      1.772   -1.098   3.762
  H      2.895   -2.771   -1.850
  H      5.475   -1.833   1.487
  H      4.879   -3.768   -2.972
  H      7.337   -2.875   0.209
  H      -0.175   -0.018   3.571
  units Angstrom
}

dih_string = "1 9 10 5 330"
set optking fixed_dihedral = $dih_string

optimize('MP2/aug-cc-PVTZ')
--------------------------------------------------------------------------

  Memory set to   4.657 GiB by Python driver.
gradient() will perform analytic gradient computation.

*** tstart() called on gpu-1-6.local
*** at Sun Nov 12 12:51:50 2017

    SCF Algorithm Type (re)set to DF.

*** tstart() called on gpu-1-6.local
*** at Sun Nov 12 12:51:50 2017

   => Loading Basis Set <=

    Name: AUG-CC-PVTZ
    Role: ORBITAL
    Keyword: BASIS
    atoms 1-11  entry C          line   221 file /cbio/jclab/home/chayas/anaconda/envs/py35/share/psi4/basis/aug-cc-pvtz.gbs 
    atoms 12    entry N          line   267 file /cbio/jclab/home/chayas/anaconda/envs/py35/share/psi4/basis/aug-cc-pvtz.gbs 
    atoms 13    entry O          line   313 file /cbio/jclab/home/chayas/anaconda/envs/py35/share/psi4/basis/aug-cc-pvtz.gbs 
    atoms 14-22 entry H          line    34 file /cbio/jclab/home/chayas/anaconda/envs/py35/share/psi4/basis/aug-cc-pvtz.gbs 


         ---------------------------------------------------------
                                   SCF
            by Justin Turney, Rob Parrish, and Andy Simmonett
                              RHF Reference
                        8 Threads,   4768 MiB Core
         ---------------------------------------------------------

  ==> Geometry <==

    Molecular point group: c1
    Full point group: C1

    Geometry (in Angstrom), charge = 0, multiplicity = 1:

       Center              X                  Y                   Z               Mass       
    ------------   -----------------  -----------------  -----------------  -----------------
           C         -1.253567797389     0.709710615413    -0.590603572837    12.000000000000
           C         -0.260567797389     0.093710615413     1.523396427163    12.000000000000
           C         -2.331567797389     1.282710615413     0.082396427163    12.000000000000
           C         -1.338567797389     0.666710615413     2.197396427163    12.000000000000
           C          0.723432202611    -1.027289384587    -1.834603572837    12.000000000000
           C          2.159432202611    -0.504289384587     0.022396427163    12.000000000000
           C          1.826432202611    -1.583289384587    -2.461603572837    12.000000000000
           C          3.198432202611    -1.084289384587    -0.687603572837    12.000000000000
           C         -0.217567797389     0.114710615413     0.129396427163    12.000000000000
           C          0.901432202611    -0.479289384587    -0.568603572837    12.000000000000
           C         -2.374567797389     1.261710615413     1.476396427163    12.000000000000
           N          3.063432202611    -1.626289384587    -1.918603572837    14.003074004780
           O         -3.426567797389     1.821710615413     2.133396427163    15.994914619560
           H         -1.234567797389     0.733710615413    -1.677603572837     1.007825032070
           H          0.539432202611    -0.366289384587     2.099396427163     1.007825032070
           H         -3.135567797389     1.744710615413    -0.484603572837     1.007825032070
           H         -1.366567797389     0.647710615413     3.283396427163     1.007825032070
           H         -0.243567797389    -1.025289384587    -2.328603572837     1.007825032070
           H          2.336432202611    -0.087289384587     1.008396427163     1.007825032070
           H          1.740432202611    -2.022289384587    -3.450603572837     1.007825032070
           H          4.198432202611    -1.129289384587    -0.269603572837     1.007825032070
           H         -3.313567797389     1.727710615413     3.092396427163     1.007825032070

  Running in c1 symmetry.

  Rotational constants: A =      0.09694  B =      0.01355  C =      0.01208 [cm^-1]
  Rotational constants: A =   2906.11576  B =    406.13291  C =    362.28647 [MHz]
  Nuclear repulsion =  698.587482949179275

  Charge       = 0
  Multiplicity = 1
  Electrons    = 90
  Nalpha       = 45
  Nbeta        = 45

  ==> Algorithm <==

  SCF Algorithm Type is DF.
  DIIS enabled.
  MOM disabled.
  Fractional occupation disabled.
  Guess Type is SAD.
  Energy threshold   = 1.00e-10
  Density threshold  = 1.00e-10
  Integral threshold = 0.00e+00

  ==> Primary Basis <==

  Basis Set: AUG-CC-PVTZ
    Blend: AUG-CC-PVTZ
    Number of shells: 263
    Number of basis function: 805
    Number of Cartesian functions: 940
    Spherical Harmonics?: true
    Max angular momentum: 3

   => Loading Basis Set <=

    Name: (AUG-CC-PVTZ AUX)
    Role: JKFIT
    Keyword: DF_BASIS_SCF
    atoms 1-11  entry C          line   161 file /cbio/jclab/home/chayas/anaconda/envs/py35/share/psi4/basis/aug-cc-pvtz-jkfit.gbs 
    atoms 12    entry N          line   223 file /cbio/jclab/home/chayas/anaconda/envs/py35/share/psi4/basis/aug-cc-pvtz-jkfit.gbs 
    atoms 13    entry O          line   285 file /cbio/jclab/home/chayas/anaconda/envs/py35/share/psi4/basis/aug-cc-pvtz-jkfit.gbs 
    atoms 14-22 entry H          line    69 file /cbio/jclab/home/chayas/anaconda/envs/py35/share/psi4/basis/aug-cc-pvtz-jkfit.gbs 

  ==> Pre-Iterations <==

   -------------------------------------------------------
    Irrep   Nso     Nmo     Nalpha   Nbeta   Ndocc  Nsocc
   -------------------------------------------------------
     A        805     805       0       0       0       0
   -------------------------------------------------------
    Total     805     805      45      45      45       0
   -------------------------------------------------------

  ==> Integral Setup <==

  ==> DFJK: Density-Fitted J/K Matrices <==

    J tasked:                  Yes
    K tasked:                  Yes
    wK tasked:                  No
    OpenMP threads:              8
    Integrals threads:           8
    Memory (MB):              3576
    Algorithm:                Disk
    Integral Cache:           NONE
    Schwarz Cutoff:          1E-12
    Fitting Condition:       1E-12

   => Auxiliary Basis Set <=

  Basis Set: (AUG-CC-PVTZ AUX)
    Blend: AUG-CC-PVTZ-JKFIT
    Number of shells: 516
    Number of basis function: 1766
    Number of Cartesian functions: 2198
    Spherical Harmonics?: true
    Max angular momentum: 4

  Minimum eigenvalue in the overlap matrix is 5.5080311542E-07.
  Using Symmetric Orthogonalization.

  SCF Guess: Superposition of Atomic Densities via on-the-fly atomic UHF.

  ==> Iterations <==

                           Total Energy        Delta E     RMS |[F,P]|

   @DF-RHF iter   0:  -560.32450709695729   -5.60325e+02   2.53841e-02 
   @DF-RHF iter   1:  -550.98736405776572    9.33714e+00   1.66784e-03 
   @DF-RHF iter   2:  -551.23182305441037   -2.44459e-01   8.82274e-04 DIIS
   @DF-RHF iter   3:  -551.27082383284358   -3.90008e-02   4.19885e-04 DIIS
   @DF-RHF iter   4:  -551.28333346140732   -1.25096e-02   1.23041e-04 DIIS
   @DF-RHF iter   5:  -551.28510294710713   -1.76949e-03   4.90634e-05 DIIS
   @DF-RHF iter   6:  -551.28541750583179   -3.14559e-04   1.72630e-05 DIIS
   @DF-RHF iter   7:  -551.28547389916741   -5.63933e-05   6.39697e-06 DIIS
   @DF-RHF iter   8:  -551.28548268609336   -8.78693e-06   3.85399e-06 DIIS
   @DF-RHF iter   9:  -551.28548549282800   -2.80673e-06   1.97504e-06 DIIS
   @DF-RHF iter  10:  -551.28548653809605   -1.04527e-06   7.02797e-07 DIIS
   @DF-RHF iter  11:  -551.28548663984725   -1.01751e-07   2.22573e-07 DIIS
   @DF-RHF iter  12:  -551.28548665165022   -1.18030e-08   8.68436e-08 DIIS
   @DF-RHF iter  13:  -551.28548665309779   -1.44757e-09   4.56930e-08 DIIS
   @DF-RHF iter  14:  -551.28548665352355   -4.25757e-10   2.14592e-08 DIIS
   @DF-RHF iter  15:  -551.28548665363201   -1.08457e-10   9.20798e-09 DIIS
   @DF-RHF iter  16:  -551.28548665364440   -1.23919e-11   3.56374e-09 DIIS
   @DF-RHF iter  17:  -551.28548665364474   -3.41061e-13   1.20679e-09 DIIS
   @DF-RHF iter  18:  -551.28548665364997   -5.22959e-12   4.79456e-10 DIIS
   @DF-RHF iter  19:  -551.28548665366145   -1.14824e-11   2.65630e-10 DIIS
   @DF-RHF iter  20:  -551.28548665367998   -1.85310e-11   1.16937e-10 DIIS
   @DF-RHF iter  21:  -551.28548665367680    3.18323e-12   5.70633e-11 DIIS

  ==> Post-Iterations <==

    Orbital Energies (a.u.)
    -----------------------

    Doubly Occupied:                                                      

       1A    -20.601575     2A    -15.561004     3A    -11.316627  
       4A    -11.273722     5A    -11.273590     6A    -11.262841  
       7A    -11.255377     8A    -11.254082     9A    -11.246167  
      10A    -11.244181    11A    -11.242680    12A    -11.235563  
      13A    -11.235516    14A     -1.416733    15A     -1.248050  
      16A     -1.174242    17A     -1.103950    18A     -1.039521  
      19A     -1.028493    20A     -1.009577    21A     -0.882060  
      22A     -0.873417    23A     -0.839048    24A     -0.810534  
      25A     -0.749138    26A     -0.725044    27A     -0.684499  
      28A     -0.665027    29A     -0.650253    30A     -0.632476  
      31A     -0.614055    32A     -0.608699    33A     -0.602627  
      34A     -0.592092    35A     -0.575508    36A     -0.543258  
      37A     -0.530616    38A     -0.522878    39A     -0.501862  
      40A     -0.494809    41A     -0.416916    42A     -0.395629  
      43A     -0.355980    44A     -0.348662    45A     -0.305836  

    Virtual:                                                              

      46A      0.021340    47A      0.029598    48A      0.032097  
      49A      0.039641    50A      0.042743    51A      0.045225  
      52A      0.054995    53A      0.057104    54A      0.063525  
      55A      0.077454    56A      0.078628    57A      0.083984  
      58A      0.087940    59A      0.093484    60A      0.096932  
      61A      0.102286    62A      0.103788    63A      0.108394  
      64A      0.109725    65A      0.111618    66A      0.114884  
      67A      0.119336    68A      0.121745    69A      0.127182  
      70A      0.129880    71A      0.132702    72A      0.134647  
      73A      0.137196    74A      0.143643    75A      0.146164  
      76A      0.149168    77A      0.150186    78A      0.154129  
      79A      0.160224    80A      0.164619    81A      0.168189  
      82A      0.173828    83A      0.176715    84A      0.182693  
      85A      0.184610    86A      0.187030    87A      0.201021  
      88A      0.204231    89A      0.214575    90A      0.216246  
      91A      0.222203    92A      0.222963    93A      0.226081  
      94A      0.236712    95A      0.240341    96A      0.242243  
      97A      0.246390    98A      0.250317    99A      0.252778  
     100A      0.256051   101A      0.257221   102A      0.263563  
     103A      0.266073   104A      0.272852   105A      0.274400  
     106A      0.277419   107A      0.285495   108A      0.289174  
     109A      0.291022   110A      0.298395   111A      0.300184  
     112A      0.301441   113A      0.307072   114A      0.312189  
     115A      0.316321   116A      0.318291   117A      0.325642  
     118A      0.328207   119A      0.329078   120A      0.333944  
     121A      0.339764   122A      0.344661   123A      0.356062  
     124A      0.357761   125A      0.361922   126A      0.366093  
     127A      0.371725   128A      0.373786   129A      0.386184  
     130A      0.391692   131A      0.396531   132A      0.398344  
     133A      0.403914   134A      0.408645   135A      0.414270  
     136A      0.419046   137A      0.425030   138A      0.428000  
     139A      0.432744   140A      0.434218   141A      0.438385  
     142A      0.439650   143A      0.445870   144A      0.447501  
     145A      0.449074   146A      0.451367   147A      0.458013  
     148A      0.462279   149A      0.464747   150A      0.468008  
     151A      0.471808   152A      0.475955   153A      0.484305  
     154A      0.486035   155A      0.489278   156A      0.491842  
     157A      0.500899   158A      0.501640   159A      0.504153  
     160A      0.508286   161A      0.509470   162A      0.511753  
     163A      0.515008   164A      0.517122   165A      0.521060  
     166A      0.526156   167A      0.529231   168A      0.531579  
     169A      0.534110   170A      0.541282   171A      0.545844  
     172A      0.548574   173A      0.550399   174A      0.555288  
     175A      0.557009   176A      0.565077   177A      0.568303  
     178A      0.579180   179A      0.580482   180A      0.588103  
     181A      0.594000   182A      0.599702   183A      0.605699  
     184A      0.612268   185A      0.614511   186A      0.621350  
     187A      0.627632   188A      0.637602   189A      0.641197  
     190A      0.646501   191A      0.654489   192A      0.659731  
     193A      0.666100   194A      0.679425   195A      0.688098  
     196A      0.691541   197A      0.697014   198A      0.701902  
     199A      0.706972   200A      0.708811   201A      0.716737  
     202A      0.719811   203A      0.730315   204A      0.731627  
     205A      0.733767   206A      0.739577   207A      0.739980  
     208A      0.749450   209A      0.755431   210A      0.763909  
     211A      0.767444   212A      0.772872   213A      0.777569  
     214A      0.798591   215A      0.802715   216A      0.803941  
     217A      0.807885   218A      0.812018   219A      0.817002  
     220A      0.823375   221A      0.829379   222A      0.833708  
     223A      0.837496   224A      0.840020   225A      0.847948  
     226A      0.855589   227A      0.856754   228A      0.866013  
     229A      0.870030   230A      0.876246   231A      0.879557  
     232A      0.883037   233A      0.883597   234A      0.888650  
     235A      0.892546   236A      0.896154   237A      0.907080  
     238A      0.910088   239A      0.911636   240A      0.918463  
     241A      0.927094   242A      0.930334   243A      0.934414  
     244A      0.943861   245A      0.947786   246A      0.952628  
     247A      0.956970   248A      0.963227   249A      0.965154  
     250A      0.970762   251A      0.975037   252A      0.978334  
     253A      0.981863   254A      0.987245   255A      0.990260  
     256A      0.995977   257A      0.998779   258A      1.002795  
     259A      1.014074   260A      1.016855   261A      1.018319  
     262A      1.020447   263A      1.026092   264A      1.031517  
     265A      1.039732   266A      1.041041   267A      1.041600  
     268A      1.047710   269A      1.050015   270A      1.057429  
     271A      1.059274   272A      1.060147   273A      1.070046  
     274A      1.076577   275A      1.078097   276A      1.085891  
     277A      1.089188   278A      1.091981   279A      1.099314  
     280A      1.100560   281A      1.103946   282A      1.106845  
     283A      1.114898   284A      1.116203   285A      1.122815  
     286A      1.123517   287A      1.126310   288A      1.136907  
     289A      1.149793   290A      1.153813   291A      1.159666  
     292A      1.162422   293A      1.166139   294A      1.169505  
     295A      1.173804   296A      1.177784   297A      1.185058  
     298A      1.188867   299A      1.194537   300A      1.202478  
     301A      1.207099   302A      1.208696   303A      1.214092  
     304A      1.219407   305A      1.222022   306A      1.224958  
     307A      1.231454   308A      1.233913   309A      1.245612  
     310A      1.251622   311A      1.257022   312A      1.266253  
     313A      1.274910   314A      1.277949   315A      1.285229  
     316A      1.288618   317A      1.297558   318A      1.299754  
     319A      1.304654   320A      1.312191   321A      1.317463  
     322A      1.326661   323A      1.334417   324A      1.341119  
     325A      1.347260   326A      1.353405   327A      1.359017  
     328A      1.371379   329A      1.378325   330A      1.389156  
     331A      1.393401   332A      1.398132   333A      1.411780  
     334A      1.425408   335A      1.432046   336A      1.443000  
     337A      1.450078   338A      1.453200   339A      1.455233  
     340A      1.462905   341A      1.464514   342A      1.476107  
     343A      1.495089   344A      1.498906   345A      1.504581  
     346A      1.509090   347A      1.515175   348A      1.521605  
     349A      1.528634   350A      1.533608   351A      1.539844  
     352A      1.552224   353A      1.560514   354A      1.575289  
     355A      1.586551   356A      1.591659   357A      1.598822  
     358A      1.607455   359A      1.608590   360A      1.616105  
     361A      1.623244   362A      1.647148   363A      1.654509  
     364A      1.655189   365A      1.660655   366A      1.673366  
     367A      1.677992   368A      1.692212   369A      1.695741  
     370A      1.699160   371A      1.703394   372A      1.711973  
     373A      1.722880   374A      1.727437   375A      1.733924  
     376A      1.741099   377A      1.745475   378A      1.751125  
     379A      1.755431   380A      1.771032   381A      1.776723  
     382A      1.781773   383A      1.795229   384A      1.805173  
     385A      1.815488   386A      1.819224   387A      1.827177  
     388A      1.833909   389A      1.839408   390A      1.842860  
     391A      1.852535   392A      1.863034   393A      1.865580  
     394A      1.868615   395A      1.876134   396A      1.884041  
     397A      1.906432   398A      1.910392   399A      1.919184  
     400A      1.927232   401A      1.942354   402A      1.946551  
     403A      1.953440   404A      1.961043   405A      1.966599  
     406A      1.968890   407A      1.974878   408A      1.982333  
     409A      1.991204   410A      1.998884   411A      2.010198  
     412A      2.019701   413A      2.022322   414A      2.034692  
     415A      2.040142   416A      2.047651   417A      2.054349  
     418A      2.056361   419A      2.065771   420A      2.073296  
     421A      2.079533   422A      2.089802   423A      2.096547  
     424A      2.108510   425A      2.109686   426A      2.119824  
     427A      2.125623   428A      2.131853   429A      2.134869  
     430A      2.140018   431A      2.146984   432A      2.151348  
     433A      2.175850   434A      2.181495   435A      2.187139  
     436A      2.193612   437A      2.195492   438A      2.213374  
     439A      2.222703   440A      2.234250   441A      2.237167  
     442A      2.243226   443A      2.257595   444A      2.267111  
     445A      2.273876   446A      2.294169   447A      2.306250  
     448A      2.312390   449A      2.320224   450A      2.329617  
     451A      2.340388   452A      2.354310   453A      2.362345  
     454A      2.366506   455A      2.376975   456A      2.380604  
     457A      2.400043   458A      2.402242   459A      2.407590  
     460A      2.414751   461A      2.418838   462A      2.433316  
     463A      2.452983   464A      2.457783   465A      2.477216  
     466A      2.485059   467A      2.508990   468A      2.509474  
     469A      2.525669   470A      2.533443   471A      2.549643  
     472A      2.560087   473A      2.567016   474A      2.572371  
     475A      2.581943   476A      2.585934   477A      2.604601  
     478A      2.608546   479A      2.616372   480A      2.645363  
     481A      2.648468   482A      2.657739   483A      2.685107  
     484A      2.715443   485A      2.724889   486A      2.751118  
     487A      2.762987   488A      2.776265   489A      2.806549  
     490A      2.814351   491A      2.820882   492A      2.836189  
     493A      2.856245   494A      2.866105   495A      2.867682  
     496A      2.885166   497A      2.896251   498A      2.900031  
     499A      2.940797   500A      2.952710   501A      2.994638  
     502A      3.002743   503A      3.015129   504A      3.062643  
     505A      3.068128   506A      3.085243   507A      3.104745  
     508A      3.120836   509A      3.151767   510A      3.165558  
     511A      3.194852   512A      3.212570   513A      3.228975  
     514A      3.236736   515A      3.240135   516A      3.249442  
     517A      3.278459   518A      3.292409   519A      3.300857  
     520A      3.307138   521A      3.318336   522A      3.336202  
     523A      3.345410   524A      3.358327   525A      3.369376  
     526A      3.375487   527A      3.387294   528A      3.401169  
     529A      3.409507   530A      3.418841   531A      3.426726  
     532A      3.433282   533A      3.441562   534A      3.446661  
     535A      3.461157   536A      3.474884   537A      3.479225  
     538A      3.490851   539A      3.497920   540A      3.516162  
     541A      3.520750   542A      3.528132   543A      3.537608  
     544A      3.543434   545A      3.553388   546A      3.558712  
     547A      3.563732   548A      3.577322   549A      3.581724  
     550A      3.586515   551A      3.589924   552A      3.596871  
     553A      3.604944   554A      3.630237   555A      3.640751  
     556A      3.648311   557A      3.654253   558A      3.666736  
     559A      3.673977   560A      3.690276   561A      3.696110  
     562A      3.708587   563A      3.717393   564A      3.731997  
     565A      3.744550   566A      3.757265   567A      3.767899  
     568A      3.779527   569A      3.780501   570A      3.787120  
     571A      3.792618   572A      3.816146   573A      3.819733  
     574A      3.833876   575A      3.837205   576A      3.846447  
     577A      3.856603   578A      3.859948   579A      3.874893  
     580A      3.882467   581A      3.889988   582A      3.895983  
     583A      3.899262   584A      3.913924   585A      3.922046  
     586A      3.935851   587A      3.941476   588A      3.943532  
     589A      3.949221   590A      3.963147   591A      3.969688  
     592A      3.973815   593A      3.986980   594A      3.998661  
     595A      4.005311   596A      4.013214   597A      4.025692  
     598A      4.030490   599A      4.034420   600A      4.037820  
     601A      4.040361   602A      4.058532   603A      4.084177  
     604A      4.095225   605A      4.099662   606A      4.111918  
     607A      4.122381   608A      4.127519   609A      4.140982  
     610A      4.146834   611A      4.150222   612A      4.155801  
     613A      4.170228   614A      4.175700   615A      4.186273  
     616A      4.201565   617A      4.202450   618A      4.213928  
     619A      4.224994   620A      4.233845   621A      4.253917  
     622A      4.255202   623A      4.262884   624A      4.275452  
     625A      4.283431   626A      4.294021   627A      4.305649  
     628A      4.316927   629A      4.326236   630A      4.331571  
     631A      4.339875   632A      4.345216   633A      4.355620  
     634A      4.364495   635A      4.371154   636A      4.388333  
     637A      4.390831   638A      4.401507   639A      4.408190  
     640A      4.414561   641A      4.426003   642A      4.432902  
     643A      4.440156   644A      4.444418   645A      4.452588  
     646A      4.458948   647A      4.466413   648A      4.473282  
     649A      4.495524   650A      4.499551   651A      4.506813  
     652A      4.515520   653A      4.524596   654A      4.528263  
     655A      4.535757   656A      4.557752   657A      4.574322  
     658A      4.589880   659A      4.601642   660A      4.619595  
     661A      4.636592   662A      4.643854   663A      4.668792  
     664A      4.680771   665A      4.686339   666A      4.695072  
     667A      4.704583   668A      4.723072   669A      4.734214  
     670A      4.747846   671A      4.770967   672A      4.784720  
     673A      4.800155   674A      4.808861   675A      4.824448  
     676A      4.844409   677A      4.868917   678A      4.873083  
     679A      4.885083   680A      4.898320   681A      4.914052  
     682A      4.932747   683A      4.944139   684A      4.948192  
     685A      4.954077   686A      4.964463   687A      4.984669  
     688A      4.994136   689A      5.011167   690A      5.026387  
     691A      5.033250   692A      5.046231   693A      5.050023  
     694A      5.056670   695A      5.078841   696A      5.096671  
     697A      5.098642   698A      5.112660   699A      5.122646  
     700A      5.136460   701A      5.145807   702A      5.146790  
     703A      5.162736   704A      5.166505   705A      5.172510  
     706A      5.180111   707A      5.211399   708A      5.222593  
     709A      5.233525   710A      5.244223   711A      5.267692  
     712A      5.281897   713A      5.297604   714A      5.304296  
     715A      5.313034   716A      5.325697   717A      5.345544  
     718A      5.360403   719A      5.378455   720A      5.398588  
     721A      5.414157   722A      5.422223   723A      5.429817  
     724A      5.442748   725A      5.447747   726A      5.485942  
     727A      5.489453   728A      5.527816   729A      5.545119  
     730A      5.555635   731A      5.561277   732A      5.571544  
     733A      5.624922   734A      5.632051   735A      5.672774  
     736A      5.703576   737A      5.711216   738A      5.715444  
     739A      5.757740   740A      5.764429   741A      5.801632  
     742A      5.826512   743A      5.828156   744A      5.852119  
     745A      5.875089   746A      5.880597   747A      5.916767  
     748A      5.927286   749A      5.986602   750A      6.067447  
     751A      6.087759   752A      6.122458   753A      6.158259  
     754A      6.188495   755A      6.217854   756A      6.266979  
     757A      6.282876   758A      6.333998   759A      6.374257  
     760A      6.406929   761A      6.438494   762A      6.471121  
     763A      6.483650   764A      6.507356   765A      6.527554  
     766A      6.600458   767A      6.627781   768A      6.712341  
     769A      6.715308   770A      6.740889   771A      6.746849  
     772A      6.887322   773A      6.892557   774A      6.901341  
     775A      6.912609   776A      6.944196   777A      6.976363  
     778A      7.002345   779A      7.050708   780A      7.100673  
     781A      7.107613   782A      7.225726   783A      7.259119  
     784A      7.421642   785A      7.425305   786A      7.446123  
     787A      7.685748   788A      7.712603   789A      7.756875  
     790A      8.011534   791A      8.388958   792A      8.638685  
     793A     15.643295   794A     16.395452   795A     16.679997  
     796A     16.761672   797A     16.831785   798A     18.434046  
     799A     18.827113   800A     19.207924   801A     19.585109  
     802A     20.060698   803A     20.085635   804A     20.599459  
     805A     21.825801  

    Final Occupation by Irrep:
              A 
    DOCC [    45 ]

  Energy converged.

  @DF-RHF Final Energy:  -551.28548665367680

   => Energetics <=

    Nuclear Repulsion Energy =            698.5874829491792752
    One-Electron Energy =               -2133.8571194365558767
    Two-Electron Energy =                 883.9841498336998029
    DFT Exchange-Correlation Energy =       0.0000000000000000
    Empirical Dispersion Energy =           0.0000000000000000
    PCM Polarization Energy =               0.0000000000000000
    EFP Energy =                            0.0000000000000000
    Total Energy =                       -551.2854866536767986



Properties will be evaluated at   0.000000,   0.000000,   0.000000 Bohr

Properties computed using the SCF density matrix

  Nuclear Dipole Moment: (a.u.)
     X:    -0.4745      Y:     0.2229      Z:     1.2088

  Electronic Dipole Moment: (a.u.)
     X:    -0.1918      Y:     0.1102      Z:    -0.2015

  Dipole Moment: (a.u.)
     X:    -0.6663      Y:     0.3331      Z:     1.0074     Total:     1.2529

  Dipole Moment: (Debye)
     X:    -1.6937      Y:     0.8467      Z:     2.5605     Total:     3.1846


*** tstop() called on gpu-1-6.local at Sun Nov 12 13:00:51 2017
Module time:
	user time   =    1248.25 seconds =      20.80 minutes
	system time =      54.01 seconds =       0.90 minutes
	total time  =        541 seconds =       9.02 minutes
Total time:
	user time   =    1248.25 seconds =      20.80 minutes
	system time =      54.01 seconds =       0.90 minutes
	total time  =        541 seconds =       9.02 minutes

  //>>>>>>>>>>>>>>>>>>>>>>>>>>>>>>>>>>>//
  //               DFMP2               //
  //<<<<<<<<<<<<<<<<<<<<<<<<<<<<<<<<<<<//

   => Loading Basis Set <=

    Name: (AUG-CC-PVTZ AUX)
    Role: RIFIT
    Keyword: DF_BASIS_MP2
    atoms 1-11  entry C          line   147 file /cbio/jclab/home/chayas/anaconda/envs/py35/share/psi4/basis/aug-cc-pvtz-ri.gbs 
    atoms 12    entry N          line   205 file /cbio/jclab/home/chayas/anaconda/envs/py35/share/psi4/basis/aug-cc-pvtz-ri.gbs 
    atoms 13    entry O          line   263 file /cbio/jclab/home/chayas/anaconda/envs/py35/share/psi4/basis/aug-cc-pvtz-ri.gbs 
    atoms 14-22 entry H          line    29 file /cbio/jclab/home/chayas/anaconda/envs/py35/share/psi4/basis/aug-cc-pvtz-ri.gbs 

	 --------------------------------------------------------
	                          DF-MP2                         
	      2nd-Order Density-Fitted Moller-Plesset Theory     
	              RMP2 Wavefunction,   8 Threads             
	                                                         
	        Rob Parrish, Justin Turney, Andy Simmonett,      
	           Ed Hohenstein, and C. David Sherrill          
	 --------------------------------------------------------

   => Auxiliary Basis Set <=

  Basis Set: (AUG-CC-PVTZ AUX)
    Blend: AUG-CC-PVTZ-RI
    Number of shells: 490
    Number of basis function: 1792
    Number of Cartesian functions: 2263
    Spherical Harmonics?: true
    Max angular momentum: 4

	 --------------------------------------------------------
	                 NBF =   805, NAUX =  1792
	 --------------------------------------------------------
	   CLASS    FOCC     OCC    AOCC    AVIR     VIR    FVIR
	   PAIRS       0      45      45     760     760       0
	 --------------------------------------------------------


         ------------------------------------------------------------
                                     CPHF                           
                                  Rob Parrish                       
         ------------------------------------------------------------

  ==> Geometry <==

    Molecular point group: c1
    Full point group: C1

    Geometry (in Angstrom), charge = 0, multiplicity = 1:

       Center              X                  Y                   Z               Mass       
    ------------   -----------------  -----------------  -----------------  -----------------
           C         -1.253567797389     0.709710615413    -0.590603572837    12.000000000000
           C         -0.260567797389     0.093710615413     1.523396427163    12.000000000000
           C         -2.331567797389     1.282710615413     0.082396427163    12.000000000000
           C         -1.338567797389     0.666710615413     2.197396427163    12.000000000000
           C          0.723432202611    -1.027289384587    -1.834603572837    12.000000000000
           C          2.159432202611    -0.504289384587     0.022396427163    12.000000000000
           C          1.826432202611    -1.583289384587    -2.461603572837    12.000000000000
           C          3.198432202611    -1.084289384587    -0.687603572837    12.000000000000
           C         -0.217567797389     0.114710615413     0.129396427163    12.000000000000
           C          0.901432202611    -0.479289384587    -0.568603572837    12.000000000000
           C         -2.374567797389     1.261710615413     1.476396427163    12.000000000000
           N          3.063432202611    -1.626289384587    -1.918603572837    14.003074004780
           O         -3.426567797389     1.821710615413     2.133396427163    15.994914619560
           H         -1.234567797389     0.733710615413    -1.677603572837     1.007825032070
           H          0.539432202611    -0.366289384587     2.099396427163     1.007825032070
           H         -3.135567797389     1.744710615413    -0.484603572837     1.007825032070
           H         -1.366567797389     0.647710615413     3.283396427163     1.007825032070
           H         -0.243567797389    -1.025289384587    -2.328603572837     1.007825032070
           H          2.336432202611    -0.087289384587     1.008396427163     1.007825032070
           H          1.740432202611    -2.022289384587    -3.450603572837     1.007825032070
           H          4.198432202611    -1.129289384587    -0.269603572837     1.007825032070
           H         -3.313567797389     1.727710615413     3.092396427163     1.007825032070

  Nuclear repulsion =  698.587482949179275
  Reference energy  = -551.285486653676799

  ==> Basis Set <==

  Basis Set: AUG-CC-PVTZ
    Blend: AUG-CC-PVTZ
    Number of shells: 263
    Number of basis function: 805
    Number of Cartesian functions: 940
    Spherical Harmonics?: true
    Max angular momentum: 3

  ==> CGRSolver (by Rob Parrish) <==

   Number of roots    =         1
   Preconditioning    =    JACOBI
   Convergence cutoff =     1E-06
   Maximum iterations =       100

  ==> CPHFRHamiltonian (by Rob Parrish) <== 

  ==> DFJK: Density-Fitted J/K Matrices <==

    J tasked:                  Yes
    K tasked:                  Yes
    wK tasked:                  No
    OpenMP threads:              8
    Integrals threads:           8
    Memory (MB):              3576
    Algorithm:                Disk
    Integral Cache:           NONE
    Schwarz Cutoff:          1E-12
    Fitting Condition:       1E-12

   => Auxiliary Basis Set <=

  Basis Set: (AUG-CC-PVTZ AUX)
    Blend: AUG-CC-PVTZ-JKFIT
    Number of shells: 516
    Number of basis function: 1766
    Number of Cartesian functions: 2198
    Spherical Harmonics?: true
    Max angular momentum: 4

  ==> CPHF Iterations <==

  => Iterations <=

             Iter  Converged  Remaining    Residual
  CGR           1          0          1   9.187E-02
  CGR           2          0          1   3.820E-02
  CGR           3          0          1   2.662E-02
  CGR           4          0          1   1.057E-02
  CGR           5          0          1   4.216E-03
  CGR           6          0          1   1.781E-03
  CGR           7          0          1   5.010E-04
  CGR           8          0          1   1.578E-04
  CGR           9          0          1   7.758E-05
  CGR          10          0          1   3.647E-05
  CGR          11          0          1   1.414E-05
  CGR          12          0          1   5.036E-06
  CGR          13          0          1   1.496E-06
  CGR          14          1          0   4.874E-07

    CGRSolver converged.

  ==> DFCorrGrad: Density-Fitted Correlated Gradients <==

    OpenMP threads:              8
    Integrals threads:           8
    Memory (MB):              3576
    Schwarz Cutoff:          0E+00
    Fitting Condition:       1E-12

   => Auxiliary Basis Set <=

  Basis Set: (AUG-CC-PVTZ AUX)
    Blend: AUG-CC-PVTZ-JKFIT
    Number of shells: 516
    Number of basis function: 1766
    Number of Cartesian functions: 2198
    Spherical Harmonics?: true
    Max angular momentum: 4

	-----------------------------------------------------------
	 ==================> DF-MP2 Energies <==================== 
	-----------------------------------------------------------
	 Reference Energy          =    -551.2854866536767986 [Eh]
	 Singles Energy            =      -0.0000000000000001 [Eh]
	 Same-Spin Energy          =      -0.6052540303096838 [Eh]
	 Opposite-Spin Energy      =      -1.8311136076449794 [Eh]
	 Correlation Energy        =      -2.4363676379546630 [Eh]
	 Total Energy              =    -553.7218542916314163 [Eh]
	-----------------------------------------------------------
	 ================> DF-SCS-MP2 Energies <================== 
	-----------------------------------------------------------
	 SCS Same-Spin Scale       =       0.3333333333333333 [-]
	 SCS Opposite-Spin Scale   =       1.2000000000000000 [-]
	 SCS Same-Spin Energy      =      -0.2017513434365613 [Eh]
	 SCS Opposite-Spin Energy  =      -2.1973363291739751 [Eh]
	 SCS Correlation Energy    =      -2.3990876726105363 [Eh]
	 SCS Total Energy          =    -553.6845743262873611 [Eh]
	-----------------------------------------------------------


  -Total Gradient:
     Atom            X                  Y                   Z
    ------   -----------------  -----------------  -----------------
       1        0.009426282598    -0.002675726784    -0.009675183459
       2        0.008482527928    -0.006903899190    -0.005273587345
       3        0.001799197712    -0.000552788518     0.002662086469
       4       -0.007000757434     0.003338921901     0.007037065495
       5       -0.009919296433     0.001492840003     0.002169108866
       6       -0.005140586671     0.006560955920     0.007354334804
       7       -0.012636905070     0.002071588742    -0.000211321335
       8       -0.003004319704     0.006484448382     0.010491135241
       9        0.002376248050    -0.001216792915    -0.001891217411
      10        0.004361956011    -0.002020148408    -0.002297881787
      11       -0.006958917171     0.003993451660    -0.008209237641
      12        0.012373437041    -0.006734997755    -0.007994957996
      13        0.005626405539    -0.003056139694     0.000668490561
      14       -0.001035588471    -0.001260369755    -0.006631069813
      15        0.005282281033    -0.000977426973     0.004303224241
      16       -0.002882251885     0.001371302583    -0.005225995170
      17        0.001021555152    -0.000353137659     0.003718186951
      18       -0.004523153364     0.001290689789    -0.003915444518
      19        0.001064007382     0.000259437923     0.005510633969
      20        0.000485172543    -0.001050273784    -0.002843114910
      21        0.002454550640    -0.000645310435     0.000622472735
      22       -0.001651845427     0.000583374972     0.009632272045


*** tstop() called on gpu-1-6.local at Sun Nov 12 13:31:15 2017
Module time:
	user time   =    5222.96 seconds =      87.05 minutes
	system time =     110.38 seconds =       1.84 minutes
	total time  =       2365 seconds =      39.42 minutes
Total time:
	user time   =    5222.96 seconds =      87.05 minutes
	system time =     110.38 seconds =       1.84 minutes
	total time  =       2365 seconds =      39.42 minutes

			-----------------------------------------
			 OPTKING 2.0: for geometry optimizations 
			  - R.A. King,  Bethel University        
			-----------------------------------------

	Internal coordinates to be generated automatically.
	Detected frag 1 with atoms:  1 2 3 4 5 6 7 8 9 10 11 12 13 14 15 16 17 18 19 20
	 21 22
	---Fragment 1 Bond Connectivity---
	 1 : 3 9 14
	 2 : 4 9 15
	 3 : 1 11 16
	 4 : 2 11 17
	 5 : 7 10 18
	 6 : 8 10 19
	 7 : 5 12 20
	 8 : 6 12 21
	 9 : 1 2 10
	 10 : 5 6 9
	 11 : 3 4 13
	 12 : 7 8
	 13 : 11 22
	 14 : 1
	 15 : 2
	 16 : 3
	 17 : 4
	 18 : 5
	 19 : 6
	 20 : 7
	 21 : 8
	 22 : 13

	Assuming in current code that numbering for constraints corresponds to unified fragment.
	Fixed dihedral atom list: 
	     1     9    10     5
	---Fragment 1 Geometry and Gradient---
	 C          -2.3688998261        1.3411586967       -1.1160790058
	 C          -0.4924017761        0.1770873989        2.8788020392
	 C          -4.4060245973        2.4239717709        0.1557066817
	 C          -2.5295265474        1.2599004730        4.1524774527
	 C           1.3670887386       -1.9412955961       -3.4668983151
	 C           4.0807354655       -0.9529688286        0.0423231137
	 C           3.4514566632       -2.9919833260       -4.6517566004
	 C           6.0441609175       -2.0490099857       -1.2993824407
	 C          -0.4111435524        0.2167716477        0.2445238099
	 C           1.7034599903       -0.9057256753       -1.0745050308
	 C          -4.4872828210        2.3842875221        2.7899849109
	 N           5.7890478896       -3.0732415497       -3.6256353102
	 O          -6.4752747128        3.4425341565        4.0315349802
	 H          -2.3329950295        1.3865121239       -3.1702113122
	 H           1.0193791302       -0.6921866223        3.9672842917
	 H          -5.9253644082        3.2970252443       -0.9157680357
	 H          -2.5824388791        1.2239956765        6.2047200330
	 H          -0.4602764319       -1.9375161438       -4.4004230247
	 H           4.4152169910       -0.1649530312        1.9055930807
	 H           3.2889402158       -3.8215730983       -6.5206957458
	 H           7.9338870504       -2.1340476616       -0.5094769171
	 H          -6.2617356598        3.2648999000        5.8437823417
	             0.0094262826       -0.0026757268       -0.0096751835
	             0.0084825279       -0.0069038992       -0.0052735873
	             0.0017991977       -0.0005527885        0.0026620865
	            -0.0070007574        0.0033389219        0.0070370655
	            -0.0099192964        0.0014928400        0.0021691089
	            -0.0051405867        0.0065609559        0.0073543348
	            -0.0126369051        0.0020715887       -0.0002113213
	            -0.0030043197        0.0064844484        0.0104911352
	             0.0023762480       -0.0012167929       -0.0018912174
	             0.0043619560       -0.0020201484       -0.0022978818
	            -0.0069589172        0.0039934517       -0.0082092376
	             0.0123734370       -0.0067349978       -0.0079949580
	             0.0056264055       -0.0030561397        0.0006684906
	            -0.0010355885       -0.0012603698       -0.0066310698
	             0.0052822810       -0.0009774270        0.0043032242
	            -0.0028822519        0.0013713026       -0.0052259952
	             0.0010215552       -0.0003531377        0.0037181870
	            -0.0045231534        0.0012906898       -0.0039154445
	             0.0010640074        0.0002594379        0.0055106340
	             0.0004851725       -0.0010502738       -0.0028431149
	             0.0024545506       -0.0006453104        0.0006224727
	            -0.0016518454        0.0005833750        0.0096322720

	Previous optimization step data not found.  Starting new optimization.

	---Fragment 1 Intrafragment Coordinates---
	 - Coordinate -           - BOHR/RAD -       - ANG/DEG -
	 R(1,3)           =         2.634350	       1.394038
	 R(1,9)           =         2.635962	       1.394891
	 R(1,14)          =         2.054947	       1.087431
	 R(2,4)           =         2.635263	       1.394521
	 R(2,9)           =         2.635830	       1.394821
	 R(2,15)          =         2.055702	       1.087831
	 R(3,11)          =         2.635830	       1.394821
	 R(3,16)          =         2.053941	       1.086899
	 R(4,11)          =         2.636938	       1.395407
	 R(4,17)          =         2.053239	       1.086527
	 R(5,7)           =         2.617713	       1.385234
	 R(5,10)          =         2.628516	       1.390951
	 R(5,18)          =         2.052010	       1.085877
	 R(6,8)           =         2.618496	       1.385648
	 R(6,10)          =         2.626971	       1.390133
	 R(6,19)          =         2.050517	       1.085087
	 R(7,12)          =         2.554185	       1.351616
	 R(7,20)          =         2.051235	       1.085467
	 R(8,12)          =         2.554523	       1.351795
	 R(8,21)          =         2.049938	       1.084781
	 R(9,10)          =         2.733384	       1.446444
	 R(11,13)         =         2.571662	       1.360865
	 R(13,22)         =         1.833410	       0.970199
	 B(1,3,11)        =         2.094553	     120.009056
	 B(1,3,16)        =         2.088505	     119.662516
	 B(1,9,2)         =         2.093692	     119.959722
	 B(1,9,10)        =         2.095161	     120.043881
	 B(2,4,11)        =         2.093699	     119.960108
	 B(2,4,17)        =         2.089577	     119.723926
	 B(2,9,10)        =         2.094332	     119.996376
	 B(3,1,9)         =         2.094940	     120.031219
	 B(3,1,14)        =         2.079469	     119.144799
	 B(3,11,4)        =         2.094306	     119.994870
	 B(3,11,13)       =         2.094549	     120.008801
	 B(4,2,9)         =         2.095181	     120.045019
	 B(4,2,15)        =         2.078675	     119.099297
	 B(4,11,13)       =         2.094331	     119.996326
	 B(5,7,12)        =         2.164774	     124.032419
	 B(5,7,20)        =         2.107900	     120.773750
	 B(5,10,6)        =         2.089402	     119.713913
	 B(5,10,9)        =         2.096711	     120.132663
	 B(6,8,12)        =         2.164642	     124.024864
	 B(6,8,21)        =         2.107317	     120.740372
	 B(6,10,9)        =         2.097073	     120.153413
	 B(7,5,10)        =         2.058056	     117.917911
	 B(7,5,18)        =         2.098913	     120.258870
	 B(7,12,8)        =         2.031395	     116.390383
	 B(8,6,10)        =         2.058101	     117.920499
	 B(8,6,19)        =         2.099196	     120.275066
	 B(9,1,14)        =         2.108776	     120.823969
	 B(9,2,15)        =         2.109330	     120.855683
	 B(10,5,18)       =         2.126216	     121.823175
	 B(10,6,19)       =         2.125888	     121.804412
	 B(11,3,16)       =         2.100127	     120.328425
	 B(11,4,17)       =         2.099910	     120.315955
	 B(11,13,22)      =         1.925489	     110.322421
	 B(12,7,20)       =         2.010511	     115.193804
	 B(12,8,21)       =         2.011226	     115.234756
	 D(1,3,11,4)      =        -0.000325	      -0.018609
	 D(1,3,11,13)     =         3.140978	     179.964785
	 D(1,9,2,4)       =         0.000325	       0.018608
	 D(1,9,2,15)      =        -3.141497	    -179.994534
	 D(1,9,10,5)      =        -0.524224	     -30.035797
	 D(1,9,10,6)      =         2.616694	     149.925506
	 D(2,4,11,3)      =         0.000301	       0.017261
	 D(2,4,11,13)     =        -3.141002	    -179.966135
	 D(2,9,1,3)       =        -0.000348	      -0.019945
	 D(2,9,1,14)      =        -3.141221	    -179.978731
	 D(2,9,10,5)      =         2.618285	     150.016707
	 D(2,9,10,6)      =        -0.523983	     -30.021991
	 D(3,1,9,10)      =        -3.141025	    -179.967461
	 D(3,11,4,17)     =         3.141223	     179.978848
	 D(3,11,13,22)    =         3.140828	     179.956172
	 D(4,2,9,10)      =         3.141002	     179.966149
	 D(4,11,3,16)     =         3.141593	     180.000000
	 D(4,11,13,22)    =        -0.001055	      -0.060434
	 D(5,7,12,8)      =        -0.000601	      -0.034436
	 D(5,10,6,8)      =        -0.000342	      -0.019619
	 D(5,10,6,19)     =        -3.140989	    -179.965395
	 D(6,8,12,7)      =         0.000132	       0.007586
	 D(6,10,5,7)      =        -0.000077	      -0.004437
	 D(6,10,5,18)     =        -3.140339	    -179.928154
	 D(7,5,10,9)      =         3.140843	     179.957036
	 D(7,12,8,21)     =         3.141180	     179.976377
	 D(8,6,10,9)      =        -3.141263	    -179.981084
	 D(8,12,7,20)     =         3.139943	     179.905460
	 D(9,1,3,11)      =         0.000348	       0.019955
	 D(9,1,3,16)      =        -3.141571	    -179.998735
	 D(9,2,4,11)      =        -0.000301	      -0.017270
	 D(9,2,4,17)      =        -3.141228	    -179.979086
	 D(9,10,5,18)     =         0.000582	       0.033320
	 D(9,10,6,19)     =         0.001277	       0.073140
	 D(10,5,7,12)     =         0.000580	       0.033223
	 D(10,5,7,20)     =        -3.139908	    -179.903478
	 D(10,6,8,12)     =         0.000326	       0.018688
	 D(10,6,8,21)     =        -3.140693	    -179.948467
	 D(10,9,1,14)     =         0.001287	       0.073752
	 D(10,9,2,15)     =        -0.000820	      -0.046992
	 D(11,3,1,14)     =         3.141234	     179.979432
	 D(11,4,2,15)     =         3.141517	     179.995641
	 D(12,7,5,18)     =         3.140863	     179.958182
	 D(12,8,6,19)     =         3.140988	     179.965328
	 D(13,11,3,16)    =        -0.000286	      -0.016400
	 D(13,11,4,17)    =        -0.000079	      -0.004548
	 D(14,1,3,16)     =        -0.000685	      -0.039257
	 D(15,2,4,17)     =         0.000590	       0.033826
	 D(18,5,7,20)     =         0.000375	       0.021481
	 D(19,6,8,21)     =        -0.000032	      -0.001827

	Current energy   :      -553.7218542916

	Generating empirical Hessian (Schlegel '84) for each fragment.
	Adding user-defined constraint: Fragment 1; Coordinate 63:
		Value =    -0.524224; Fixed value    =    -0.523599
		Force =     0.000312; Force constant =     0.500000
	Removing off-diagonal coupling between coordinate 63 and others.
	Taking RFO optimization step.
	Going to follow RFO solution 1.
	Using RFO vector 1.

	Determining step-restricting scale parameter for RS-RFO.
	Maximum step size allowed    0.10000

	 Iter      |step|        alpha        rfo_root  
	------------------------------------------------
	    0     0.22362       1.00000           1
	    1     0.16776       4.42559           1
	    2     0.13291      13.03544           1
	    3     0.11069      26.98484           1
	    4     0.10159      36.49557           1
	    5     0.10004      38.43306           1
	    6     0.10000      38.48890           1
	------------------------------------------------
	Norm of target step-size    0.10000
	Projected energy change by RFO approximation:        -0.0047231831

	Back-transformation to cartesian coordinates...
	Could not converge backtransformation.
	Using first guess instead.

	--- Internal Coordinate Step in ANG or DEG, aJ/ANG or AJ/DEG ---
	 ---------------------------------------------------------------------------
	   Coordinate                Previous        Force       Change         New 
	   ----------                --------       ------       ------       ------
	    1 R(1,3)          =      1.394038    -0.060265    -0.005967     1.388071
	    2 R(1,9)          =      1.394891     0.000177     0.000281     1.395172
	    3 R(1,14)         =      1.087431    -0.054231    -0.006452     1.080979
	    4 R(2,4)          =      1.394521    -0.062666    -0.006142     1.388379
	    5 R(2,9)          =      1.394821    -0.011402    -0.000909     1.393912
	    6 R(2,15)         =      1.087831    -0.054182    -0.006463     1.081368
	    7 R(3,11)         =      1.394821    -0.085590    -0.008591     1.386230
	    8 R(3,16)         =      1.086899    -0.044828    -0.005319     1.081580
	    9 R(4,11)         =      1.395407    -0.039494    -0.004002     1.391406
	   10 R(4,17)         =      1.086527    -0.030453    -0.003625     1.082902
	   11 R(5,7)          =      1.385234     0.001541     0.000144     1.385379
	   12 R(5,10)         =      1.390951     0.004372     0.000936     1.391887
	   13 R(5,18)         =      1.085877    -0.047881    -0.005677     1.080200
	   14 R(6,8)          =      1.385648    -0.000820    -0.000094     1.385554
	   15 R(6,10)         =      1.390133     0.009687     0.001585     1.391718
	   16 R(6,19)         =      1.085087    -0.043506    -0.005113     1.079975
	   17 R(7,12)         =      1.351616    -0.122653    -0.011050     1.340567
	   18 R(7,20)         =      1.085467    -0.024525    -0.002898     1.082569
	   19 R(8,12)         =      1.351795    -0.124929    -0.011267     1.340528
	   20 R(8,21)         =      1.084781    -0.020838    -0.002463     1.082318
	   21 R(9,10)         =      1.446444     0.153730     0.017229     1.463673
	   22 R(11,13)        =      1.360865    -0.007274    -0.000239     1.360626
	   23 R(13,22)        =      0.970199    -0.076392    -0.006785     0.963414
	   24 B(1,3,11)       =    120.009056    -0.000012    -0.076224   119.932832
	   25 B(1,3,16)       =    119.662516     0.000224     0.514306   120.176822
	   26 B(1,9,2)        =    119.959722    -0.000807    -1.368981   118.590741
	   27 B(1,9,10)       =    120.043881     0.000413     0.701454   120.745335
	   28 B(2,4,11)       =    119.960108     0.000133     0.213404   120.173512
	   29 B(2,4,17)       =    119.723926     0.000021     0.083626   119.807553
	   30 B(2,9,10)       =    119.996376     0.000395     0.667498   120.663875
	   31 B(3,1,9)        =    120.031219     0.000506     0.932263   120.963482
	   32 B(3,1,14)       =    119.144799    -0.000227    -0.412860   118.731939
	   33 B(3,11,4)       =    119.994870    -0.000120    -0.269718   119.725152
	   34 B(3,11,13)      =    120.008801    -0.000825    -1.392817   118.615985
	   35 B(4,2,9)        =    120.045019     0.000300     0.569212   120.614231
	   36 B(4,2,15)       =    119.099297    -0.000079    -0.131481   118.967816
	   37 B(4,11,13)      =    119.996326     0.000944     1.662536   121.658862
	   38 B(5,7,12)       =    124.032419     0.000044     0.007275   124.039694
	   39 B(5,7,20)       =    120.773750    -0.000074    -0.117052   120.656697
	   40 B(5,10,6)       =    119.713913    -0.001213    -1.987884   117.726028
	   41 B(5,10,9)       =    120.132663     0.000599     0.979728   121.112391
	   42 B(6,8,12)       =    124.024864     0.000043     0.000273   124.025137
	   43 B(6,8,21)       =    120.740372    -0.000067    -0.099159   120.641213
	   44 B(6,10,9)       =    120.153413     0.000614     1.007970   121.161383
	   45 B(7,5,10)       =    117.917911     0.000532     1.036068   118.953979
	   46 B(7,5,18)       =    120.258870    -0.000214    -0.405402   119.853467
	   47 B(7,12,8)       =    116.390383     0.000057    -0.099911   116.290472
	   48 B(8,6,10)       =    117.920499     0.000537     1.044149   118.964649
	   49 B(8,6,19)       =    120.275066    -0.000221    -0.422488   119.852578
	   50 B(9,1,14)       =    120.823969    -0.000279    -0.519824   120.304145
	   51 B(9,2,15)       =    120.855683    -0.000221    -0.438399   120.417283
	   52 B(10,5,18)      =    121.823175    -0.000318    -0.630907   121.192268
	   53 B(10,6,19)      =    121.804412    -0.000316    -0.621942   121.182470
	   54 B(11,3,16)      =    120.328425    -0.000212    -0.438128   119.890297
	   55 B(11,4,17)      =    120.315955    -0.000154    -0.297027   120.018928
	   56 B(11,13,22)     =    110.322421    -0.000438    -0.950898   109.371523
	   57 B(12,7,20)      =    115.193804     0.000030     0.109778   115.303582
	   58 B(12,8,21)      =    115.234756     0.000024     0.098806   115.333563
	   59 D(1,3,11,4)     =     -0.018609     0.000001     0.015491    -0.003118
	   60 D(1,3,11,13)    =    179.964785     0.000002     0.039511   180.004296
	   61 D(1,9,2,4)      =      0.018608    -0.000000    -0.021092    -0.002484
	   62 D(1,9,2,15)     =   -179.994534    -0.000018    -0.308828  -180.303361
	   63 D(1,9,10,5)     =    -30.035797    -0.000014    -0.121191   -30.156987
	   64 D(1,9,10,6)     =    149.925506    -0.000019    -0.247716   149.677790
	   65 D(2,4,11,3)     =      0.017261     0.000002     0.041839     0.059101
	   66 D(2,4,11,13)    =   -179.966135     0.000001     0.017590  -179.948545
	   67 D(2,9,1,3)      =     -0.019945     0.000004     0.078967     0.059022
	   68 D(2,9,1,14)     =   -179.978731    -0.000014    -0.205060  -180.183791
	   69 D(2,9,10,5)     =    150.016707    -0.000020    -0.255343   149.761363
	   70 D(2,9,10,6)     =    -30.021991    -0.000025    -0.381869   -30.403859
	   71 D(3,1,9,10)     =   -179.967461    -0.000002    -0.053503  -180.020965
	   72 D(3,11,4,17)    =    179.978848     0.000007     0.112711   180.091559
	   73 D(3,11,13,22)   =    179.956172    -0.000000    -0.008033   179.948139
	   74 D(4,2,9,10)     =    179.966149     0.000005     0.111286   180.077435
	   75 D(4,11,3,16)    =    180.000000     0.000005     0.077392   180.077392
	   76 D(4,11,13,22)   =     -0.060434     0.000001     0.016137    -0.044297
	   77 D(5,7,12,8)     =     -0.034436     0.000000    -0.003099    -0.037535
	   78 D(5,10,6,8)     =     -0.019619    -0.000002    -0.051595    -0.071214
	   79 D(5,10,6,19)    =   -179.965395    -0.000018    -0.306481  -180.271877
	   80 D(6,8,12,7)     =      0.007586     0.000001     0.013126     0.020712
	   81 D(6,10,5,7)     =     -0.004437     0.000003     0.060419     0.055982
	   82 D(6,10,5,18)    =   -179.928154    -0.000014    -0.210358  -180.138511
	   83 D(7,5,10,9)     =    179.957036    -0.000002    -0.060776   179.896260
	   84 D(7,12,8,21)    =    179.976377     0.000009     0.151553   180.127930
	   85 D(8,6,10,9)     =   -179.981084     0.000003     0.069674  -179.911410
	   86 D(8,12,7,20)    =    179.905460     0.000008     0.116934   180.022394
	   87 D(9,1,3,11)     =      0.019955    -0.000004    -0.076527    -0.056572
	   88 D(9,1,3,16)     =   -179.998735    -0.000008    -0.138580  -180.137315
	   89 D(9,2,4,11)     =     -0.017270    -0.000003    -0.039088    -0.056358
	   90 D(9,2,4,17)     =   -179.979086    -0.000007    -0.109663  -180.088748
	   91 D(9,10,5,18)    =      0.033320    -0.000019    -0.331553    -0.298233
	   92 D(9,10,6,19)    =      0.073140    -0.000013    -0.185212    -0.112072
	   93 D(10,5,7,12)    =      0.033223    -0.000002    -0.034254    -0.001032
	   94 D(10,5,7,20)    =   -179.903478    -0.000010    -0.160535  -180.064013
	   95 D(10,6,8,12)    =      0.018688     0.000000     0.015336     0.034024
	   96 D(10,6,8,21)    =   -179.948467    -0.000008    -0.130143  -180.078610
	   97 D(10,9,1,14)    =      0.073752    -0.000019    -0.337530    -0.263778
	   98 D(10,9,2,15)    =     -0.046992    -0.000013    -0.176450    -0.223442
	   99 D(11,3,1,14)    =    179.979432     0.000013     0.203065   180.182497
	  100 D(11,4,2,15)    =    179.995641     0.000015     0.244568   180.240209
	  101 D(12,7,5,18)    =    179.958182     0.000015     0.232618   180.190800
	  102 D(12,8,6,19)    =    179.965328     0.000016     0.266631   180.231959
	  103 D(13,11,3,16)   =     -0.016400     0.000006     0.101205     0.084805
	  104 D(13,11,4,17)   =     -0.004548     0.000006     0.088462     0.083914
	  105 D(14,1,3,16)    =     -0.039257     0.000009     0.141012     0.101755
	  106 D(15,2,4,17)    =      0.033826     0.000011     0.173994     0.207819
	  107 D(18,5,7,20)    =      0.021481     0.000007     0.106337     0.127819
	  108 D(19,6,8,21)    =     -0.001827     0.000008     0.121153     0.119325
	 ---------------------------------------------------------------------------
	Successfully symmetrized geometry.
	 Forces used to impose fixed constraints are not included.
	  Forces zeroed: 63 

  ==> Convergence Check <==

  Measures of convergence in internal coordinates in au.
  Criteria marked as inactive (o), active & met (*), and active & unmet ( ).
  --------------------------------------------------------------------------------------------- ~
   Step     Total Energy     Delta E     MAX Force     RMS Force      MAX Disp      RMS Disp    ~
  --------------------------------------------------------------------------------------------- ~
    Convergence Criteria    1.00e-06 *    3.00e-04 *             o    1.20e-03 *             o  ~
  --------------------------------------------------------------------------------------------- ~
      1    -553.72185429   -5.54e+02      1.87e-02      4.79e-03 o    3.47e-02      9.62e-03 o  ~
  ---------------------------------------------------------------------------------------------

	Writing optimization data to binary file.
	Structure for next step:
	Cartesian Geometry (in Angstrom)
	    C    -1.2673944175   0.7196006417  -0.5623783202
	    C    -0.2786371554   0.1009741430   1.5329669596
	    C    -2.3417207744   1.2908529844   0.1056296546
	    C    -1.3520972881   0.6702782381   2.2046613341
	    C     0.7490793426  -1.0372797560  -1.8358125889
	    C     2.1780300659  -0.5169245284  -0.0016852563
	    C     1.8499110888  -1.5927683356  -2.4673790323
	    C     3.2157866502  -1.0957680299  -0.7142593300
	    C    -0.2226870160   0.1184762616   0.1402885499
	    C     0.9076439488  -0.4828639586  -0.5689935417
	    C    -2.3864763400   1.2674974604   1.4909397844
	    N     3.0791802498  -1.6343844035  -1.9341959852
	    O    -3.4520962108   1.8352462749   2.1181708725
	    H    -1.2508509273   0.7514269751  -1.6427620494
	    H     0.5126432050  -0.3614209940   2.1069198746
	    H    -3.1437171652   1.7554905337  -0.4518002627
	    H    -1.3829283620   0.6480319168   3.2868960537
	    H    -0.2126784906  -1.0430999731  -2.3275648956
	    H     2.3650013517  -0.0990835998   0.9764741061
	    H     1.7576597652  -2.0323592061  -3.4523686924
	    H     4.2146985620  -1.1358052370  -0.2995502510
	    H    -3.3478416252   1.7435161314   3.0715244136
			--------------------------
			 OPTKING Finished Execution 
			--------------------------

    Structure for next step:
    Molecular point group: c1
    Full point group: C1

    Geometry (in Angstrom), charge = 0, multiplicity = 1:

    C           -1.267554760406     0.719591442924    -0.562148587074
    C           -0.278797498310     0.100964944212     1.533196692710
    C           -2.341881117371     1.290843785568     0.105859387734
    C           -1.352257631044     0.670269039327     2.204891067245
    C            0.748918999649    -1.037288954810    -1.835582855806
    C            2.177869722947    -0.516933727177    -0.001455523144
    C            1.849750745856    -1.592777534342    -2.467149299152
    C            3.215626307228    -1.095777228641    -0.714029596870
    C           -0.222847358895     0.118467062812     0.140518283048
    C            0.907483605905    -0.482873157400    -0.568763808590
    C           -2.386636682927     1.267488261574     1.491169517512
    N            3.079019906853    -1.634393602299    -1.933966252043
    O           -3.452256553713     1.835237076137     2.118400605635
    H           -1.251011270256     0.751417776358    -1.642532316295
    H            0.512482862022    -0.361430192758     2.107149607739
    H           -3.143877508124     1.755481334900    -0.451570529541
    H           -1.383088704960     0.648022718026     3.287125786800
    H           -0.212838833583    -1.043109171920    -2.327335162483
    H            2.364841008771    -0.099092798616     0.976703839200
    H            1.757499422240    -2.032368404835    -3.452138959305
    H            4.214538219043    -1.135814435748    -0.299320517862
    H           -3.348001968191     1.743506932568     3.071754146751

gradient() will perform analytic gradient computation.

*** tstart() called on gpu-1-6.local
*** at Sun Nov 12 13:31:17 2017

    SCF Algorithm Type (re)set to DF.

*** tstart() called on gpu-1-6.local
*** at Sun Nov 12 13:31:17 2017

   => Loading Basis Set <=

    Name: AUG-CC-PVTZ
    Role: ORBITAL
    Keyword: BASIS
    atoms 1-11  entry C          line   221 file /cbio/jclab/home/chayas/anaconda/envs/py35/share/psi4/basis/aug-cc-pvtz.gbs 
    atoms 12    entry N          line   267 file /cbio/jclab/home/chayas/anaconda/envs/py35/share/psi4/basis/aug-cc-pvtz.gbs 
    atoms 13    entry O          line   313 file /cbio/jclab/home/chayas/anaconda/envs/py35/share/psi4/basis/aug-cc-pvtz.gbs 
    atoms 14-22 entry H          line    34 file /cbio/jclab/home/chayas/anaconda/envs/py35/share/psi4/basis/aug-cc-pvtz.gbs 


         ---------------------------------------------------------
                                   SCF
            by Justin Turney, Rob Parrish, and Andy Simmonett
                              RHF Reference
                        8 Threads,   4768 MiB Core
         ---------------------------------------------------------

  ==> Geometry <==

    Molecular point group: c1
    Full point group: C1

    Geometry (in Angstrom), charge = 0, multiplicity = 1:

       Center              X                  Y                   Z               Mass       
    ------------   -----------------  -----------------  -----------------  -----------------
           C         -1.267554760406     0.719591442924    -0.562148587074    12.000000000000
           C         -0.278797498310     0.100964944212     1.533196692710    12.000000000000
           C         -2.341881117371     1.290843785568     0.105859387734    12.000000000000
           C         -1.352257631044     0.670269039327     2.204891067245    12.000000000000
           C          0.748918999649    -1.037288954810    -1.835582855806    12.000000000000
           C          2.177869722947    -0.516933727177    -0.001455523144    12.000000000000
           C          1.849750745856    -1.592777534342    -2.467149299152    12.000000000000
           C          3.215626307228    -1.095777228641    -0.714029596870    12.000000000000
           C         -0.222847358895     0.118467062812     0.140518283048    12.000000000000
           C          0.907483605905    -0.482873157400    -0.568763808590    12.000000000000
           C         -2.386636682927     1.267488261574     1.491169517512    12.000000000000
           N          3.079019906853    -1.634393602299    -1.933966252043    14.003074004780
           O         -3.452256553713     1.835237076137     2.118400605635    15.994914619560
           H         -1.251011270256     0.751417776358    -1.642532316295     1.007825032070
           H          0.512482862022    -0.361430192758     2.107149607739     1.007825032070
           H         -3.143877508124     1.755481334900    -0.451570529541     1.007825032070
           H         -1.383088704960     0.648022718026     3.287125786800     1.007825032070
           H         -0.212838833583    -1.043109171920    -2.327335162483     1.007825032070
           H          2.364841008771    -0.099092798616     0.976703839200     1.007825032070
           H          1.757499422240    -2.032368404835    -3.452138959305     1.007825032070
           H          4.214538219043    -1.135814435748    -0.299320517862     1.007825032070
           H         -3.348001968191     1.743506932568     3.071754146751     1.007825032070

  Running in c1 symmetry.

  Rotational constants: A =      0.09839  B =      0.01335  C =      0.01195 [cm^-1]
  Rotational constants: A =   2949.76766  B =    400.30274  C =    358.32004 [MHz]
  Nuclear repulsion =  697.807856745837398

  Charge       = 0
  Multiplicity = 1
  Electrons    = 90
  Nalpha       = 45
  Nbeta        = 45

  ==> Algorithm <==

  SCF Algorithm Type is DF.
  DIIS enabled.
  MOM disabled.
  Fractional occupation disabled.
  Guess Type is READ.
  Energy threshold   = 1.00e-10
  Density threshold  = 1.00e-10
  Integral threshold = 0.00e+00

  ==> Primary Basis <==

  Basis Set: AUG-CC-PVTZ
    Blend: AUG-CC-PVTZ
    Number of shells: 263
    Number of basis function: 805
    Number of Cartesian functions: 940
    Spherical Harmonics?: true
    Max angular momentum: 3

   => Loading Basis Set <=

    Name: (AUG-CC-PVTZ AUX)
    Role: JKFIT
    Keyword: DF_BASIS_SCF
    atoms 1-11  entry C          line   161 file /cbio/jclab/home/chayas/anaconda/envs/py35/share/psi4/basis/aug-cc-pvtz-jkfit.gbs 
    atoms 12    entry N          line   223 file /cbio/jclab/home/chayas/anaconda/envs/py35/share/psi4/basis/aug-cc-pvtz-jkfit.gbs 
    atoms 13    entry O          line   285 file /cbio/jclab/home/chayas/anaconda/envs/py35/share/psi4/basis/aug-cc-pvtz-jkfit.gbs 
    atoms 14-22 entry H          line    69 file /cbio/jclab/home/chayas/anaconda/envs/py35/share/psi4/basis/aug-cc-pvtz-jkfit.gbs 

  Reading orbitals from file 180, no projection.

  ==> Pre-Iterations <==

   -------------------------------------------------------
    Irrep   Nso     Nmo     Nalpha   Nbeta   Ndocc  Nsocc
   -------------------------------------------------------
     A        805     805       0       0       0       0
   -------------------------------------------------------
    Total     805     805      45      45      45       0
   -------------------------------------------------------

  ==> Integral Setup <==

  ==> DFJK: Density-Fitted J/K Matrices <==

    J tasked:                  Yes
    K tasked:                  Yes
    wK tasked:                  No
    OpenMP threads:              8
    Integrals threads:           8
    Memory (MB):              3576
    Algorithm:                Disk
    Integral Cache:           NONE
    Schwarz Cutoff:          1E-12
    Fitting Condition:       1E-12

   => Auxiliary Basis Set <=

  Basis Set: (AUG-CC-PVTZ AUX)
    Blend: AUG-CC-PVTZ-JKFIT
    Number of shells: 516
    Number of basis function: 1766
    Number of Cartesian functions: 2198
    Spherical Harmonics?: true
    Max angular momentum: 4

  Minimum eigenvalue in the overlap matrix is 5.4054435073E-07.
  Using Symmetric Orthogonalization.

  SCF Guess: Orbitals guess was supplied from a previous computation.

  ==> Iterations <==

                           Total Energy        Delta E     RMS |[F,P]|

   @DF-RHF iter   0:  -551.43791309345636   -5.51438e+02   4.98672e-04 
   @DF-RHF iter   1:  -551.28971015062166    1.48203e-01   1.83260e-04 
   @DF-RHF iter   2:  -551.29065332549135   -9.43175e-04   1.33736e-04 DIIS
   @DF-RHF iter   3:  -551.29153210463460   -8.78779e-04   1.80089e-05 DIIS
   @DF-RHF iter   4:  -551.29154640182651   -1.42972e-05   3.56896e-06 DIIS
   @DF-RHF iter   5:  -551.29154859770983   -2.19588e-06   1.15328e-06 DIIS
   @DF-RHF iter   6:  -551.29154889642837   -2.98719e-07   9.18828e-07 DIIS
   @DF-RHF iter   7:  -551.29154900767219   -1.11244e-07   2.54305e-07 DIIS
   @DF-RHF iter   8:  -551.29154904416714   -3.64950e-08   1.43697e-07 DIIS
   @DF-RHF iter   9:  -551.29154904995085   -5.78370e-09   5.88402e-08 DIIS
   @DF-RHF iter  10:  -551.29154905049313   -5.42286e-10   1.31257e-08 DIIS
   @DF-RHF iter  11:  -551.29154905055589   -6.27551e-11   6.12090e-09 DIIS
   @DF-RHF iter  12:  -551.29154905054429    1.15961e-11   2.84670e-09 DIIS
   @DF-RHF iter  13:  -551.29154905058033   -3.60387e-11   1.62982e-09 DIIS
   @DF-RHF iter  14:  -551.29154905058124   -9.09495e-13   8.07957e-10 DIIS
   @DF-RHF iter  15:  -551.29154905057567    5.57066e-12   2.92464e-10 DIIS
   @DF-RHF iter  16:  -551.29154905057385    1.81899e-12   8.77769e-11 DIIS

  ==> Post-Iterations <==

    Orbital Energies (a.u.)
    -----------------------

    Doubly Occupied:                                                      

       1A    -20.602028     2A    -15.559761     3A    -11.314507  
       4A    -11.271810     5A    -11.271688     6A    -11.265317  
       7A    -11.254183     8A    -11.252312     9A    -11.246546  
      10A    -11.244764    11A    -11.239101    12A    -11.235284  
      13A    -11.235095    14A     -1.419365    15A     -1.254165  
      16A     -1.174900    17A     -1.104806    18A     -1.039556  
      19A     -1.029590    20A     -1.012335    21A     -0.882126  
      22A     -0.873136    23A     -0.842299    24A     -0.812354  
      25A     -0.750388    26A     -0.725736    27A     -0.685410  
      28A     -0.664051    29A     -0.653075    30A     -0.634760  
      31A     -0.614560    32A     -0.607772    33A     -0.603980  
      34A     -0.592183    35A     -0.578996    36A     -0.545055  
      37A     -0.531940    38A     -0.523964    39A     -0.502703  
      40A     -0.495551    41A     -0.417187    42A     -0.397148  
      43A     -0.356556    44A     -0.347862    45A     -0.308303  

    Virtual:                                                              

      46A      0.021425    47A      0.029803    48A      0.032125  
      49A      0.039699    50A      0.042685    51A      0.045478  
      52A      0.055191    53A      0.057127    54A      0.063404  
      55A      0.078104    56A      0.078950    57A      0.084191  
      58A      0.088578    59A      0.093441    60A      0.097016  
      61A      0.102314    62A      0.103916    63A      0.108522  
      64A      0.109752    65A      0.111748    66A      0.114943  
      67A      0.119289    68A      0.122020    69A      0.127207  
      70A      0.129984    71A      0.132604    72A      0.134619  
      73A      0.137107    74A      0.143750    75A      0.146303  
      76A      0.149032    77A      0.149826    78A      0.153973  
      79A      0.160201    80A      0.164177    81A      0.168073  
      82A      0.173888    83A      0.176491    84A      0.182289  
      85A      0.184583    86A      0.186971    87A      0.201135  
      88A      0.204364    89A      0.214569    90A      0.216453  
      91A      0.221951    92A      0.222610    93A      0.226195  
      94A      0.236597    95A      0.240124    96A      0.242714  
      97A      0.246225    98A      0.250576    99A      0.252771  
     100A      0.256075   101A      0.257454   102A      0.263527  
     103A      0.265917   104A      0.272923   105A      0.275152  
     106A      0.277416   107A      0.285028   108A      0.289115  
     109A      0.292531   110A      0.298897   111A      0.300921  
     112A      0.302717   113A      0.306903   114A      0.312557  
     115A      0.316366   116A      0.318620   117A      0.326021  
     118A      0.327503   119A      0.328458   120A      0.333476  
     121A      0.339848   122A      0.344224   123A      0.356043  
     124A      0.357463   125A      0.361882   126A      0.365929  
     127A      0.371530   128A      0.374650   129A      0.386500  
     130A      0.391239   131A      0.396690   132A      0.398312  
     133A      0.403268   134A      0.407741   135A      0.413664  
     136A      0.419300   137A      0.426126   138A      0.427384  
     139A      0.432896   140A      0.434935   141A      0.438668  
     142A      0.439753   143A      0.444878   144A      0.447882  
     145A      0.448682   146A      0.452624   147A      0.457225  
     148A      0.462355   149A      0.466533   150A      0.467567  
     151A      0.471156   152A      0.476071   153A      0.484518  
     154A      0.487023   155A      0.490760   156A      0.491905  
     157A      0.500952   158A      0.502044   159A      0.504388  
     160A      0.509027   161A      0.510087   162A      0.511969  
     163A      0.515569   164A      0.517227   165A      0.520956  
     166A      0.526326   167A      0.529413   168A      0.532034  
     169A      0.534769   170A      0.541577   171A      0.545163  
     172A      0.548966   173A      0.549828   174A      0.553300  
     175A      0.555749   176A      0.564301   177A      0.566604  
     178A      0.578178   179A      0.580688   180A      0.585751  
     181A      0.593034   182A      0.598449   183A      0.605546  
     184A      0.612337   185A      0.613354   186A      0.622125  
     187A      0.628154   188A      0.637063   189A      0.639082  
     190A      0.645752   191A      0.656342   192A      0.659187  
     193A      0.667734   194A      0.680719   195A      0.689537  
     196A      0.691408   197A      0.696324   198A      0.703210  
     199A      0.707144   200A      0.708590   201A      0.717284  
     202A      0.720169   203A      0.729751   204A      0.731265  
     205A      0.732728   206A      0.738843   207A      0.740676  
     208A      0.748850   209A      0.755390   210A      0.763231  
     211A      0.767031   212A      0.772729   213A      0.778097  
     214A      0.797827   215A      0.801972   216A      0.803452  
     217A      0.809304   218A      0.811970   219A      0.815640  
     220A      0.824005   221A      0.830193   222A      0.834588  
     223A      0.838235   224A      0.838784   225A      0.849193  
     226A      0.855216   227A      0.857086   228A      0.866325  
     229A      0.870864   230A      0.877316   231A      0.879123  
     232A      0.882530   233A      0.884908   234A      0.888433  
     235A      0.893311   236A      0.897521   237A      0.906540  
     238A      0.910036   239A      0.912209   240A      0.918347  
     241A      0.926012   242A      0.930708   243A      0.936755  
     244A      0.940659   245A      0.947242   246A      0.952087  
     247A      0.956981   248A      0.962970   249A      0.964364  
     250A      0.970403   251A      0.972311   252A      0.979322  
     253A      0.981762   254A      0.983926   255A      0.988631  
     256A      0.996960   257A      0.998475   258A      1.004826  
     259A      1.012378   260A      1.014997   261A      1.018440  
     262A      1.021272   263A      1.026015   264A      1.030770  
     265A      1.038621   266A      1.039579   267A      1.041204  
     268A      1.047500   269A      1.048545   270A      1.055365  
     271A      1.057026   272A      1.060856   273A      1.066977  
     274A      1.076914   275A      1.077475   276A      1.084224  
     277A      1.087940   278A      1.090743   279A      1.098695  
     280A      1.099864   281A      1.103813   282A      1.106347  
     283A      1.113544   284A      1.115331   285A      1.121526  
     286A      1.122520   287A      1.125292   288A      1.135232  
     289A      1.148760   290A      1.154575   291A      1.161263  
     292A      1.161917   293A      1.165158   294A      1.170120  
     295A      1.175614   296A      1.178570   297A      1.185321  
     298A      1.188477   299A      1.193677   300A      1.201107  
     301A      1.206572   302A      1.208929   303A      1.214804  
     304A      1.217778   305A      1.217998   306A      1.224518  
     307A      1.232579   308A      1.233969   309A      1.246434  
     310A      1.252849   311A      1.256663   312A      1.268557  
     313A      1.274663   314A      1.276956   315A      1.285608  
     316A      1.291159   317A      1.296919   318A      1.299262  
     319A      1.303984   320A      1.311570   321A      1.317990  
     322A      1.325821   323A      1.335140   324A      1.338477  
     325A      1.345579   326A      1.352923   327A      1.357828  
     328A      1.369043   329A      1.378041   330A      1.390548  
     331A      1.391217   332A      1.396242   333A      1.413751  
     334A      1.424304   335A      1.432618   336A      1.439873  
     337A      1.447891   338A      1.451520   339A      1.453250  
     340A      1.460483   341A      1.464218   342A      1.476253  
[...]
	 R(8,12)          =         2.522842	       1.335031
	 R(8,21)          =         2.043086	       1.081154
	 R(9,10)          =         2.762184	       1.461685
	 R(11,13)         =         2.572965	       1.361555
	 R(13,22)         =         1.817844	       0.961961
	 B(1,3,11)        =         2.092690	     119.902330
	 B(1,3,16)        =         2.113760	     121.109512
	 B(1,9,2)         =         2.058506	     117.943699
	 B(1,9,10)        =         2.113897	     121.117389
	 B(2,4,11)        =         2.095108	     120.040874
	 B(2,4,17)        =         2.093892	     119.971169
	 B(2,9,10)        =         2.110668	     120.932393
	 B(3,1,9)         =         2.117812	     121.341673
	 B(3,1,14)        =         2.076439	     118.971174
	 B(3,11,4)        =         2.088072	     119.637731
	 B(3,11,13)       =         2.047766	     117.328350
	 B(4,2,9)         =         2.114165	     121.132760
	 B(4,2,15)        =         2.078291	     119.077299
	 B(4,11,13)       =         2.147345	     123.033833
	 B(5,7,12)        =         2.160094	     123.764287
	 B(5,7,20)        =         2.094208	     119.989269
	 B(5,10,6)        =         2.032002	     116.425166
	 B(5,10,9)        =         2.126066	     121.814631
	 B(6,8,12)        =         2.159746	     123.744356
	 B(6,8,21)        =         2.094394	     119.999916
	 B(6,10,9)        =         2.125025	     121.754959
	 B(7,5,10)        =         2.090431	     119.772846
	 B(7,5,18)        =         2.087401	     119.599288
	 B(7,12,8)        =         2.033262	     116.497324
	 B(8,6,10)        =         2.090814	     119.794797
	 B(8,6,19)        =         2.087383	     119.598225
	 B(9,1,14)        =         2.088431	     119.658298
	 B(9,2,15)        =         2.090204	     119.759855
	 B(10,5,18)       =         2.104930	     120.603584
	 B(10,6,19)       =         2.104633	     120.586601
	 B(11,3,16)       =         2.076691	     118.985633
	 B(11,4,17)       =         2.094140	     119.985368
	 B(11,13,22)      =         1.902381	     108.998396
	 B(12,7,20)       =         2.028868	     116.245557
	 B(12,8,21)       =         2.029014	     116.253930
	 D(1,3,11,4)      =        -0.000892	      -0.051099
	 D(1,3,11,13)     =        -3.140672	    -179.947256
	 D(1,9,2,4)       =        -0.003650	      -0.209158
	 D(1,9,2,15)      =         3.102798	     177.777203
	 D(1,9,10,5)      =        -0.525435	     -30.105217
	 D(1,9,10,6)      =         2.601095	     149.031794
	 D(2,4,11,3)      =         0.003310	       0.189671
	 D(2,4,11,13)     =        -3.140203	    -179.920370
	 D(2,9,1,3)       =         0.006119	       0.350591
	 D(2,9,1,14)      =         3.113256	     178.376414
	 D(2,9,10,5)      =         2.599613	     148.946863
	 D(2,9,10,6)      =        -0.557042	     -31.916127
	 D(3,1,9,10)      =         3.131647	     179.430178
	 D(3,11,4,17)     =        -3.128064	    -179.224879
	 D(3,11,13,22)    =        -3.136817	    -179.726395
	 D(4,2,9,10)      =        -3.129210	    -179.290532
	 D(4,11,3,16)     =        -3.132509	    -179.479570
	 D(4,11,13,22)    =         0.006654	       0.381266
	 D(5,7,12,8)      =        -0.001839	      -0.105395
	 D(5,10,6,8)      =        -0.007322	      -0.419529
	 D(5,10,6,19)     =         3.105498	     177.931949
	 D(6,8,12,7)      =        -0.000456	      -0.026109
	 D(6,10,5,7)      =         0.005212	       0.298630
	 D(6,10,5,18)     =         3.115397	     178.499115
	 D(7,5,10,9)      =         3.132503	     179.479210
	 D(7,12,8,21)     =        -3.133508	    -179.536782
	 D(8,6,10,9)      =        -3.134622	    -179.600639
	 D(8,12,7,20)     =        -3.137438	    -179.761937
	 D(9,1,3,11)      =        -0.003917	      -0.224403
	 D(9,1,3,16)      =         3.127485	     179.191678
	 D(9,2,4,11)      =        -0.000992	      -0.056843
	 D(9,2,4,17)      =         3.130384	     179.357790
	 D(9,10,5,18)     =        -0.040497	      -2.320304
	 D(9,10,6,19)     =        -0.021802	      -1.249161
	 D(10,5,7,12)     =        -0.000661	      -0.037893
	 D(10,5,7,20)     =         3.134724	     179.606441
	 D(10,6,8,12)     =         0.005217	       0.298893
	 D(10,6,8,21)     =         3.137965	     179.792153
	 D(10,9,1,14)     =        -0.044401	      -2.543999
	 D(10,9,2,15)     =        -0.022762	      -1.304170
	 D(11,3,1,14)     =        -3.111285	    -178.263481
	 D(11,4,2,15)     =        -3.107676	    -178.056692
	 D(12,7,5,18)     =        -3.111164	    -178.256577
	 D(12,8,6,19)     =        -3.107890	    -178.068988
	 D(13,11,3,16)    =         0.010896	       0.624273
	 D(13,11,4,17)    =         0.011608	       0.665080
	 D(14,1,3,16)     =         0.020117	       1.152600
	 D(15,2,4,17)     =         0.023701	       1.357942
	 D(18,5,7,20)     =         0.024221	       1.387756
	 D(19,6,8,21)     =         0.024858	       1.424273

	Current energy   :      -553.7256816210

	Energy change for the previous step:
		Projected    :        -0.0000009976
		Actual       :         0.0000003820

	Performing BFGS update.
	Previous computed or guess Hessian on step 1.
	Steps to be used in Hessian update: 5 4
	Adding user-defined constraint: Fragment 1; Coordinate 63:
		Value =    -0.525435; Fixed value    =    -0.523600
		Force =     0.001147; Force constant =     0.625000
	Removing off-diagonal coupling between coordinate 63 and others.
	Taking RFO optimization step.
	Going to follow RFO solution 1.
	Using RFO vector 1.
	Norm of target step-size    0.00200
	Projected energy change by RFO approximation:        -0.0000000810

	Back-transformation to cartesian coordinates...
	Successfully converged to displaced geometry.

	--- Internal Coordinate Step in ANG or DEG, aJ/ANG or AJ/DEG ---
	 ---------------------------------------------------------------------------
	   Coordinate                Previous        Force       Change         New 
	   ----------                --------       ------       ------       ------
	    1 R(1,3)          =      1.383057    -0.000104    -0.000006     1.383051
	    2 R(1,9)          =      1.395321     0.000381     0.000050     1.395371
	    3 R(1,14)         =      1.079604     0.000002     0.000005     1.079610
	    4 R(2,4)          =      1.385292     0.000258     0.000038     1.385330
	    5 R(2,9)          =      1.393397     0.000059     0.000013     1.393410
	    6 R(2,15)         =      1.079627     0.000030     0.000009     1.079635
	    7 R(3,11)         =      1.387855     0.000367     0.000050     1.387905
	    8 R(3,16)         =      1.078817     0.000119     0.000025     1.078842
	    9 R(4,11)         =      1.388283    -0.000061    -0.000005     1.388279
	   10 R(4,17)         =      1.081271     0.000032     0.000009     1.081280
	   11 R(5,7)          =      1.385435     0.000052     0.000008     1.385443
	   12 R(5,10)         =      1.392495     0.000109     0.000013     1.392508
	   13 R(5,18)         =      1.079338     0.000038     0.000010     1.079348
	   14 R(6,8)          =      1.385345     0.000017     0.000004     1.385349
	   15 R(6,10)         =      1.392541     0.000087     0.000011     1.392552
	   16 R(6,19)         =      1.079417     0.000026     0.000007     1.079424
	   17 R(7,12)         =      1.335029     0.000105     0.000018     1.335047
	   18 R(7,20)         =      1.081159     0.000023     0.000005     1.081164
	   19 R(8,12)         =      1.335031     0.000167     0.000025     1.335055
	   20 R(8,21)         =      1.081154     0.000010     0.000003     1.081157
	   21 R(9,10)         =      1.461685     0.000160     0.000027     1.461712
	   22 R(11,13)        =      1.361555     0.000141     0.000017     1.361571
	   23 R(13,22)        =      0.961961     0.000171     0.000024     0.961986
	   24 B(1,3,11)       =    119.902330     0.000000     0.001599   119.903929
	   25 B(1,3,16)       =    121.109512     0.000002     0.006322   121.115833
	   26 B(1,9,2)        =    117.943699     0.000001     0.002309   117.946008
	   27 B(1,9,10)       =    121.117389    -0.000001    -0.004168   121.113221
	   28 B(2,4,11)       =    120.040874    -0.000001    -0.003419   120.037454
	   29 B(2,4,17)       =    119.971169    -0.000000    -0.001123   119.970046
	   30 B(2,9,10)       =    120.932393     0.000001     0.001825   120.934218
	   31 B(3,1,9)        =    121.341673    -0.000001    -0.004059   121.337615
	   32 B(3,1,14)       =    118.971174     0.000002     0.005659   118.976833
	   33 B(3,11,4)       =    119.637731     0.000001     0.002423   119.640154
	   34 B(3,11,13)      =    117.328350     0.000000     0.002509   117.330858
	   35 B(4,2,9)        =    121.132760     0.000000     0.001138   121.133897
	   36 B(4,2,15)       =    119.077299    -0.000000    -0.001571   119.075728
	   37 B(4,11,13)      =    123.033833    -0.000001    -0.004928   123.028905
	   38 B(5,7,12)       =    123.764287     0.000001     0.002466   123.766753
	   39 B(5,7,20)       =    119.989269     0.000000     0.002075   119.991344
	   40 B(5,10,6)       =    116.425166    -0.000000     0.000613   116.425779
	   41 B(5,10,9)       =    121.814631    -0.000000    -0.002183   121.812448
	   42 B(6,8,12)       =    123.744356     0.000001     0.002944   123.747299
	   43 B(6,8,21)       =    119.999916     0.000000     0.002048   120.001964
	   44 B(6,10,9)       =    121.754959     0.000001     0.001516   121.756475
	   45 B(7,5,10)       =    119.772846    -0.000000    -0.000900   119.771946
	   46 B(7,5,18)       =    119.599288    -0.000000    -0.001171   119.598117
	   47 B(7,12,8)       =    116.497324    -0.000001    -0.003836   116.493488
	   48 B(8,6,10)       =    119.794797    -0.000000    -0.001357   119.793440
	   49 B(8,6,19)       =    119.598225    -0.000000    -0.000764   119.597460
	   50 B(9,1,14)       =    119.658298    -0.000000    -0.001949   119.656350
	   51 B(9,2,15)       =    119.759855    -0.000000     0.000034   119.759889
	   52 B(10,5,18)      =    120.603584     0.000000     0.001884   120.605468
	   53 B(10,6,19)      =    120.586601     0.000000     0.001886   120.588488
	   54 B(11,3,16)      =    118.985633    -0.000002    -0.008042   118.977592
	   55 B(11,4,17)      =    119.985368     0.000001     0.004475   119.989843
	   56 B(11,13,22)     =    108.998396     0.000001     0.007442   109.005838
	   57 B(12,7,20)      =    116.245557    -0.000001    -0.004827   116.240730
	   58 B(12,8,21)      =    116.253930    -0.000001    -0.005369   116.248561
	   59 D(1,3,11,4)     =     -0.051099     0.000000    -0.000418    -0.051516
	   60 D(1,3,11,13)    =   -179.947256    -0.000000    -0.002563  -179.949819
	   61 D(1,9,2,4)      =     -0.209158     0.000000    -0.001656    -0.210814
	   62 D(1,9,2,15)     =    177.777203     0.000000    -0.014994   177.762209
	   63 D(1,9,10,5)     =    -30.105217    -0.000001     0.000601   -30.104616
	   64 D(1,9,10,6)     =    149.031794    -0.000000    -0.003851   149.027943
	   65 D(2,4,11,3)     =      0.189671    -0.000000     0.000703     0.190374
	   66 D(2,4,11,13)    =   -179.920370     0.000000     0.002985  -179.917385
	   67 D(2,9,1,3)      =      0.350591    -0.000000     0.001939     0.352529
	   68 D(2,9,1,14)     =    178.376414    -0.000000    -0.009822   178.366592
	   69 D(2,9,10,5)     =    148.946863    -0.000000    -0.001837   148.945026
	   70 D(2,9,10,6)     =    -31.916127    -0.000000    -0.006289   -31.922416
	   71 D(3,1,9,10)     =    179.430178     0.000000    -0.000430   179.429748
	   72 D(3,11,4,17)    =   -179.224879     0.000000     0.008266  -179.216612
	   73 D(3,11,13,22)   =   -179.726395     0.000000     0.005379  -179.721016
	   74 D(4,2,9,10)     =   -179.290532    -0.000000     0.000766  -179.289765
	   75 D(4,11,3,16)    =   -179.479570     0.000000     0.013073  -179.466498
	   76 D(4,11,13,22)   =      0.381266    -0.000000     0.003146     0.384411
	   77 D(5,7,12,8)     =     -0.105395    -0.000000    -0.010111    -0.115506
	   78 D(5,10,6,8)     =     -0.419529     0.000000    -0.011199    -0.430728
	   79 D(5,10,6,19)    =    177.931949    -0.000000    -0.020688   177.911261
	   80 D(6,8,12,7)     =     -0.026109    -0.000000    -0.007162    -0.033272
	   81 D(6,10,5,7)     =      0.298630    -0.000000    -0.004662     0.293967
	   82 D(6,10,5,18)    =    178.499115    -0.000000    -0.011608   178.487507
	   83 D(7,5,10,9)     =    179.479210     0.000000    -0.008880   179.470330
	   84 D(7,12,8,21)    =   -179.536782     0.000000     0.041701  -179.495082
	   85 D(8,6,10,9)     =   -179.600639    -0.000000    -0.006951  -179.607589
	   86 D(8,12,7,20)    =   -179.761937     0.000000     0.041555  -179.720382
	   87 D(9,1,3,11)     =     -0.224403     0.000000    -0.000927    -0.225331
	   88 D(9,1,3,16)     =    179.191678    -0.000000    -0.014796   179.176882
	   89 D(9,2,4,11)     =     -0.056843    -0.000000     0.000357    -0.056487
	   90 D(9,2,4,17)     =    179.357790    -0.000000    -0.007172   179.350618
	   91 D(9,10,5,18)    =     -2.320304     0.000000    -0.015826    -2.336131
	   92 D(9,10,6,19)    =     -1.249161    -0.000000    -0.016439    -1.265600
	   93 D(10,5,7,12)    =     -0.037893     0.000000     0.016193    -0.021700
	   94 D(10,5,7,20)    =    179.606441    -0.000000    -0.037335   179.569106
	   95 D(10,6,8,12)    =      0.298893     0.000000     0.018080     0.316973
	   96 D(10,6,8,21)    =    179.792153    -0.000000    -0.032559   179.759594
	   97 D(10,9,1,14)    =     -2.543999     0.000000    -0.012191    -2.556190
	   98 D(10,9,2,15)    =     -1.304170    -0.000000    -0.012572    -1.316742
	   99 D(11,3,1,14)    =   -178.263481     0.000000     0.010900  -178.252581
	  100 D(11,4,2,15)    =   -178.056692     0.000000     0.013574  -178.043118
	  101 D(12,7,5,18)    =   -178.256577     0.000000     0.023013  -178.233564
	  102 D(12,8,6,19)    =   -178.068988     0.000000     0.027430  -178.041558
	  103 D(13,11,3,16)   =      0.624273     0.000000     0.010927     0.635200
	  104 D(13,11,4,17)   =      0.665080     0.000000     0.010548     0.675628
	  105 D(14,1,3,16)    =      1.152600     0.000000    -0.002969     1.149632
	  106 D(15,2,4,17)    =      1.357942     0.000000     0.006045     1.363987
	  107 D(18,5,7,20)    =      1.387756    -0.000000    -0.030515     1.357241
	  108 D(19,6,8,21)    =      1.424273    -0.000000    -0.023209     1.401064
	 ---------------------------------------------------------------------------
	Successfully symmetrized geometry.
	 Forces used to impose fixed constraints are not included.
	  Forces zeroed: 63 

  ==> Convergence Check <==

  Measures of convergence in internal coordinates in au.
  Criteria marked as inactive (o), active & met (*), and active & unmet ( ).
  ---------------------------------------------------------------------------------------------
   Step     Total Energy     Delta E     MAX Force     RMS Force      MAX Disp      RMS Disp   
  ---------------------------------------------------------------------------------------------
    Convergence Criteria    1.00e-06 *    3.00e-04 *             o    1.20e-03 *             o
  ---------------------------------------------------------------------------------------------
      6    -553.72568162    3.82e-07 *    4.62e-05 *    1.31e-05 o    7.28e-04 *    1.93e-04 o  ~
  ---------------------------------------------------------------------------------------------


  **** Optimization is complete! (in 6 steps) ****

  ==> Optimization Summary <==

  Measures of convergence in internal coordinates in au.
  --------------------------------------------------------------------------------------------------------------- ~
   Step         Total Energy             Delta E       MAX Force       RMS Force        MAX Disp        RMS Disp  ~
  --------------------------------------------------------------------------------------------------------------- ~
      1    -553.721854291631   -553.721854291631      0.01865947      0.00479519      0.03469513      0.00961626  ~
      2    -553.725018302742     -0.003164011111      0.00544844      0.00154792      0.02520846      0.00960794  ~
      3    -553.725646684318     -0.000628381576      0.00098938      0.00027236      0.01563552      0.00460368  ~
      4    -553.725680474803     -0.000033790485      0.00037952      0.00007728      0.00525420      0.00131789  ~
      5    -553.725682003052     -0.000001528249      0.00007590      0.00002816      0.00242014      0.00065186  ~
      6    -553.725681621015      0.000000382036      0.00004619      0.00001377      0.00072782      0.00019264  ~
  --------------------------------------------------------------------------------------------------------------- ~

	Writing optimization data to binary file.
	Final energy is   -553.7256816210155
	Final (previous) structure:
	Cartesian Geometry (in Angstrom)
	    C    -1.2682711953   0.7279303599  -0.5506028563
	    C    -0.2854991296   0.1031200958   1.5361167437
	    C    -2.3402203998   1.2947193016   0.1146197035
	    C    -1.3564402031   0.6656398692   2.2111661945
	    C     0.7575390370  -1.0477867536  -1.8282880586
	    C     2.1857076993  -0.5136297677  -0.0174492716
	    C     1.8547227620  -1.6036456469  -2.4659700293
	    C     3.2238935067  -1.0935526466  -0.7281103100
	    C    -0.2192862714   0.1250798084   0.1444672883
	    C     0.9052295290  -0.4833418608  -0.5639182310
	    C    -2.3876193665   1.2657906524   1.5013638604
	    N     3.0809098407  -1.6371407318  -1.9390497642
	    O    -3.4672220948   1.8381118015   2.1019780196
	    H    -1.2327193797   0.7838498287  -1.6281716552
	    H     0.4922067744  -0.3874000780   2.1019414749
	    H    -3.1429668687   1.7712564075  -0.4260804631
	    H    -1.3937353765   0.6288249059   3.2911665846
	    H    -0.2102287925  -1.0824478870  -2.3049381500
	    H     2.3830929560  -0.0655005363   0.9445070171
	    H     1.7427234270  -2.0485136766  -3.4449760571
	    H     4.2200244936  -1.1158906398  -0.3084451931
	    H    -3.3757080069   1.7546335230   3.0559310785
	Saving final (previous) structure.
			--------------------------
			 OPTKING Finished Execution 
			--------------------------

    Final optimized geometry and variables:
    Molecular point group: c1
    Full point group: C1

    Geometry (in Angstrom), charge = 0, multiplicity = 1:

    C           -1.268271195321     0.727930359875    -0.550602856295
    C           -0.285499129570     0.103120095814     1.536116743658
    C           -2.340220399848     1.294719301586     0.114619703470
    C           -1.356440203092     0.665639869203     2.211166194450
    C            0.757539036989    -1.047786753608    -1.828288058633
    C            2.185707699304    -0.513629767737    -0.017449271559
    C            1.854722761996    -1.603645646855    -2.465970029348
    C            3.223893506702    -1.093552646641    -0.728110310011
    C           -0.219286271391     0.125079808405     0.144467288276
    C            0.905229528973    -0.483341860760    -0.563918230998
    C           -2.387619366505     1.265790652360     1.501363860375
    N            3.080909840719    -1.637140731817    -1.939049764239
    O           -3.467222094830     1.838111801513     2.101978019591
    H           -1.232719379702     0.783849828746    -1.628171655187
    H            0.492206774423    -0.387400078046     2.101941474890
    H           -3.142966868720     1.771256407470    -0.426080463052
    H           -1.393735376467     0.628824905901     3.291166584628
    H           -0.210228792504    -1.082447887003    -2.304938149976
    H            2.383092955987    -0.065500536350     0.944507017149
    H            1.742723427048    -2.048513676582    -3.444976057094
    H            4.220024493605    -1.115890639768    -0.308445193080
    H           -3.375708006898     1.754633523032     3.055931078507

	Cleaning optimization helper files.

*** Psi4 exiting successfully. Buy a developer a beer!
