
    -----------------------------------------------------------------------
          Psi4: An Open-Source Ab Initio Electronic Structure Package
                               Psi4 1.1 release

                         Git: Rev {HEAD} add49b9 


    R. M. Parrish, L. A. Burns, D. G. A. Smith, A. C. Simmonett,
    A. E. DePrince III, E. G. Hohenstein, U. Bozkaya, A. Yu. Sokolov,
    R. Di Remigio, R. M. Richard, J. F. Gonthier, A. M. James,
    H. R. McAlexander, A. Kumar, M. Saitow, X. Wang, B. P. Pritchard,
    P. Verma, H. F. Schaefer III, K. Patkowski, R. A. King, E. F. Valeev,
    F. A. Evangelista, J. M. Turney, T. D. Crawford, and C. D. Sherrill,
    J. Chem. Theory Comput. in press (2017).
    (doi: 10.1021/acs.jctc.7b00174)

    -----------------------------------------------------------------------


    Psi4 started on: Saturday, 11 November 2017 09:40AM

    Process ID:   1676
    PSIDATADIR: /cbio/jclab/home/chayas/anaconda/envs/py35/share/psi4
    Memory:     500.0 MiB
    Threads:    8
    
  ==> Input File <==

--------------------------------------------------------------------------

molecule phepyr {
  symmetry C1
  0 1 
  C      1.885   -1.036   -0.112
  C      0.807   -0.463   0.561
  C      2.921   -1.631   0.608
  C      0.764   -0.484   1.955
  C      2.878   -1.652   2.002
  C      0.704   -1.732   4.778
  C      2.763   -0.491   4.860
  C      0.709   -1.726   6.164
  C      2.675   -0.541   6.242
  C      1.800   -1.079   2.676
  C      1.755   -1.101   4.122
  N      1.670   -1.145   6.915
  H      1.917   -1.021   -1.198
  H      -0.001   -0.002   0.000
  H      3.760   -2.079   0.084
  H      -0.084   -0.033   2.466
  H      3.693   -2.120   2.550
  H      -0.100   -2.219   4.236
  H      3.598   0.011   4.383
  H      -0.087   -2.207   6.723
  H      3.435   -0.080   6.864
  units Angstrom
}

dih_string = "4 10 11 6 60"
set optking fixed_dihedral = $dih_string

optimize('MP2/aug-cc-PVTZ')
--------------------------------------------------------------------------
gradient() will perform analytic gradient computation.

*** tstart() called on gpu-1-12.local
*** at Sat Nov 11 09:40:32 2017

    SCF Algorithm Type (re)set to DF.

*** tstart() called on gpu-1-12.local
*** at Sat Nov 11 09:40:32 2017

   => Loading Basis Set <=

    Name: AUG-CC-PVTZ
    Role: ORBITAL
    Keyword: BASIS
    atoms 1-11  entry C          line   221 file /cbio/jclab/home/chayas/anaconda/envs/py35/share/psi4/basis/aug-cc-pvtz.gbs 
    atoms 12    entry N          line   267 file /cbio/jclab/home/chayas/anaconda/envs/py35/share/psi4/basis/aug-cc-pvtz.gbs 
    atoms 13-21 entry H          line    34 file /cbio/jclab/home/chayas/anaconda/envs/py35/share/psi4/basis/aug-cc-pvtz.gbs 


         ---------------------------------------------------------
                                   SCF
            by Justin Turney, Rob Parrish, and Andy Simmonett
                              RHF Reference
                        8 Threads,    500 MiB Core
         ---------------------------------------------------------

  ==> Geometry <==

    Molecular point group: c1
    Full point group: C1

    Geometry (in Angstrom), charge = 0, multiplicity = 1:

       Center              X                  Y                   Z               Mass       
    ------------   -----------------  -----------------  -----------------  -----------------
           C          0.107943569108     0.054397873064    -3.525965346062    12.000000000000
           C         -0.970056430892     0.627397873064    -2.852965346062    12.000000000000
           C          1.143943569108    -0.540602126936    -2.805965346062    12.000000000000
           C         -1.013056430892     0.606397873064    -1.458965346062    12.000000000000
           C          1.100943569108    -0.561602126936    -1.411965346062    12.000000000000
           C         -1.073056430892    -0.641602126936     1.364034653938    12.000000000000
           C          0.985943569108     0.599397873064     1.446034653938    12.000000000000
           C         -1.068056430892    -0.635602126936     2.750034653938    12.000000000000
           C          0.897943569108     0.549397873064     2.828034653938    12.000000000000
           C          0.022943569108     0.011397873064    -0.737965346062    12.000000000000
           C         -0.022056430892    -0.010602126936     0.708034653938    12.000000000000
           N         -0.107056430892    -0.054602126936     3.501034653938    14.003074004780
           H          0.139943569108     0.069397873064    -4.611965346062     1.007825032070
           H         -1.778056430892     1.088397873064    -3.413965346062     1.007825032070
           H          1.982943569108    -0.988602126936    -3.329965346062     1.007825032070
           H         -1.861056430892     1.057397873064    -0.947965346062     1.007825032070
           H          1.915943569108    -1.029602126936    -0.863965346062     1.007825032070
           H         -1.877056430892    -1.128602126936     0.822034653938     1.007825032070
           H          1.820943569108     1.101397873064     0.969034653938     1.007825032070
           H         -1.864056430892    -1.116602126936     3.309034653938     1.007825032070
           H          1.657943569108     1.010397873064     3.450034653938     1.007825032070

  Running in c1 symmetry.

  Rotational constants: A =      0.09742  B =      0.01825  C =      0.01668 [cm^-1]
  Rotational constants: A =   2920.64930  B =    546.99290  C =    500.09844 [MHz]
  Nuclear repulsion =  605.969969686055947

  Charge       = 0
  Multiplicity = 1
  Electrons    = 82
  Nalpha       = 41
  Nbeta        = 41

  ==> Algorithm <==

  SCF Algorithm Type is DF.
  DIIS enabled.
  MOM disabled.
  Fractional occupation disabled.
  Guess Type is SAD.
  Energy threshold   = 1.00e-10
  Density threshold  = 1.00e-10
  Integral threshold = 0.00e+00

  ==> Primary Basis <==

  Basis Set: AUG-CC-PVTZ
    Blend: AUG-CC-PVTZ
    Number of shells: 249
    Number of basis function: 759
    Number of Cartesian functions: 885
    Spherical Harmonics?: true
    Max angular momentum: 3

   => Loading Basis Set <=

    Name: (AUG-CC-PVTZ AUX)
    Role: JKFIT
    Keyword: DF_BASIS_SCF
    atoms 1-11  entry C          line   161 file /cbio/jclab/home/chayas/anaconda/envs/py35/share/psi4/basis/aug-cc-pvtz-jkfit.gbs 
    atoms 12    entry N          line   223 file /cbio/jclab/home/chayas/anaconda/envs/py35/share/psi4/basis/aug-cc-pvtz-jkfit.gbs 
    atoms 13-21 entry H          line    69 file /cbio/jclab/home/chayas/anaconda/envs/py35/share/psi4/basis/aug-cc-pvtz-jkfit.gbs 

  ==> Pre-Iterations <==

   -------------------------------------------------------
    Irrep   Nso     Nmo     Nalpha   Nbeta   Ndocc  Nsocc
   -------------------------------------------------------
     A        759     759       0       0       0       0
   -------------------------------------------------------
    Total     759     759      41      41      41       0
   -------------------------------------------------------

  ==> Integral Setup <==

  ==> DFJK: Density-Fitted J/K Matrices <==

    J tasked:                  Yes
    K tasked:                  Yes
    wK tasked:                  No
    OpenMP threads:              8
    Integrals threads:           8
    Memory (MB):               375
    Algorithm:                Disk
    Integral Cache:           NONE
    Schwarz Cutoff:          1E-12
    Fitting Condition:       1E-12

   => Auxiliary Basis Set <=

  Basis Set: (AUG-CC-PVTZ AUX)
    Blend: AUG-CC-PVTZ-JKFIT
    Number of shells: 486
    Number of basis function: 1662
    Number of Cartesian functions: 2067
    Spherical Harmonics?: true
    Max angular momentum: 4

  Minimum eigenvalue in the overlap matrix is 4.7919612111E-07.
  Using Symmetric Orthogonalization.

  SCF Guess: Superposition of Atomic Densities via on-the-fly atomic UHF.

  ==> Iterations <==

                           Total Energy        Delta E     RMS |[F,P]|

   @DF-RHF iter   0:  -483.68938974522871   -4.83689e+02   2.42242e-02 
   @DF-RHF iter   1:  -476.09111080627582    7.59828e+00   1.72006e-03 
   @DF-RHF iter   2:  -476.33923350610240   -2.48123e-01   7.14277e-04 DIIS
   @DF-RHF iter   3:  -476.37894320386096   -3.97097e-02   4.75699e-04 DIIS
   @DF-RHF iter   4:  -476.39442130431451   -1.54781e-02   1.25359e-04 DIIS
   @DF-RHF iter   5:  -476.39628016270467   -1.85886e-03   5.44992e-05 DIIS
   @DF-RHF iter   6:  -476.39658604025999   -3.05878e-04   1.79564e-05 DIIS
   @DF-RHF iter   7:  -476.39662276559778   -3.67253e-05   6.72102e-06 DIIS
   @DF-RHF iter   8:  -476.39662756526423   -4.79967e-06   3.18948e-06 DIIS
   @DF-RHF iter   9:  -476.39662930597876   -1.74071e-06   1.71338e-06 DIIS
   @DF-RHF iter  10:  -476.39662994223653   -6.36258e-07   5.47668e-07 DIIS
   @DF-RHF iter  11:  -476.39663000121004   -5.89735e-08   1.73545e-07 DIIS
   @DF-RHF iter  12:  -476.39663000544806   -4.23802e-09   5.87079e-08 DIIS
   @DF-RHF iter  13:  -476.39663000580549   -3.57431e-10   2.65445e-08 DIIS
   @DF-RHF iter  14:  -476.39663000588763   -8.21387e-11   9.46559e-09 DIIS
   @DF-RHF iter  15:  -476.39663000592338   -3.57545e-11   5.49965e-09 DIIS
   @DF-RHF iter  16:  -476.39663000591736    6.02540e-12   2.51142e-09 DIIS
   @DF-RHF iter  17:  -476.39663000588536    3.20028e-11   1.08857e-09 DIIS
   @DF-RHF iter  18:  -476.39663000593993   -5.45697e-11   4.40468e-10 DIIS
   @DF-RHF iter  19:  -476.39663000592316    1.67688e-11   2.03662e-10 DIIS
   @DF-RHF iter  20:  -476.39663000590224    2.09184e-11   9.39798e-11 DIIS

  ==> Post-Iterations <==

    Orbital Energies (a.u.)
    -----------------------

    Doubly Occupied:                                                      

       1A    -15.565264     2A    -11.275353     3A    -11.275295  
       4A    -11.263486     5A    -11.250902     6A    -11.245860  
       7A    -11.245721     8A    -11.244521     9A    -11.244428  
      10A    -11.242963    11A    -11.238829    12A    -11.238758  
      13A     -1.250970    14A     -1.173463    15A     -1.107025  
      16A     -1.036126    17A     -1.024099    18A     -1.015933  
      19A     -0.881124    20A     -0.860801    21A     -0.832609  
      22A     -0.805529    23A     -0.729992    24A     -0.683643  
      25A     -0.669208    26A     -0.657496    27A     -0.633493  
      28A     -0.631757    29A     -0.600712    30A     -0.595416  
      31A     -0.578620    32A     -0.540129    33A     -0.526049  
      34A     -0.508528    35A     -0.505680    36A     -0.501582  
      37A     -0.419412    38A     -0.388260    39A     -0.352136  
      40A     -0.344942    41A     -0.332571  

    Virtual:                                                              

      42A      0.025220    43A      0.030769    44A      0.032686  
      45A      0.037030    46A      0.043471    47A      0.046956  
      48A      0.051183    49A      0.053962    50A      0.060476  
      51A      0.080509    52A      0.085400    53A      0.089799  
      54A      0.093383    55A      0.094030    56A      0.098077  
      57A      0.100860    58A      0.107488    59A      0.107564  
      60A      0.110687    61A      0.114486    62A      0.114765  
      63A      0.119835    64A      0.122206    65A      0.126315  
      66A      0.129107    67A      0.130134    68A      0.132299  
      69A      0.135347    70A      0.143190    71A      0.144548  
      72A      0.144589    73A      0.149112    74A      0.151349  
      75A      0.154084    76A      0.157482    77A      0.159827  
      78A      0.172285    79A      0.176156    80A      0.176694  
      81A      0.188085    82A      0.189769    83A      0.200360  
      84A      0.205019    85A      0.214069    86A      0.225978  
      87A      0.227872    88A      0.234783    89A      0.240057  
      90A      0.242253    91A      0.242816    92A      0.248004  
      93A      0.252346    94A      0.254824    95A      0.260970  
      96A      0.265488    97A      0.265612    98A      0.270742  
      99A      0.272654   100A      0.278599   101A      0.281795  
     102A      0.286249   103A      0.293516   104A      0.294921  
     105A      0.299747   106A      0.304816   107A      0.305291  
     108A      0.313024   109A      0.316210   110A      0.318962  
     111A      0.324357   112A      0.325975   113A      0.329916  
     114A      0.332101   115A      0.332363   116A      0.344906  
     117A      0.350973   118A      0.358503   119A      0.360606  
     120A      0.363015   121A      0.363330   122A      0.374392  
     123A      0.383977   124A      0.388964   125A      0.395103  
     126A      0.398604   127A      0.409063   128A      0.413221  
     129A      0.415662   130A      0.417449   131A      0.423094  
     132A      0.427654   133A      0.439726   134A      0.441296  
     135A      0.442685   136A      0.444351   137A      0.446250  
     138A      0.447041   139A      0.459574   140A      0.462386  
     141A      0.469267   142A      0.472604   143A      0.475307  
     144A      0.477604   145A      0.480776   146A      0.481015  
     147A      0.486807   148A      0.487428   149A      0.488856  
     150A      0.490641   151A      0.499452   152A      0.501098  
     153A      0.508271   154A      0.511744   155A      0.513070  
     156A      0.516959   157A      0.520641   158A      0.522611  
     159A      0.525011   160A      0.531155   161A      0.532006  
     162A      0.537325   163A      0.540930   164A      0.547522  
     165A      0.548330   166A      0.552455   167A      0.554791  
     168A      0.557456   169A      0.570156   170A      0.571721  
     171A      0.578543   172A      0.587550   173A      0.591997  
     174A      0.601885   175A      0.605079   176A      0.609223  
     177A      0.617347   178A      0.626427   179A      0.629713  
     180A      0.636074   181A      0.638260   182A      0.642112  
     183A      0.656908   184A      0.666580   185A      0.673618  
     186A      0.675545   187A      0.680531   188A      0.685721  
     189A      0.688998   190A      0.696652   191A      0.700868  
     192A      0.704805   193A      0.705222   194A      0.715252  
     195A      0.715787   196A      0.722098   197A      0.730007  
     198A      0.737339   199A      0.741826   200A      0.745363  
     201A      0.746474   202A      0.751421   203A      0.767572  
     204A      0.774475   205A      0.781390   206A      0.784700  
     207A      0.795829   208A      0.800902   209A      0.807502  
     210A      0.816243   211A      0.822706   212A      0.826173  
     213A      0.831917   214A      0.849547   215A      0.849885  
     216A      0.859220   217A      0.865269   218A      0.867884  
     219A      0.868932   220A      0.873960   221A      0.875427  
     222A      0.885687   223A      0.888955   224A      0.891981  
     225A      0.893492   226A      0.900557   227A      0.904493  
     228A      0.911220   229A      0.914586   230A      0.915341  
     231A      0.924916   232A      0.925289   233A      0.929837  
     234A      0.934244   235A      0.937546   236A      0.947703  
     237A      0.951373   238A      0.953289   239A      0.956071  
     240A      0.967219   241A      0.972113   242A      0.976032  
     243A      0.983716   244A      0.990346   245A      0.992651  
     246A      0.995353   247A      0.995815   248A      1.006634  
     249A      1.009619   250A      1.014116   251A      1.016011  
     252A      1.026737   253A      1.028597   254A      1.040310  
     255A      1.042045   256A      1.046428   257A      1.046559  
     258A      1.056064   259A      1.060073   260A      1.068478  
     261A      1.077372   262A      1.078006   263A      1.084018  
     264A      1.088829   265A      1.091816   266A      1.093444  
     267A      1.100023   268A      1.101798   269A      1.105447  
     270A      1.105471   271A      1.121007   272A      1.126692  
     273A      1.131147   274A      1.135397   275A      1.139988  
     276A      1.141791   277A      1.151508   278A      1.152181  
     279A      1.157888   280A      1.164359   281A      1.166677  
     282A      1.174834   283A      1.184331   284A      1.186878  
     285A      1.189365   286A      1.193128   287A      1.199330  
     288A      1.200994   289A      1.201612   290A      1.212499  
     291A      1.214689   292A      1.220227   293A      1.224890  
     294A      1.241013   295A      1.245025   296A      1.252968  
     297A      1.256267   298A      1.262420   299A      1.264912  
     300A      1.266674   301A      1.275167   302A      1.282390  
     303A      1.286490   304A      1.297457   305A      1.299123  
     306A      1.303757   307A      1.311874   308A      1.313693  
     309A      1.320394   310A      1.327240   311A      1.347705  
     312A      1.352895   313A      1.362942   314A      1.374346  
     315A      1.378308   316A      1.383508   317A      1.385207  
     318A      1.396719   319A      1.407471   320A      1.409216  
     321A      1.413852   322A      1.422187   323A      1.433079  
     324A      1.433674   325A      1.439861   326A      1.453406  
     327A      1.468983   328A      1.471646   329A      1.477898  
     330A      1.486722   331A      1.499663   332A      1.500017  
     333A      1.513576   334A      1.529843   335A      1.538901  
     336A      1.544908   337A      1.551128   338A      1.563989  
     339A      1.567575   340A      1.570308   341A      1.579976  
     342A      1.590100   343A      1.590930   344A      1.599707  
     345A      1.603598   346A      1.624781   347A      1.635811  
     348A      1.637977   349A      1.645996   350A      1.649120  
     351A      1.666002   352A      1.678628   353A      1.687954  
     354A      1.688116   355A      1.696506   356A      1.705466  
     357A      1.711732   358A      1.719791   359A      1.725395  
     360A      1.732953   361A      1.733575   362A      1.741151  
     363A      1.742139   364A      1.749894   365A      1.758938  
     366A      1.771267   367A      1.778745   368A      1.801118  
     369A      1.812263   370A      1.820350   371A      1.821300  
     372A      1.825412   373A      1.838771   374A      1.842594  
     375A      1.850671   376A      1.856937   377A      1.866202  
     378A      1.885961   379A      1.886343   380A      1.898344  
     381A      1.904858   382A      1.911293   383A      1.914491  
     384A      1.925476   385A      1.932260   386A      1.945663  
     387A      1.946464   388A      1.958278   389A      1.973877  
     390A      1.978505   391A      1.987681   392A      1.994691  
     393A      1.997299   394A      2.001729   395A      2.005244  
     396A      2.019971   397A      2.032659   398A      2.034706  
     399A      2.037880   400A      2.050273   401A      2.052067  
     402A      2.063603   403A      2.071367   404A      2.081882  
     405A      2.089840   406A      2.090436   407A      2.096115  
     408A      2.103794   409A      2.114659   410A      2.115468  
     411A      2.141048   412A      2.143998   413A      2.156652  
     414A      2.161964   415A      2.162485   416A      2.169297  
     417A      2.181917   418A      2.188475   419A      2.191249  
     420A      2.203320   421A      2.208975   422A      2.209656  
     423A      2.230526   424A      2.244030   425A      2.248810  
     426A      2.257460   427A      2.267062   428A      2.284733  
     429A      2.290618   430A      2.300290   431A      2.319569  
     432A      2.323933   433A      2.331744   434A      2.335918  
     435A      2.353209   436A      2.364030   437A      2.367866  
     438A      2.368431   439A      2.384421   440A      2.391432  
     441A      2.407106   442A      2.418220   443A      2.427854  
     444A      2.431876   445A      2.457650   446A      2.481143  
     447A      2.481477   448A      2.490336   449A      2.516457  
     450A      2.523053   451A      2.544479   452A      2.547608  
     453A      2.565218   454A      2.567888   455A      2.585198  
     456A      2.586376   457A      2.602193   458A      2.603904  
     459A      2.626525   460A      2.634629   461A      2.652675  
     462A      2.676997   463A      2.705027   464A      2.713466  
     465A      2.744234   466A      2.758165   467A      2.761012  
     468A      2.778677   469A      2.793834   470A      2.815567  
     471A      2.839922   472A      2.841379   473A      2.853804  
     474A      2.878801   475A      2.884231   476A      2.970440  
     477A      2.971289   478A      2.991484   479A      3.066190  
     480A      3.072457   481A      3.083461   482A      3.147151  
     483A      3.167156   484A      3.169264   485A      3.194284  
     486A      3.195936   487A      3.220395   488A      3.239464  
     489A      3.242511   490A      3.252410   491A      3.252505  
     492A      3.286890   493A      3.309925   494A      3.318626  
     495A      3.339230   496A      3.348218   497A      3.357123  
     498A      3.373666   499A      3.380082   500A      3.397455  
     501A      3.405902   502A      3.411609   503A      3.418877  
     504A      3.437032   505A      3.439739   506A      3.442291  
     507A      3.448289   508A      3.452600   509A      3.457674  
     510A      3.469362   511A      3.484102   512A      3.487910  
     513A      3.503238   514A      3.511361   515A      3.535935  
     516A      3.541675   517A      3.541949   518A      3.545856  
     519A      3.554054   520A      3.563845   521A      3.575161  
     522A      3.579684   523A      3.582262   524A      3.590725  
     525A      3.599652   526A      3.609921   527A      3.612253  
     528A      3.630024   529A      3.646483   530A      3.648769  
     531A      3.662440   532A      3.678389   533A      3.680623  
     534A      3.687723   535A      3.701270   536A      3.703276  
     537A      3.723817   538A      3.723989   539A      3.735345  
     540A      3.742084   541A      3.776218   542A      3.777872  
     543A      3.786767   544A      3.788648   545A      3.807470  
     546A      3.825949   547A      3.826297   548A      3.837660  
     549A      3.845798   550A      3.857473   551A      3.859442  
     552A      3.862343   553A      3.868429   554A      3.877683  
     555A      3.892065   556A      3.906072   557A      3.913733  
     558A      3.918907   559A      3.929248   560A      3.942046  
     561A      3.944401   562A      3.955276   563A      3.958896  
     564A      3.967996   565A      3.977604   566A      3.989526  
     567A      3.998190   568A      4.005017   569A      4.015663  
     570A      4.024463   571A      4.028067   572A      4.033334  
     573A      4.038922   574A      4.041725   575A      4.055995  
     576A      4.060301   577A      4.082428   578A      4.087074  
     579A      4.103027   580A      4.106083   581A      4.111083  
     582A      4.124407   583A      4.133985   584A      4.141734  
     585A      4.148036   586A      4.156288   587A      4.162485  
     588A      4.174717   589A      4.181580   590A      4.205737  
     591A      4.206025   592A      4.221281   593A      4.226474  
     594A      4.235734   595A      4.245237   596A      4.270684  
     597A      4.284632   598A      4.292864   599A      4.307845  
     600A      4.309432   601A      4.315205   602A      4.316427  
     603A      4.322161   604A      4.350635   605A      4.351163  
     606A      4.358036   607A      4.381757   608A      4.382651  
     609A      4.388959   610A      4.395009   611A      4.404922  
     612A      4.416188   613A      4.430999   614A      4.435885  
     615A      4.444842   616A      4.447522   617A      4.452319  
     618A      4.474056   619A      4.480143   620A      4.485717  
     621A      4.493232   622A      4.499375   623A      4.504949  
     624A      4.505520   625A      4.534451   626A      4.552698  
     627A      4.554052   628A      4.578419   629A      4.590557  
     630A      4.619559   631A      4.645600   632A      4.647742  
     633A      4.675133   634A      4.693127   635A      4.710007  
     636A      4.716527   637A      4.718505   638A      4.733949  
     639A      4.735319   640A      4.742663   641A      4.772387  
     642A      4.778481   643A      4.802438   644A      4.823329  
     645A      4.844442   646A      4.859717   647A      4.876530  
     648A      4.896830   649A      4.916898   650A      4.920908  
     651A      4.945453   652A      4.951733   653A      4.964062  
     654A      4.964522   655A      4.984504   656A      5.008381  
     657A      5.012382   658A      5.018779   659A      5.020410  
     660A      5.032124   661A      5.032689   662A      5.062373  
     663A      5.064728   664A      5.085860   665A      5.094847  
     666A      5.111795   667A      5.120250   668A      5.137657  
     669A      5.143662   670A      5.148878   671A      5.157454  
     672A      5.160739   673A      5.169811   674A      5.175812  
     675A      5.185418   676A      5.192724   677A      5.193008  
     678A      5.196901   679A      5.240000   680A      5.252824  
     681A      5.272272   682A      5.283283   683A      5.323641  
     684A      5.335405   685A      5.345705   686A      5.351003  
     687A      5.358636   688A      5.378662   689A      5.381721  
     690A      5.389141   691A      5.425415   692A      5.444845  
     693A      5.458225   694A      5.468887   695A      5.473580  
     696A      5.479381   697A      5.521267   698A      5.527010  
     699A      5.559514   700A      5.570043   701A      5.587664  
     702A      5.647522   703A      5.662060   704A      5.709720  
     705A      5.757042   706A      5.770946   707A      5.773265  
     708A      5.784154   709A      5.794899   710A      5.801080  
     711A      5.824787   712A      5.851000   713A      5.865624  
     714A      5.884495   715A      5.908944   716A      5.979848  
     717A      6.021776   718A      6.080974   719A      6.139792  
     720A      6.167791   721A      6.195584   722A      6.226873  
     723A      6.244115   724A      6.271028   725A      6.272914  
     726A      6.310861   727A      6.334560   728A      6.344741  
     729A      6.393201   730A      6.490075   731A      6.495138  
     732A      6.571614   733A      6.581077   734A      6.602936  
     735A      6.696693   736A      6.716569   737A      6.733532  
     738A      6.800850   739A      6.874734   740A      6.895244  
     741A      6.922875   742A      7.015438   743A      7.043994  
     744A      7.085847   745A      7.176936   746A      7.345914  
     747A      7.420337   748A     15.613559   749A     16.185863  
     750A     16.566685   751A     16.693678   752A     18.414735  
     753A     18.716843   754A     19.022259   755A     19.202043  
     756A     19.969706   757A     19.972971   758A     20.192115  
     759A     21.885813  

    Final Occupation by Irrep:
              A 
    DOCC [    41 ]

  Energy converged.

  @DF-RHF Final Energy:  -476.39663000590224

   => Energetics <=

    Nuclear Repulsion Energy =            605.9699696860559470
    One-Electron Energy =               -1845.6958324531196922
    Two-Electron Energy =                 763.3292327611615065
    DFT Exchange-Correlation Energy =       0.0000000000000000
    Empirical Dispersion Energy =           0.0000000000000000
    PCM Polarization Energy =               0.0000000000000000
    EFP Energy =                            0.0000000000000000
    Total Energy =                       -476.3966300059022387



Properties will be evaluated at   0.000000,   0.000000,   0.000000 Bohr

Properties computed using the SCF density matrix

  Nuclear Dipole Moment: (a.u.)
     X:     0.1292      Y:     0.0598      Z:    -4.3391

  Electronic Dipole Moment: (a.u.)
     X:    -0.0969      Y:    -0.0450      Z:     3.2658

  Dipole Moment: (a.u.)
     X:     0.0323      Y:     0.0147      Z:    -1.0734     Total:     1.0739

  Dipole Moment: (Debye)
     X:     0.0821      Y:     0.0374      Z:    -2.7282     Total:     2.7297


*** tstop() called on gpu-1-12.local at Sat Nov 11 09:46:46 2017
Module time:
	user time   =    1345.98 seconds =      22.43 minutes
	system time =      42.14 seconds =       0.70 minutes
	total time  =        374 seconds =       6.23 minutes
Total time:
	user time   =    1345.98 seconds =      22.43 minutes
	system time =      42.14 seconds =       0.70 minutes
	total time  =        374 seconds =       6.23 minutes

  //>>>>>>>>>>>>>>>>>>>>>>>>>>>>>>>>>>>//
  //               DFMP2               //
  //<<<<<<<<<<<<<<<<<<<<<<<<<<<<<<<<<<<//

   => Loading Basis Set <=

    Name: (AUG-CC-PVTZ AUX)
    Role: RIFIT
    Keyword: DF_BASIS_MP2
    atoms 1-11  entry C          line   147 file /cbio/jclab/home/chayas/anaconda/envs/py35/share/psi4/basis/aug-cc-pvtz-ri.gbs 
    atoms 12    entry N          line   205 file /cbio/jclab/home/chayas/anaconda/envs/py35/share/psi4/basis/aug-cc-pvtz-ri.gbs 
    atoms 13-21 entry H          line    29 file /cbio/jclab/home/chayas/anaconda/envs/py35/share/psi4/basis/aug-cc-pvtz-ri.gbs 

	 --------------------------------------------------------
	                          DF-MP2                         
	      2nd-Order Density-Fitted Moller-Plesset Theory     
	              RMP2 Wavefunction,   8 Threads             
	                                                         
	        Rob Parrish, Justin Turney, Andy Simmonett,      
	           Ed Hohenstein, and C. David Sherrill          
	 --------------------------------------------------------

   => Auxiliary Basis Set <=

  Basis Set: (AUG-CC-PVTZ AUX)
    Blend: AUG-CC-PVTZ-RI
    Number of shells: 462
    Number of basis function: 1686
    Number of Cartesian functions: 2127
    Spherical Harmonics?: true
    Max angular momentum: 4

	 --------------------------------------------------------
	                 NBF =   759, NAUX =  1686
	 --------------------------------------------------------
	   CLASS    FOCC     OCC    AOCC    AVIR     VIR    FVIR
	   PAIRS       0      41      41     718     718       0
	 --------------------------------------------------------


         ------------------------------------------------------------
                                     CPHF                           
                                  Rob Parrish                       
         ------------------------------------------------------------

  ==> Geometry <==

    Molecular point group: c1
    Full point group: C1

    Geometry (in Angstrom), charge = 0, multiplicity = 1:

       Center              X                  Y                   Z               Mass       
    ------------   -----------------  -----------------  -----------------  -----------------
           C          0.107943569108     0.054397873064    -3.525965346062    12.000000000000
           C         -0.970056430892     0.627397873064    -2.852965346062    12.000000000000
           C          1.143943569108    -0.540602126936    -2.805965346062    12.000000000000
           C         -1.013056430892     0.606397873064    -1.458965346062    12.000000000000
           C          1.100943569108    -0.561602126936    -1.411965346062    12.000000000000
           C         -1.073056430892    -0.641602126936     1.364034653938    12.000000000000
           C          0.985943569108     0.599397873064     1.446034653938    12.000000000000
           C         -1.068056430892    -0.635602126936     2.750034653938    12.000000000000
           C          0.897943569108     0.549397873064     2.828034653938    12.000000000000
           C          0.022943569108     0.011397873064    -0.737965346062    12.000000000000
           C         -0.022056430892    -0.010602126936     0.708034653938    12.000000000000
           N         -0.107056430892    -0.054602126936     3.501034653938    14.003074004780
           H          0.139943569108     0.069397873064    -4.611965346062     1.007825032070
           H         -1.778056430892     1.088397873064    -3.413965346062     1.007825032070
           H          1.982943569108    -0.988602126936    -3.329965346062     1.007825032070
           H         -1.861056430892     1.057397873064    -0.947965346062     1.007825032070
           H          1.915943569108    -1.029602126936    -0.863965346062     1.007825032070
           H         -1.877056430892    -1.128602126936     0.822034653938     1.007825032070
           H          1.820943569108     1.101397873064     0.969034653938     1.007825032070
           H         -1.864056430892    -1.116602126936     3.309034653938     1.007825032070
           H          1.657943569108     1.010397873064     3.450034653938     1.007825032070

  Nuclear repulsion =  605.969969686055947
  Reference energy  = -476.396630005902239

  ==> Basis Set <==

  Basis Set: AUG-CC-PVTZ
    Blend: AUG-CC-PVTZ
    Number of shells: 249
    Number of basis function: 759
    Number of Cartesian functions: 885
    Spherical Harmonics?: true
    Max angular momentum: 3

  ==> CGRSolver (by Rob Parrish) <==

   Number of roots    =         1
   Preconditioning    =    JACOBI
   Convergence cutoff =     1E-06
   Maximum iterations =       100

  ==> CPHFRHamiltonian (by Rob Parrish) <== 

  ==> DFJK: Density-Fitted J/K Matrices <==

    J tasked:                  Yes
    K tasked:                  Yes
    wK tasked:                  No
    OpenMP threads:              8
    Integrals threads:           8
    Memory (MB):               375
    Algorithm:                Disk
    Integral Cache:           NONE
    Schwarz Cutoff:          1E-12
    Fitting Condition:       1E-12

   => Auxiliary Basis Set <=

  Basis Set: (AUG-CC-PVTZ AUX)
    Blend: AUG-CC-PVTZ-JKFIT
    Number of shells: 486
    Number of basis function: 1662
    Number of Cartesian functions: 2067
    Spherical Harmonics?: true
    Max angular momentum: 4

  ==> CPHF Iterations <==

  => Iterations <=

             Iter  Converged  Remaining    Residual
  CGR           1          0          1   8.193E-02
  CGR           2          0          1   3.048E-02
  CGR           3          0          1   2.086E-02
  CGR           4          0          1   8.906E-03
  CGR           5          0          1   2.473E-03
  CGR           6          0          1   8.506E-04
  CGR           7          0          1   3.404E-04
  CGR           8          0          1   1.066E-04
  CGR           9          0          1   5.238E-05
  CGR          10          0          1   2.416E-05
  CGR          11          0          1   7.204E-06
  CGR          12          0          1   2.865E-06
  CGR          13          1          0   7.931E-07

    CGRSolver converged.

  ==> DFCorrGrad: Density-Fitted Correlated Gradients <==

    OpenMP threads:              8
    Integrals threads:           8
    Memory (MB):               375
    Schwarz Cutoff:          0E+00
    Fitting Condition:       1E-12

   => Auxiliary Basis Set <=

  Basis Set: (AUG-CC-PVTZ AUX)
    Blend: AUG-CC-PVTZ-JKFIT
    Number of shells: 486
    Number of basis function: 1662
    Number of Cartesian functions: 2067
    Spherical Harmonics?: true
    Max angular momentum: 4

	-----------------------------------------------------------
	 ==================> DF-MP2 Energies <==================== 
	-----------------------------------------------------------
	 Reference Energy          =    -476.3966300059022387 [Eh]
	 Singles Energy            =      -0.0000000000000003 [Eh]
	 Same-Spin Energy          =      -0.5345185224854914 [Eh]
	 Opposite-Spin Energy      =      -1.6424022518833994 [Eh]
	 Correlation Energy        =      -2.1769207743688912 [Eh]
	 Total Energy              =    -478.5735507802711481 [Eh]
	-----------------------------------------------------------
	 ================> DF-SCS-MP2 Energies <================== 
	-----------------------------------------------------------
	 SCS Same-Spin Scale       =       0.3333333333333333 [-]
	 SCS Opposite-Spin Scale   =       1.2000000000000000 [-]
	 SCS Same-Spin Energy      =      -0.1781728408284971 [Eh]
	 SCS Opposite-Spin Energy  =      -1.9708827022600792 [Eh]
	 SCS Correlation Energy    =      -2.1490555430885769 [Eh]
	 SCS Total Energy          =    -478.5456855489908321 [Eh]
	-----------------------------------------------------------


  -Total Gradient:
     Atom            X                  Y                   Z
    ------   -----------------  -----------------  -----------------
       1       -0.000425857063     0.000412239879     0.000105245210
       2       -0.000866103034     0.000901841442    -0.001096927203
       3        0.001805375271    -0.001194710365    -0.000891229486
       4        0.002402152194     0.001322085369     0.008533120955
       5       -0.003493728332    -0.001196739051     0.008521919408
       6       -0.001884907591    -0.003762855004    -0.007759246769
       7        0.002144268947     0.004154758837    -0.007595044659
       8       -0.005576889235    -0.003831248423    -0.011020192386
       9        0.006968541781     0.004495699971    -0.010994452711
      10        0.000295962581    -0.000563058305     0.010457625627
      11        0.000080605403     0.000016971074     0.000424187169
      12       -0.000990778611    -0.000494165180     0.016784083107
      13        0.000089861937     0.000030806548    -0.005132332804
      14       -0.003733959162     0.001734136791    -0.002548611913
      15        0.003607448979    -0.001733946029    -0.002233597482
      16       -0.005793682696     0.002671255802     0.000146837959
      17        0.005726403949    -0.002662528804     0.000407210036
      18       -0.004501596411    -0.002191637627    -0.000255146825
      19        0.004364744562     0.002076478256     0.000155001493
      20       -0.001844367643    -0.000936650804     0.001909437346
      21        0.001626504175     0.000751265620     0.002082113936


*** tstop() called on gpu-1-12.local at Sat Nov 11 10:12:47 2017
Module time:
	user time   =    6271.51 seconds =     104.53 minutes
	system time =     101.00 seconds =       1.68 minutes
	total time  =       1935 seconds =      32.25 minutes
Total time:
	user time   =    6271.51 seconds =     104.53 minutes
	system time =     101.00 seconds =       1.68 minutes
	total time  =       1935 seconds =      32.25 minutes

			-----------------------------------------
			 OPTKING 2.0: for geometry optimizations 
			  - R.A. King,  Bethel University        
			-----------------------------------------

	Internal coordinates to be generated automatically.
	Detected frag 1 with atoms:  1 2 3 4 5 6 7 8 9 10 11 12 13 14 15 16 17 18 19 20
	 21
	---Fragment 1 Bond Connectivity---
	 1 : 2 3 13
	 2 : 1 4 14
	 3 : 1 5 15
	 4 : 2 10 16
	 5 : 3 10 17
	 6 : 8 11 18
	 7 : 9 11 19
	 8 : 6 12 20
	 9 : 7 12 21
	 10 : 4 5 11
	 11 : 6 7 10
	 12 : 8 9
	 13 : 1
	 14 : 2
	 15 : 3
	 16 : 4
	 17 : 5
	 18 : 6
	 19 : 7
	 20 : 8
	 21 : 9

	Assuming in current code that numbering for constraints corresponds to unified fragment.
	Fixed dihedral atom list: 
	     4    10    11     6
	---Fragment 1 Geometry and Gradient---
	 C           0.2039837834        0.1027970823       -6.6631088581
	 C          -1.8331409878        1.1856101564       -5.3913231707
	 C           2.1617400571       -1.0215899668       -5.3025060424
	 C          -1.9143992115        1.1459259077       -2.7570449414
	 C           2.0804818334       -1.0612742156       -2.6682278132
	 C          -2.0277827795       -1.2124523062        2.5776519317
	 C           1.8631633281        1.1326978247        2.7326094746
	 C          -2.0183341489       -1.2011139494        5.1968123519
	 C           1.6968674284        1.0382115181        5.3442109903
	 C           0.0433570621        0.0215388586       -1.3945523996
	 C          -0.0416806139       -0.0200351163        1.3379915885
	 N          -0.2023073352       -0.1031830662        6.6159966777
	 H           0.2644550197        0.1311429743       -8.7153514384
	 H          -3.3600397032        2.0567739037       -6.4514595312
	 H           3.7472202826       -1.8681872743       -6.2927225361
	 H          -3.5168869722        1.9981923936       -1.7913948875
	 H           3.6206086317       -1.9456660457       -1.6326578924
	 H          -3.5471225904       -2.1327489329        1.5534203677
	 H           3.4410846491        2.0813403434        1.8312101092
	 H          -3.5225561506       -2.1100722193        6.2531692602
	 H           3.1330592894        1.9093752653        6.5196206449
	            -0.0004258571        0.0004122399        0.0001052452
	            -0.0008661030        0.0009018414       -0.0010969272
	             0.0018053753       -0.0011947104       -0.0008912295
	             0.0024021522        0.0013220854        0.0085331210
	            -0.0034937283       -0.0011967391        0.0085219194
	            -0.0018849076       -0.0037628550       -0.0077592468
	             0.0021442689        0.0041547588       -0.0075950447
	            -0.0055768892       -0.0038312484       -0.0110201924
	             0.0069685418        0.0044957000       -0.0109944527
	             0.0002959626       -0.0005630583        0.0104576256
	             0.0000806054        0.0000169711        0.0004241872
	            -0.0009907786       -0.0004941652        0.0167840831
	             0.0000898619        0.0000308065       -0.0051323328
	            -0.0037339592        0.0017341368       -0.0025486119
	             0.0036074490       -0.0017339460       -0.0022335975
	            -0.0057936827        0.0026712558        0.0001468380
	             0.0057264039       -0.0026625288        0.0004072100
	            -0.0045015964       -0.0021916376       -0.0002551468
	             0.0043647446        0.0020764783        0.0001550015
	            -0.0018443676       -0.0009366508        0.0019094373
	             0.0016265042        0.0007512656        0.0020821139

	Previous optimization step data not found.  Starting new optimization.

	---Fragment 1 Intrafragment Coordinates---
	 - Coordinate -           - BOHR/RAD -       - ANG/DEG -
	 R(1,2)           =         2.634350	       1.394038
	 R(1,3)           =         2.635962	       1.394891
	 R(1,13)          =         2.053329	       1.086575
	 R(2,4)           =         2.635830	       1.394821
	 R(2,14)          =         2.052860	       1.086327
	 R(3,5)           =         2.635830	       1.394821
	 R(3,15)          =         2.052073	       1.085910
	 R(4,10)          =         2.636938	       1.395407
	 R(4,16)          =         2.055920	       1.087946
	 R(5,10)          =         2.635263	       1.394521
	 R(5,17)          =         2.055856	       1.087912
	 R(6,8)           =         2.619202	       1.386022
	 R(6,11)          =         2.627398	       1.390359
	 R(6,18)          =         2.050461	       1.085057
	 R(7,9)           =         2.618596	       1.385701
	 R(7,11)          =         2.627201	       1.390255
	 R(7,19)          =         2.049946	       1.084785
	 R(8,12)          =         2.552937	       1.350956
	 R(8,20)          =         2.050556	       1.085107
	 R(9,12)          =         2.554816	       1.351950
	 R(9,21)          =         2.050161	       1.084899
	 R(10,11)         =         2.734183	       1.446867
	 B(1,2,4)         =         2.094553	     120.009056
	 B(1,2,14)        =         2.094726	     120.018942
	 B(1,3,5)         =         2.093692	     119.959722
	 B(1,3,15)        =         2.095250	     120.048965
	 B(2,1,3)         =         2.094940	     120.031219
	 B(2,1,13)        =         2.093950	     119.974480
	 B(2,4,10)        =         2.094306	     119.994870
	 B(2,4,16)        =         2.079681	     119.156970
	 B(3,1,13)        =         2.094293	     119.994160
	 B(3,5,10)        =         2.095181	     120.045019
	 B(3,5,17)        =         2.079222	     119.130634
	 B(4,2,14)        =         2.093904	     119.971849
	 B(4,10,5)        =         2.093699	     119.960108
	 B(4,10,11)       =         2.094138	     119.985297
	 B(5,3,15)        =         2.094242	     119.991253
	 B(5,10,11)       =         2.095348	     120.054595
	 B(6,8,12)        =         2.165570	     124.078038
	 B(6,8,20)        =         2.106659	     120.702671
	 B(6,11,7)        =         2.090644	     119.785063
	 B(6,11,10)       =         2.096647	     120.129023
	 B(7,9,12)        =         2.164939	     124.041857
	 B(7,9,21)        =         2.108278	     120.795418
	 B(7,11,10)       =         2.095895	     120.085914
	 B(8,6,11)        =         2.056829	     117.847611
	 B(8,6,18)        =         2.099160	     120.273013
	 B(8,12,9)        =         2.031082	     116.372431
	 B(9,7,11)        =         2.057306	     117.874954
	 B(9,7,19)        =         2.099164	     120.273265
	 B(10,4,16)       =         2.109198	     120.848149
	 B(10,5,17)       =         2.108782	     120.824331
	 B(11,6,18)       =         2.127195	     121.879287
	 B(11,7,19)       =         2.126715	     121.851765
	 B(12,8,20)       =         2.010954	     115.219190
	 B(12,9,21)       =         2.009968	     115.162666
	 D(1,2,4,10)      =        -0.000325	      -0.018609
	 D(1,2,4,16)      =        -3.141283	    -179.982244
	 D(1,3,5,10)      =         0.000325	       0.018608
	 D(1,3,5,17)      =         3.141117	     179.972749
	 D(2,1,3,5)       =        -0.000348	      -0.019945
	 D(2,1,3,15)      =         3.139689	     179.890913
	 D(2,4,10,5)      =         0.000301	       0.017261
	 D(2,4,10,11)     =        -3.141289	    -179.982587
	 D(3,1,2,4)       =         0.000348	       0.019955
	 D(3,1,2,14)      =        -3.138767	    -179.838124
	 D(3,5,10,4)      =        -0.000301	      -0.017270
	 D(3,5,10,11)     =         3.141289	     179.982578
	 D(4,2,1,13)      =         3.139559	     179.883471
	 D(4,10,5,17)     =        -3.141080	    -179.970623
	 D(4,10,11,6)     =         1.046868	      59.981127
	 D(4,10,11,7)     =        -2.094740	    -120.019737
	 D(5,3,1,13)      =        -3.139558	    -179.883434
	 D(5,10,4,16)     =         3.141248	     179.980271
	 D(5,10,11,6)     =        -2.094722	    -120.018721
	 D(5,10,11,7)     =         1.046856	      59.980415
	 D(6,8,12,9)      =        -0.000325	      -0.018635
	 D(6,11,7,9)      =         0.001288	       0.073783
	 D(6,11,7,19)     =        -3.141103	    -179.971956
	 D(7,9,12,8)      =         0.000283	       0.016229
	 D(7,11,6,8)      =        -0.001325	      -0.075909
	 D(7,11,6,18)     =        -3.141019	    -179.967154
	 D(8,6,11,10)     =         3.140253	     179.923230
	 D(8,12,9,21)     =         3.140327	     179.927488
	 D(9,7,11,10)     =        -3.140290	    -179.925356
	 D(9,12,8,20)     =         3.139261	     179.866426
	 D(10,4,2,14)     =         3.138792	     179.839537
	 D(10,5,3,15)     =        -3.139713	    -179.892302
	 D(10,11,6,18)    =         0.000558	       0.031985
	 D(10,11,7,19)    =         0.000504	       0.028905
	 D(11,6,8,12)     =         0.000857	       0.049086
	 D(11,6,8,20)     =        -3.138625	    -179.829979
	 D(11,7,9,12)     =        -0.000776	      -0.044454
	 D(11,7,9,21)     =        -3.140737	    -179.950950
	 D(11,10,4,16)    =        -0.000342	      -0.019577
	 D(11,10,5,17)    =         0.000510	       0.029225
	 D(12,8,6,18)     =         3.140583	     179.942153
	 D(12,9,7,19)     =         3.141593	     180.000000
	 D(13,1,2,14)     =         0.000443	       0.025392
	 D(13,1,3,15)     =         0.000479	       0.027424
	 D(14,2,4,16)     =        -0.002166	      -0.124098
	 D(15,3,5,17)     =         0.001079	       0.061840
	 D(18,6,8,20)     =         0.001101	       0.063088
	 D(19,7,9,21)     =         0.001641	       0.094036

	Current energy   :      -478.5735507803

	Generating empirical Hessian (Schlegel '84) for each fragment.
	Adding user-defined constraint: Fragment 1; Coordinate 71:
		Value =     1.046868; Fixed value    =     1.047198
		Force =     0.000165; Force constant =     0.500000
	Removing off-diagonal coupling between coordinate 71 and others.
	Taking RFO optimization step.
	Going to follow RFO solution 1.
	Using RFO vector 1.

	Determining step-restricting scale parameter for RS-RFO.
	Maximum step size allowed    0.10000

	 Iter      |step|        alpha        rfo_root  
	------------------------------------------------
	    0     0.16662       1.00000           1
	    1     0.13092       4.33723           1
	    2     0.11211       9.64533           1
	    3     0.10279      15.01603           1
	    4     0.10019      17.06107           1
	    5     0.10000      17.21733           1
	------------------------------------------------
	Norm of target step-size    0.10000
	Projected energy change by RFO approximation:        -0.0034613257

	Back-transformation to cartesian coordinates...
	Could not converge backtransformation.
	Using first guess instead.

	--- Internal Coordinate Step in ANG or DEG, aJ/ANG or AJ/DEG ---
	 ---------------------------------------------------------------------------
	   Coordinate                Previous        Force       Change         New 
	   ----------                --------       ------       ------       ------
	    1 R(1,2)          =      1.394038    -0.046869    -0.005808     1.388230
	    2 R(1,3)          =      1.394891    -0.052407    -0.006499     1.388392
	    3 R(1,13)         =      1.086575    -0.042287    -0.006593     1.079982
	    4 R(2,4)          =      1.394821    -0.048656    -0.005955     1.388866
	    5 R(2,14)         =      1.086327    -0.039788    -0.006201     1.080125
	    6 R(3,5)          =      1.394821    -0.048623    -0.005952     1.388869
	    7 R(3,15)         =      1.085910    -0.037736    -0.005861     1.080049
	    8 R(4,10)         =      1.395407    -0.023347    -0.002712     1.392696
	    9 R(4,16)         =      1.087946    -0.046896    -0.007300     1.080646
	   10 R(5,10)         =      1.394521    -0.018071    -0.002056     1.392465
	   11 R(5,17)         =      1.087912    -0.046470    -0.007203     1.080709
	   12 R(6,8)          =      1.386022     0.003948     0.000456     1.386478
	   13 R(6,11)         =      1.390359    -0.013983    -0.001005     1.389354
	   14 R(6,18)         =      1.085057    -0.036635    -0.005687     1.079370
	   15 R(7,9)          =      1.385701     0.005002     0.000581     1.386283
	   16 R(7,11)         =      1.390255    -0.012219    -0.000837     1.389418
	   17 R(7,19)         =      1.084785    -0.035035    -0.005423     1.079361
	   18 R(8,12)         =      1.350956    -0.114005    -0.012387     1.338570
	   19 R(8,20)         =      1.085107    -0.022671    -0.003518     1.081589
	   20 R(9,12)         =      1.351950    -0.119118    -0.012981     1.338970
	   21 R(9,21)         =      1.084899    -0.021852    -0.003369     1.081530
	   22 R(10,11)        =      1.446867     0.134091     0.019305     1.466172
	   23 B(1,2,4)        =    120.009056     0.000031     0.050208   120.059264
	   24 B(1,2,14)       =    120.018942    -0.000012    -0.010736   120.008206
	   25 B(1,3,5)        =    119.959722     0.000040     0.073021   120.032743
	   26 B(1,3,15)       =    120.048965    -0.000018    -0.027425   120.021540
	   27 B(2,1,3)        =    120.031219    -0.000044    -0.172877   119.858342
	   28 B(2,1,13)       =    119.974480     0.000025     0.096306   120.070786
	   29 B(2,4,10)       =    119.994870     0.000160     0.437486   120.432356
	   30 B(2,4,16)       =    119.156970     0.000143     0.548976   119.705946
	   31 B(3,1,13)       =    119.994160     0.000019     0.076704   120.070864
	   32 B(3,5,10)       =    120.045019     0.000152     0.415314   120.460333
	   33 B(3,5,17)       =    119.130634     0.000146     0.555863   119.686497
	   34 B(4,2,14)       =    119.971849    -0.000020    -0.039320   119.932530
	   35 B(4,10,5)       =    119.960108    -0.000340    -0.803549   119.156559
	   36 B(4,10,11)      =    119.985297     0.000177     0.420601   120.405898
	   37 B(5,3,15)       =    119.991253    -0.000022    -0.045623   119.945630
	   38 B(5,10,11)      =    120.054595     0.000163     0.381549   120.436143
	   39 B(6,8,12)       =    124.078038    -0.000023    -0.168219   123.909819
	   40 B(6,8,20)       =    120.702671    -0.000033    -0.070656   120.632015
	   41 B(6,11,7)       =    119.785063    -0.000893    -2.031921   117.753142
	   42 B(6,11,10)      =    120.129023     0.000442     1.005113   121.134136
	   43 B(7,9,12)       =    124.041857    -0.000017    -0.152690   123.889166
	   44 B(7,9,21)       =    120.795418    -0.000045    -0.107933   120.687485
	   45 B(7,11,10)      =    120.085914     0.000452     1.025405   121.111319
	   46 B(8,6,11)       =    117.847611     0.000399     1.145856   118.993466
	   47 B(8,6,18)       =    120.273013    -0.000023     0.034961   120.307974
	   48 B(8,12,9)       =    116.372431     0.000137     0.070925   116.443356
	   49 B(9,7,11)       =    117.874954     0.000397     1.135903   119.010857
	   50 B(9,7,19)       =    120.273265    -0.000023     0.035559   120.308824
	   51 B(10,4,16)      =    120.848149    -0.000303    -0.986700   119.861449
	   52 B(10,5,17)      =    120.824331    -0.000298    -0.971731   119.852600
	   53 B(11,6,18)      =    121.879287    -0.000377    -1.181185   120.698102
	   54 B(11,7,19)      =    121.851765    -0.000374    -1.171742   120.680023
	   55 B(12,8,20)      =    115.219190     0.000056     0.238407   115.457597
	   56 B(12,9,21)      =    115.162666     0.000062     0.260412   115.423077
	   57 D(1,2,4,10)     =     -0.018609     0.000001     0.007162    -0.011447
	   58 D(1,2,4,16)     =   -179.982244    -0.000004    -0.210970  -180.193214
	   59 D(1,3,5,10)     =      0.018608     0.000003     0.148978     0.167586
	   60 D(1,3,5,17)     =    179.972749    -0.000003    -0.080194   179.892555
	   61 D(2,1,3,5)      =     -0.019945    -0.000000     0.011981    -0.007964
	   62 D(2,1,3,15)     =    179.890913    -0.000001    -0.006360   179.884553
	   63 D(2,4,10,5)     =      0.017261     0.000001     0.151032     0.168293
	   64 D(2,4,10,11)    =   -179.982587    -0.000004    -0.277619  -180.260206
	   65 D(3,1,2,4)      =      0.019955    -0.000002    -0.089618    -0.069664
	   66 D(3,1,2,14)     =   -179.838124    -0.000005    -0.234696  -180.072820
	   67 D(3,5,10,4)     =     -0.017270    -0.000003    -0.229058    -0.246328
	   68 D(3,5,10,11)    =    179.982578     0.000002     0.199726   180.182303
	   69 D(4,2,1,13)     =    179.883471     0.000000     0.014035   179.897505
	   70 D(4,10,5,17)    =   -179.970623     0.000002    -0.000218  -179.970841
	   71 D(4,10,11,6)    =     59.981127    -0.000017    -0.215873    59.765254
	   72 D(4,10,11,7)    =   -120.019737    -0.000022    -0.655626  -120.675363
	   73 D(5,3,1,13)     =   -179.883434    -0.000002    -0.091700  -179.975133
	   74 D(5,10,4,16)    =    179.980271     0.000007     0.370072   180.350343
	   75 D(5,10,11,6)    =   -120.018721    -0.000022    -0.650040  -120.668760
	   76 D(5,10,11,7)    =     59.980415    -0.000027    -1.089792    58.890623
	   77 D(6,8,12,9)     =     -0.018635    -0.000000    -0.034653    -0.053288
	   78 D(6,11,7,9)     =      0.073783    -0.000003    -0.229075    -0.155292
	   79 D(6,11,7,19)    =   -179.971956     0.000002     0.013929  -179.958026
	   80 D(7,9,12,8)     =      0.016229     0.000000     0.022005     0.038234
	   81 D(7,11,6,8)     =     -0.075909     0.000003     0.217514     0.141605
	   82 D(7,11,6,18)    =   -179.967154     0.000007     0.354101  -179.613052
	   83 D(8,6,11,10)    =    179.923230    -0.000002    -0.207903   179.715326
	   84 D(8,12,9,21)    =    179.927488    -0.000003    -0.078239   179.849249
	   85 D(9,7,11,10)    =   -179.925356     0.000002     0.196240  -179.729116
	   86 D(9,12,8,20)    =    179.866426    -0.000004    -0.193199   179.673227
	   87 D(10,4,2,14)    =    179.839537     0.000004     0.152170   179.991707
	   88 D(10,5,3,15)    =   -179.892302     0.000003     0.167288  -179.725014
	   89 D(10,11,6,18)   =      0.031985     0.000001    -0.071316    -0.039331
	   90 D(10,11,7,19)   =      0.028905     0.000008     0.439244     0.468150
	   91 D(11,6,8,12)    =      0.049086    -0.000001    -0.086963    -0.037877
	   92 D(11,6,8,20)    =   -179.829979     0.000002     0.079078  -179.750901
	   93 D(11,7,9,12)    =     -0.044454     0.000002     0.111911     0.067457
	   94 D(11,7,9,21)    =   -179.950950     0.000005     0.216885  -179.734065
	   95 D(11,10,4,16)   =     -0.019577     0.000002    -0.058579    -0.078156
	   96 D(11,10,5,17)   =      0.029225     0.000007     0.428566     0.457791
	   97 D(12,8,6,18)    =    179.942153    -0.000005    -0.224391   179.717763
	   98 D(12,9,7,19)    =    180.000000    -0.000004    -0.129058   179.870942
	   99 D(13,1,2,14)    =      0.025392    -0.000003    -0.131043    -0.105651
	  100 D(13,1,3,15)    =      0.027424    -0.000003    -0.110040    -0.082615
	  101 D(14,2,4,16)    =     -0.124098    -0.000001    -0.065962    -0.190060
	  102 D(15,3,5,17)    =      0.061840    -0.000002    -0.061840     0.000000
	  103 D(18,6,8,20)    =      0.063088    -0.000001    -0.058350     0.004738
	  104 D(19,7,9,21)    =      0.094036    -0.000001    -0.024616     0.069420
	 ---------------------------------------------------------------------------
	Successfully symmetrized geometry.
	 Forces used to impose fixed constraints are not included.
	  Forces zeroed: 71 

  ==> Convergence Check <==

  Measures of convergence in internal coordinates in au.
  Criteria marked as inactive (o), active & met (*), and active & unmet ( ).
  --------------------------------------------------------------------------------------------- ~
   Step     Total Energy     Delta E     MAX Force     RMS Force      MAX Disp      RMS Disp    ~
  --------------------------------------------------------------------------------------------- ~
    Convergence Criteria    1.00e-06 *    3.00e-04 *             o    1.20e-03 *             o  ~
  --------------------------------------------------------------------------------------------- ~
      1    -478.57355078   -4.79e+02      1.63e-02      3.69e-03 o    3.65e-02      9.81e-03 o  ~
  ---------------------------------------------------------------------------------------------

	Writing optimization data to binary file.
	Structure for next step:
	Cartesian Geometry (in Angstrom)
	    C     0.1099916071   0.0546956701  -3.5429428252
	    C    -0.9664228807   0.6197201197  -2.8726725459
	    C     1.1421257490  -0.5315825152  -2.8227978259
	    C    -1.0112025789   0.5971534287  -1.4847121022
	    C     1.0970695332  -0.5521434531  -1.4348117973
	    C    -1.0670125608  -0.6296805108   1.3891130460
	    C     0.9762089811   0.5859709484   1.4668857647
	    C    -1.0621642517  -0.6256614666   2.7755765351
	    C     0.8927632799   0.5377941052   2.8498156556
	    C     0.0193160380   0.0094954233  -0.7551297436
	    C    -0.0257920223  -0.0089679168   0.7102323640
	    N    -0.1051955013  -0.0549205046   3.5173545005
	    H     0.1442025556   0.0706721940  -4.6222648036
	    H    -1.7701392729   1.0775087582  -3.4304720757
	    H     1.9799424288  -0.9736044046  -3.3416285601
	    H    -1.8503259684   1.0414486527  -0.9686986436
	    H     1.9026644123  -1.0115146827  -0.8798996892
	    H    -1.8670934607  -1.1121309509   0.8486019376
	    H     1.8068886023   1.0818562323   0.9882521670
	    H    -1.8573575976  -1.1043892991   3.3308444767
	    H     1.6553478593   0.9956355062   3.4650818979
			--------------------------
			 OPTKING Finished Execution 
			--------------------------

    Structure for next step:
    Molecular point group: c1
    Full point group: C1

    Geometry (in Angstrom), charge = 0, multiplicity = 1:

    C            0.110438055296     0.054834542930    -3.542621658448
    C           -0.965976432535     0.619858992453    -2.872351379139
    C            1.142572197245    -0.531443642407    -2.822476659182
    C           -1.010756130660     0.597292301532    -1.484390935416
    C            1.097515981422    -0.552004580279    -1.434490630591
    C           -1.066566112566    -0.629541638021     1.389434212759
    C            0.976655429309     0.586109821214     1.467206931404
    C           -1.061717803529    -0.625522593773     2.775897701861
    C            0.893209728104     0.537932977965     2.850136822360
    C            0.019762486250     0.009634296129    -0.754808576897
    C           -0.025345574106    -0.008829043996     0.710553530714
    N           -0.104749053131    -0.054781631858     3.517675667233
    H            0.144649003809     0.070811066753    -4.621943636833
    H           -1.769692824693     1.077647631001    -3.430150908927
    H            1.980388876973    -0.973465531840    -3.341307393392
    H           -1.849879520179     1.041587525483    -0.968377476896
    H            1.903110860517    -1.011375809905    -0.879578522430
    H           -1.866647012482    -1.111992078106     0.848923104366
    H            1.807335050478     1.081995105105     0.988573333740
    H           -1.856911149399    -1.104250426351     3.331165643420
    H            1.655794307497     0.995774378954     3.465403064649

gradient() will perform analytic gradient computation.

*** tstart() called on gpu-1-12.local
*** at Sat Nov 11 10:12:49 2017

    SCF Algorithm Type (re)set to DF.

*** tstart() called on gpu-1-12.local
*** at Sat Nov 11 10:12:49 2017

   => Loading Basis Set <=

    Name: AUG-CC-PVTZ
    Role: ORBITAL
    Keyword: BASIS
    atoms 1-11  entry C          line   221 file /cbio/jclab/home/chayas/anaconda/envs/py35/share/psi4/basis/aug-cc-pvtz.gbs 
    atoms 12    entry N          line   267 file /cbio/jclab/home/chayas/anaconda/envs/py35/share/psi4/basis/aug-cc-pvtz.gbs 
    atoms 13-21 entry H          line    34 file /cbio/jclab/home/chayas/anaconda/envs/py35/share/psi4/basis/aug-cc-pvtz.gbs 


         ---------------------------------------------------------
                                   SCF
            by Justin Turney, Rob Parrish, and Andy Simmonett
                              RHF Reference
                        8 Threads,    500 MiB Core
         ---------------------------------------------------------

  ==> Geometry <==

    Molecular point group: c1
    Full point group: C1

    Geometry (in Angstrom), charge = 0, multiplicity = 1:

       Center              X                  Y                   Z               Mass       
    ------------   -----------------  -----------------  -----------------  -----------------
           C          0.110438055296     0.054834542930    -3.542621658448    12.000000000000
           C         -0.965976432535     0.619858992453    -2.872351379139    12.000000000000
           C          1.142572197245    -0.531443642407    -2.822476659182    12.000000000000
           C         -1.010756130660     0.597292301532    -1.484390935416    12.000000000000
           C          1.097515981422    -0.552004580279    -1.434490630591    12.000000000000
           C         -1.066566112566    -0.629541638021     1.389434212759    12.000000000000
           C          0.976655429309     0.586109821214     1.467206931404    12.000000000000
           C         -1.061717803529    -0.625522593773     2.775897701861    12.000000000000
           C          0.893209728104     0.537932977965     2.850136822360    12.000000000000
           C          0.019762486250     0.009634296129    -0.754808576897    12.000000000000
           C         -0.025345574106    -0.008829043996     0.710553530714    12.000000000000
           N         -0.104749053131    -0.054781631858     3.517675667233    14.003074004780
           H          0.144649003809     0.070811066753    -4.621943636833     1.007825032070
           H         -1.769692824693     1.077647631001    -3.430150908927     1.007825032070
           H          1.980388876973    -0.973465531840    -3.341307393392     1.007825032070
           H         -1.849879520179     1.041587525483    -0.968377476896     1.007825032070
           H          1.903110860517    -1.011375809905    -0.879578522430     1.007825032070
           H         -1.866647012482    -1.111992078106     0.848923104366     1.007825032070
           H          1.807335050478     1.081995105105     0.988573333740     1.007825032070
           H         -1.856911149399    -1.104250426351     3.331165643420     1.007825032070
           H          1.655794307497     0.995774378954     3.465403064649     1.007825032070

  Running in c1 symmetry.

  Rotational constants: A =      0.09892  B =      0.01802  C =      0.01649 [cm^-1]
  Rotational constants: A =   2965.61733  B =    540.22643  C =    494.31445 [MHz]
  Nuclear repulsion =  605.811652523752628

  Charge       = 0
  Multiplicity = 1
  Electrons    = 82
  Nalpha       = 41
  Nbeta        = 41

  ==> Algorithm <==

  SCF Algorithm Type is DF.
  DIIS enabled.
  MOM disabled.
  Fractional occupation disabled.
  Guess Type is READ.
  Energy threshold   = 1.00e-10
  Density threshold  = 1.00e-10
  Integral threshold = 0.00e+00

  ==> Primary Basis <==

  Basis Set: AUG-CC-PVTZ
    Blend: AUG-CC-PVTZ
    Number of shells: 249
    Number of basis function: 759
    Number of Cartesian functions: 885
    Spherical Harmonics?: true
    Max angular momentum: 3

   => Loading Basis Set <=

    Name: (AUG-CC-PVTZ AUX)
    Role: JKFIT
    Keyword: DF_BASIS_SCF
    atoms 1-11  entry C          line   161 file /cbio/jclab/home/chayas/anaconda/envs/py35/share/psi4/basis/aug-cc-pvtz-jkfit.gbs 
    atoms 12    entry N          line   223 file /cbio/jclab/home/chayas/anaconda/envs/py35/share/psi4/basis/aug-cc-pvtz-jkfit.gbs 
    atoms 13-21 entry H          line    69 file /cbio/jclab/home/chayas/anaconda/envs/py35/share/psi4/basis/aug-cc-pvtz-jkfit.gbs 

  Reading orbitals from file 180, no projection.

  ==> Pre-Iterations <==

   -------------------------------------------------------
    Irrep   Nso     Nmo     Nalpha   Nbeta   Ndocc  Nsocc
   -------------------------------------------------------
     A        759     759       0       0       0       0
   -------------------------------------------------------
    Total     759     759      41      41      41       0
   -------------------------------------------------------

  ==> Integral Setup <==

  ==> DFJK: Density-Fitted J/K Matrices <==

    J tasked:                  Yes
    K tasked:                  Yes
    wK tasked:                  No
    OpenMP threads:              8
    Integrals threads:           8
    Memory (MB):               375
    Algorithm:                Disk
    Integral Cache:           NONE
    Schwarz Cutoff:          1E-12
    Fitting Condition:       1E-12

   => Auxiliary Basis Set <=

  Basis Set: (AUG-CC-PVTZ AUX)
    Blend: AUG-CC-PVTZ-JKFIT
    Number of shells: 486
    Number of basis function: 1662
    Number of Cartesian functions: 2067
    Spherical Harmonics?: true
    Max angular momentum: 4

  Minimum eigenvalue in the overlap matrix is 4.7117484175E-07.
  Using Symmetric Orthogonalization.

  SCF Guess: Orbitals guess was supplied from a previous computation.

  ==> Iterations <==

                           Total Energy        Delta E     RMS |[F,P]|

   @DF-RHF iter   0:  -476.53482696672859   -4.76535e+02   5.38928e-04 
   @DF-RHF iter   1:  -476.39975983571424    1.35067e-01   1.71698e-04 
   @DF-RHF iter   2:  -476.40056538050453   -8.05545e-04   8.04404e-05 DIIS
   @DF-RHF iter   3:  -476.40118607432311   -6.20694e-04   1.67501e-05 DIIS
   @DF-RHF iter   4:  -476.40119745510850   -1.13808e-05   4.98126e-06 DIIS
   @DF-RHF iter   5:  -476.40119951793230   -2.06282e-06   1.51575e-06 DIIS
   @DF-RHF iter   6:  -476.40119993516601   -4.17234e-07   1.02577e-06 DIIS
   @DF-RHF iter   7:  -476.40120011361557   -1.78450e-07   3.27789e-07 DIIS
   @DF-RHF iter   8:  -476.40120015966892   -4.60533e-08   1.33652e-07 DIIS
   @DF-RHF iter   9:  -476.40120016386061   -4.19169e-09   5.02161e-08 DIIS
   @DF-RHF iter  10:  -476.40120016422816   -3.67550e-10   1.44603e-08 DIIS
   @DF-RHF iter  11:  -476.40120016424146   -1.33014e-11   3.70738e-09 DIIS
   @DF-RHF iter  12:  -476.40120016428671   -4.52474e-11   1.31401e-09 DIIS
   @DF-RHF iter  13:  -476.40120016426272    2.39879e-11   8.51591e-10 DIIS
   @DF-RHF iter  14:  -476.40120016427926   -1.65414e-11   3.76093e-10 DIIS
   @DF-RHF iter  15:  -476.40120016426397    1.52909e-11   1.70769e-10 DIIS
   @DF-RHF iter  16:  -476.40120016425726    6.70752e-12   7.90241e-11 DIIS

  ==> Post-Iterations <==

    Orbital Energies (a.u.)
    -----------------------

    Doubly Occupied:                                                      

       1A    -15.563401     2A    -11.273122     3A    -11.273096  
       4A    -11.264590     5A    -11.252147     6A    -11.243662  
       7A    -11.243580     8A    -11.242548     9A    -11.242273  
      10A    -11.240868    11A    -11.237679    12A    -11.237636  
      13A     -1.257753    14A     -1.174692    15A     -1.107962  
      16A     -1.035654    17A     -1.025985    18A     -1.018792  
      19A     -0.880062    20A     -0.862920    21A     -0.834880  
      22A     -0.807750    23A     -0.731909    24A     -0.687225  
      25A     -0.670872    26A     -0.657001    27A     -0.634989  
      28A     -0.633817    29A     -0.599447    30A     -0.595850  
      31A     -0.582155    32A     -0.543033    33A     -0.525882  
      34A     -0.509922    35A     -0.508105    36A     -0.501620  
      37A     -0.419075    38A     -0.390800    39A     -0.351227  
      40A     -0.345481    41A     -0.334562  

    Virtual:                                                              

      42A      0.025214    43A      0.030846    44A      0.032669  
      45A      0.037179    46A      0.043419    47A      0.046997  
      48A      0.051440    49A      0.054064    50A      0.060535  
      51A      0.081019    52A      0.085691    53A      0.089904  
      54A      0.093500    55A      0.093891    56A      0.098429  
      57A      0.100853    58A      0.107469    59A      0.108021  
      60A      0.110852    61A      0.114422    62A      0.114768  
      63A      0.119877    64A      0.121925    65A      0.126311  
      66A      0.129247    67A      0.130328    68A      0.132368  
      69A      0.135281    70A      0.143378    71A      0.144456  
      72A      0.144580    73A      0.149588    74A      0.151895  
      75A      0.153925    76A      0.157010    77A      0.159843  
      78A      0.172046    79A      0.175982    80A      0.176776  
      81A      0.187786    82A      0.189890    83A      0.200561  
      84A      0.204937    85A      0.214295    86A      0.225782  
      87A      0.228180    88A      0.234836    89A      0.239561  
      90A      0.242102    91A      0.242577    92A      0.247840  
      93A      0.251780    94A      0.254576    95A      0.260697  
      96A      0.265486    97A      0.265618    98A      0.270645  
      99A      0.272753   100A      0.278574   101A      0.282869  
     102A      0.287212   103A      0.294015   104A      0.295745  
     105A      0.300185   106A      0.305952   107A      0.306133  
     108A      0.312772   109A      0.316707   110A      0.319763  
     111A      0.325284   112A      0.326510   113A      0.330539  
     114A      0.332090   115A      0.333043   116A      0.344935  
     117A      0.350877   118A      0.358405   119A      0.361230  
     120A      0.363148   121A      0.364047   122A      0.375597  
     123A      0.384298   124A      0.389162   125A      0.395433  
     126A      0.399058   127A      0.409616   128A      0.413606  
     129A      0.416212   130A      0.417146   131A      0.424065  
     132A      0.427212   133A      0.438748   134A      0.441803  
     135A      0.443688   136A      0.444489   137A      0.446293  
     138A      0.448434   139A      0.458880   140A      0.462259  
     141A      0.472327   142A      0.473203   143A      0.477503  
     144A      0.478163   145A      0.481096   146A      0.482018  
     147A      0.485659   148A      0.486849   149A      0.489319  
     150A      0.491886   151A      0.499809   152A      0.501542  
     153A      0.507754   154A      0.511343   155A      0.512715  
     156A      0.517086   157A      0.521625   158A      0.522215  
     159A      0.526549   160A      0.531664   161A      0.532750  
     162A      0.539115   163A      0.540756   164A      0.547304  
     165A      0.550522   166A      0.552154   167A      0.553354  
     168A      0.556281   169A      0.569577   170A      0.572007  
     171A      0.578773   172A      0.589533   173A      0.592453  
     174A      0.599809   175A      0.605915   176A      0.607480  
     177A      0.615318   178A      0.626613   179A      0.630017  
     180A      0.634930   181A      0.638163   182A      0.643620  
     183A      0.659139   184A      0.668016   185A      0.674005  
     186A      0.675595   187A      0.680627   188A      0.686850  
     189A      0.689427   190A      0.697560   191A      0.701168  
     192A      0.706102   193A      0.707575   194A      0.714556  
     195A      0.716615   196A      0.721381   197A      0.732003  
     198A      0.740743   199A      0.744317   200A      0.745729  
     201A      0.748713   202A      0.750627   203A      0.768590  
     204A      0.774037   205A      0.781184   206A      0.784883  
     207A      0.796767   208A      0.800552   209A      0.811358  
     210A      0.819609   211A      0.824892   212A      0.827530  
     213A      0.830867   214A      0.850188   215A      0.852596  
     216A      0.859856   217A      0.864277   218A      0.866912  
     219A      0.872406   220A      0.873965   221A      0.876806  
     222A      0.885454   223A      0.888091   224A      0.892334  
     225A      0.893277   226A      0.899729   227A      0.903049  
     228A      0.910798   229A      0.913715   230A      0.916123  
     231A      0.927263   232A      0.928521   233A      0.929570  
     234A      0.936798   235A      0.938540   236A      0.946075  
     237A      0.951952   238A      0.952554   239A      0.956968  
     240A      0.965399   241A      0.970255   242A      0.976034  
     243A      0.983947   244A      0.989957   245A      0.992780  
     246A      0.995393   247A      0.997863   248A      1.004966  
     249A      1.008943   250A      1.014532   251A      1.016049  
     252A      1.025763   253A      1.027312   254A      1.039917  
     255A      1.041461   256A      1.045737   257A      1.046598  
     258A      1.056032   259A      1.058597   260A      1.068124  
     261A      1.076674   262A      1.078355   263A      1.085405  
     264A      1.087754   265A      1.089596   266A      1.094009  
     267A      1.100187   268A      1.100927   269A      1.105975  
     270A      1.108440   271A      1.120873   272A      1.126672  
     273A      1.131571   274A      1.134484   275A      1.139841  
     276A      1.143476   277A      1.151068   278A      1.151883  
     279A      1.157619   280A      1.166298   281A      1.167046  
     282A      1.177563   283A      1.184200   284A      1.189334  
     285A      1.192058   286A      1.195168   287A      1.199226  
     288A      1.200896   289A      1.204081   290A      1.213237  
     291A      1.216506   292A      1.223331   293A      1.223762  
     294A      1.240139   295A      1.247003   296A      1.251661  
     297A      1.256365   298A      1.265021   299A      1.265754  
     300A      1.270548   301A      1.273095   302A      1.280083  
     303A      1.290211   304A      1.297198   305A      1.300091  
     306A      1.305321   307A      1.314201   308A      1.314941  
     309A      1.323918   310A      1.328101   311A      1.346723  
     312A      1.353854   313A      1.362577   314A      1.376219  
     315A      1.379805   316A      1.382627   317A      1.387306  
     318A      1.396776   319A      1.408639   320A      1.409532  
     321A      1.417824   322A      1.423262   323A      1.434403  
     324A      1.434852   325A      1.441983   326A      1.453340  
     327A      1.469677   328A      1.475851   329A      1.479236  
     330A      1.487603   331A      1.500076   332A      1.501026  
     333A      1.514517   334A      1.530458   335A      1.539188  
     336A      1.547768   337A      1.548801   338A      1.562499  
     339A      1.567584   340A      1.570648   341A      1.580852  
     342A      1.588396   343A      1.591248   344A      1.602001  
     345A      1.604826   346A      1.624941   347A      1.636796  
     348A      1.638871   349A      1.646036   350A      1.652418  
     351A      1.666842   352A      1.679598   353A      1.685174  
     354A      1.691675   355A      1.697433   356A      1.710711  
     357A      1.711081   358A      1.721972   359A      1.728457  
     360A      1.730766   361A      1.737045   362A      1.744299  
     363A      1.746566   364A      1.756082   365A      1.757709  
     366A      1.772027   367A      1.781742   368A      1.805058  
     369A      1.811208   370A      1.823830   371A      1.825543  
     372A      1.829920   373A      1.840254   374A      1.846490  
     375A      1.852637   376A      1.858171   377A      1.872058  
     378A      1.887456   379A      1.892800   380A      1.898747  
     381A      1.906394   382A      1.912869   383A      1.921883  
     384A      1.924912   385A      1.935552   386A      1.945410  
     387A      1.947115   388A      1.957403   389A      1.976270  
     390A      1.979095   391A      1.987495   392A      1.997285  
     393A      2.002899   394A      2.003422   395A      2.009217  
     396A      2.022345   397A      2.033903   398A      2.034235  
     399A      2.042409   400A      2.054638   401A      2.055357  
     402A      2.064199   403A      2.070847   404A      2.082868  
     405A      2.088899   406A      2.093916   407A      2.097924  
     408A      2.103849   409A      2.114199   410A      2.116679  
     411A      2.141694   412A      2.144786   413A      2.155661  
     414A      2.159574   415A      2.164254   416A      2.169146  
     417A      2.181305   418A      2.188914   419A      2.193478  
     420A      2.201117   421A      2.207476   422A      2.210732  
     423A      2.229992   424A      2.242334   425A      2.255067  
     426A      2.258885   427A      2.264418   428A      2.287051  
     429A      2.291917   430A      2.299882   431A      2.319646  
     432A      2.328454   433A      2.333004   434A      2.334175  
     435A      2.353962   436A      2.366637   437A      2.370957  
     438A      2.375389   439A      2.385241   440A      2.400283  
     441A      2.405333   442A      2.418093   443A      2.436204  
     444A      2.437873   445A      2.461443   446A      2.482106  
     447A      2.482781   448A      2.489106   449A      2.517075  
     450A      2.528343   451A      2.542970   452A      2.545712  
     453A      2.569602   454A      2.571816   455A      2.588075  
     456A      2.590620   457A      2.602368   458A      2.608707  
     459A      2.627767   460A      2.634815   461A      2.654087  
     462A      2.676784   463A      2.715363   464A      2.716737  
     465A      2.752577   466A      2.758506   467A      2.759101  
     468A      2.785426   469A      2.795042   470A      2.830924  
     471A      2.838602   472A      2.849701   473A      2.851970  
     474A      2.874274   475A      2.892578   476A      2.971403  
     477A      2.976085   478A      2.998780   479A      3.067093  
[...]
Total time:
	user time   =   13055.92 seconds =     217.60 minutes
	system time =     232.51 seconds =       3.88 minutes
	total time  =       4111 seconds =      68.52 minutes

  //>>>>>>>>>>>>>>>>>>>>>>>>>>>>>>>>>>>//
  //               DFMP2               //
  //<<<<<<<<<<<<<<<<<<<<<<<<<<<<<<<<<<<//

   => Loading Basis Set <=

    Name: (AUG-CC-PVTZ AUX)
    Role: RIFIT
    Keyword: DF_BASIS_MP2
    atoms 1-11  entry C          line   147 file /cbio/jclab/home/chayas/anaconda/envs/py35/share/psi4/basis/aug-cc-pvtz-ri.gbs 
    atoms 12    entry N          line   205 file /cbio/jclab/home/chayas/anaconda/envs/py35/share/psi4/basis/aug-cc-pvtz-ri.gbs 
    atoms 13-21 entry H          line    29 file /cbio/jclab/home/chayas/anaconda/envs/py35/share/psi4/basis/aug-cc-pvtz-ri.gbs 

	 --------------------------------------------------------
	                          DF-MP2                         
	      2nd-Order Density-Fitted Moller-Plesset Theory     
	              RMP2 Wavefunction,   8 Threads             
	                                                         
	        Rob Parrish, Justin Turney, Andy Simmonett,      
	           Ed Hohenstein, and C. David Sherrill          
	 --------------------------------------------------------

   => Auxiliary Basis Set <=

  Basis Set: (AUG-CC-PVTZ AUX)
    Blend: AUG-CC-PVTZ-RI
    Number of shells: 462
    Number of basis function: 1686
    Number of Cartesian functions: 2127
    Spherical Harmonics?: true
    Max angular momentum: 4

	 --------------------------------------------------------
	                 NBF =   759, NAUX =  1686
	 --------------------------------------------------------
	   CLASS    FOCC     OCC    AOCC    AVIR     VIR    FVIR
	   PAIRS       0      41      41     718     718       0
	 --------------------------------------------------------


         ------------------------------------------------------------
                                     CPHF                           
                                  Rob Parrish                       
         ------------------------------------------------------------

  ==> Geometry <==

    Molecular point group: c1
    Full point group: C1

    Geometry (in Angstrom), charge = 0, multiplicity = 1:

       Center              X                  Y                   Z               Mass       
    ------------   -----------------  -----------------  -----------------  -----------------
           C          0.117319432677     0.056455694586    -3.543567326458    12.000000000000
           C         -0.970465145140     0.606832524857    -2.878946029552    12.000000000000
           C          1.153883595389    -0.514515353028    -2.817344054992    12.000000000000
           C         -1.023516779170     0.581595901418    -1.492883227346    12.000000000000
           C          1.101179158358    -0.537019880393    -1.431225878354    12.000000000000
           C         -1.076572673890    -0.614236506248     1.399478126955    12.000000000000
           C          0.980558204920     0.569251408771     1.464390951421    12.000000000000
           C         -1.064766520594    -0.612109455789     2.785448023931    12.000000000000
           C          0.907428485414     0.522171304344     2.847602709722    12.000000000000
           C          0.007448067889     0.001766979771    -0.757569104104    12.000000000000
           C         -0.036937234577    -0.002355174034     0.708581189826    12.000000000000
           N         -0.094952499454    -0.055002368202     3.515634015009    14.003074004780
           H          0.158897297709     0.075845648121    -4.621479242171     1.007825032070
           H         -1.773257136821     1.061084802165    -3.438955166076     1.007825032070
           H          2.001120641373    -0.943969967665    -3.329657329941     1.007825032070
           H         -1.863044913811     1.019876726755    -0.974255266256     1.007825032070
           H          1.904687170988    -0.984397030554    -0.865208869730     1.007825032070
           H         -1.881386028998    -1.091833365815     0.861729734484     1.007825032070
           H          1.813498173574     1.054308853232     0.978492641244     1.007825032070
           H         -1.863920796983    -1.086329426864     3.337842333653     1.007825032070
           H          1.684909103656     0.970975389764     3.450228335508     1.007825032070

  Nuclear repulsion =  605.935063860773425
  Reference energy  = -476.401634734768152

  ==> Basis Set <==

  Basis Set: AUG-CC-PVTZ
    Blend: AUG-CC-PVTZ
    Number of shells: 249
    Number of basis function: 759
    Number of Cartesian functions: 885
    Spherical Harmonics?: true
    Max angular momentum: 3

  ==> CGRSolver (by Rob Parrish) <==

   Number of roots    =         1
   Preconditioning    =    JACOBI
   Convergence cutoff =     1E-06
   Maximum iterations =       100

  ==> CPHFRHamiltonian (by Rob Parrish) <== 

  ==> DFJK: Density-Fitted J/K Matrices <==

    J tasked:                  Yes
    K tasked:                  Yes
    wK tasked:                  No
    OpenMP threads:              8
    Integrals threads:           8
    Memory (MB):               375
    Algorithm:                Disk
    Integral Cache:           NONE
    Schwarz Cutoff:          1E-12
    Fitting Condition:       1E-12

   => Auxiliary Basis Set <=

  Basis Set: (AUG-CC-PVTZ AUX)
    Blend: AUG-CC-PVTZ-JKFIT
    Number of shells: 486
    Number of basis function: 1662
    Number of Cartesian functions: 2067
    Spherical Harmonics?: true
    Max angular momentum: 4

  ==> CPHF Iterations <==

  => Iterations <=

             Iter  Converged  Remaining    Residual
  CGR           1          0          1   7.914E-02
  CGR           2          0          1   2.719E-02
  CGR           3          0          1   1.864E-02
  CGR           4          0          1   8.431E-03
  CGR           5          0          1   2.353E-03
  CGR           6          0          1   7.842E-04
  CGR           7          0          1   3.154E-04
  CGR           8          0          1   9.791E-05
  CGR           9          0          1   4.765E-05
  CGR          10          0          1   2.229E-05
  CGR          11          0          1   6.323E-06
  CGR          12          0          1   2.267E-06
  CGR          13          1          0   6.718E-07

    CGRSolver converged.

  ==> DFCorrGrad: Density-Fitted Correlated Gradients <==

    OpenMP threads:              8
    Integrals threads:           8
    Memory (MB):               375
    Schwarz Cutoff:          0E+00
    Fitting Condition:       1E-12

   => Auxiliary Basis Set <=

  Basis Set: (AUG-CC-PVTZ AUX)
    Blend: AUG-CC-PVTZ-JKFIT
    Number of shells: 486
    Number of basis function: 1662
    Number of Cartesian functions: 2067
    Spherical Harmonics?: true
    Max angular momentum: 4

	-----------------------------------------------------------
	 ==================> DF-MP2 Energies <==================== 
	-----------------------------------------------------------
	 Reference Energy          =    -476.4016347347681517 [Eh]
	 Singles Energy            =      -0.0000000000000002 [Eh]
	 Same-Spin Energy          =      -0.5338001158311614 [Eh]
	 Opposite-Spin Energy      =      -1.6403757786613729 [Eh]
	 Correlation Energy        =      -2.1741758944925342 [Eh]
	 Total Energy              =    -478.5758106292606726 [Eh]
	-----------------------------------------------------------
	 ================> DF-SCS-MP2 Energies <================== 
	-----------------------------------------------------------
	 SCS Same-Spin Scale       =       0.3333333333333333 [-]
	 SCS Opposite-Spin Scale   =       1.2000000000000000 [-]
	 SCS Same-Spin Energy      =      -0.1779333719437204 [Eh]
	 SCS Opposite-Spin Energy  =      -1.9684509343936474 [Eh]
	 SCS Correlation Energy    =      -2.1463843063373678 [Eh]
	 SCS Total Energy          =    -478.5480190411055332 [Eh]
	-----------------------------------------------------------


  -Total Gradient:
     Atom            X                  Y                   Z
    ------   -----------------  -----------------  -----------------
       1       -0.000007714420    -0.000100787269    -0.000100435773
       2       -0.000096543154     0.000116155746    -0.000091457783
       3        0.000116864066    -0.000033707264    -0.000157218178
       4        0.001477534172     0.002125604045     0.000555427259
       5       -0.000565683203    -0.000366834749     0.000348642024
       6        0.001372171034    -0.002273681620    -0.000144714126
       7       -0.000277394708     0.000513685171    -0.000011719326
       8       -0.000711328376    -0.000246649375    -0.000677250049
       9        0.000741894441     0.000264417287    -0.000656962692
      10       -0.001081309014    -0.003492224681    -0.001321563712
      11       -0.001366139470     0.003477783894     0.001342795371
      12       -0.000026755254     0.000063508220     0.000426167874
      13        0.000027338222     0.000032371763     0.000111061433
      14        0.000067007295    -0.000067864471     0.000118004801
      15       -0.000033888530    -0.000006358507     0.000065058715
      16        0.000030629293     0.000024515328    -0.000265483871
      17        0.000142653402     0.000084972007    -0.000228161598
      18        0.000121229222     0.000051054290     0.000186289728
      19       -0.000012594756    -0.000170172836     0.000158472632
      20        0.000122189299    -0.000046674817     0.000126098186
      21       -0.000040159564     0.000050887847     0.000216949089


*** tstop() called on gpu-1-12.local at Sat Nov 11 11:14:50 2017
Module time:
	user time   =    5773.47 seconds =      96.22 minutes
	system time =      99.60 seconds =       1.66 minutes
	total time  =       1857 seconds =      30.95 minutes
Total time:
	user time   =   17806.25 seconds =     296.77 minutes
	system time =     296.30 seconds =       4.94 minutes
	total time  =       5658 seconds =      94.30 minutes

			-----------------------------------------
			 OPTKING 2.0: for geometry optimizations 
			  - R.A. King,  Bethel University        
			-----------------------------------------

	Previous internal coordinate definitions found.
	---Fragment 1 Geometry and Gradient---
	 C           0.2217015978        0.1066858014       -6.6963717804
	 C          -1.8339133458        1.1467472805       -5.4404195472
	 C           2.1805239845       -0.9722931084       -5.3240086860
	 C          -1.9341664050        1.0990569737       -2.8211404481
	 C           2.0809270325       -1.0148205019       -2.7046249444
	 C          -2.0344275158       -1.1607387776        2.6446303889
	 C           1.8529864647        1.0757292633        2.7672978497
	 C          -2.0121171194       -1.1567192348        5.2637339226
	 C           1.7147913226        0.9867607597        5.3811892566
	 C           0.0140748085        0.0033391078       -1.4315981335
	 C          -0.0698012575       -0.0044506339        1.3390243917
	 N          -0.1794342196       -0.1039394126        6.6435854718
	 H           0.3002723759        0.1433275033       -8.7333300965
	 H          -3.3509703518        2.0051596799       -6.4986834472
	 H           3.7815699711       -1.7838447166       -6.2921404699
	 H          -3.5206446604        1.9272877029       -1.8410756367
	 H           3.5993371220       -1.8602407938       -1.6350078115
	 H          -3.5553043450       -2.0632660441        1.6284331987
	 H           3.4270148905        1.9923549921        1.8490831150
	 H          -3.5222998397       -2.0528651069        6.3076078854
	 H           3.1840167647        1.8348775684        6.5199866500
	            -0.0000077144       -0.0001007873       -0.0001004358
	            -0.0000965432        0.0001161557       -0.0000914578
	             0.0001168641       -0.0000337073       -0.0001572182
	             0.0014775342        0.0021256040        0.0005554273
	            -0.0005656832       -0.0003668347        0.0003486420
	             0.0013721710       -0.0022736816       -0.0001447141
	            -0.0002773947        0.0005136852       -0.0000117193
	            -0.0007113284       -0.0002466494       -0.0006772500
	             0.0007418944        0.0002644173       -0.0006569627
	            -0.0010813090       -0.0034922247       -0.0013215637
	            -0.0013661395        0.0034777839        0.0013427954
	            -0.0000267553        0.0000635082        0.0004261679
	             0.0000273382        0.0000323718        0.0001110614
	             0.0000670073       -0.0000678645        0.0001180048
	            -0.0000338885       -0.0000063585        0.0000650587
	             0.0000306293        0.0000245153       -0.0002654839
	             0.0001426534        0.0000849720       -0.0002281616
	             0.0001212292        0.0000510543        0.0001862897
	            -0.0000125948       -0.0001701728        0.0001584726
	             0.0001221893       -0.0000466748        0.0001260982
	            -0.0000401596        0.0000508878        0.0002169491

	---Fragment 1 Intrafragment Coordinates---
	 - Coordinate -           - BOHR/RAD -       - ANG/DEG -
	 R(1,2)           =         2.623871	       1.388492
	 R(1,3)           =         2.623845	       1.388479
	 R(1,13)          =         2.038802	       1.078888
	 R(2,4)           =         2.621631	       1.387307
	 R(2,14)          =         2.039180	       1.079088
	 R(3,5)           =         2.621622	       1.387302
	 R(3,15)          =         2.039422	       1.079216
	 R(4,10)          =         2.631933	       1.392759
	 R(4,16)          =         2.040443	       1.079756
	 R(5,10)          =         2.632323	       1.392965
	 R(5,17)          =         2.040683	       1.079883
	 R(6,8)           =         2.619202	       1.386022
	 R(6,11)          =         2.627045	       1.390172
	 R(6,18)          =         2.039676	       1.079350
	 R(7,9)           =         2.619054	       1.385943
	 R(7,11)          =         2.627521	       1.390424
	 R(7,19)          =         2.039825	       1.079429
	 R(8,12)          =         2.524096	       1.335694
	 R(8,20)          =         2.042891	       1.081051
	 R(9,12)          =         2.524156	       1.335726
	 R(9,21)          =         2.043229	       1.081230
	 R(10,11)         =         2.771903	       1.466828
	 B(1,2,4)         =         2.095530	     120.065041
	 B(1,2,14)        =         2.095882	     120.085173
	 B(1,3,5)         =         2.095432	     120.059410
	 B(1,3,15)        =         2.096040	     120.094252
	 B(2,1,3)         =         2.091521	     119.835349
	 B(2,1,13)        =         2.095895	     120.085955
	 B(2,4,10)        =         2.102204	     120.447442
	 B(2,4,16)        =         2.096981	     120.148158
	 B(3,1,13)        =         2.095761	     120.078260
	 B(3,5,10)        =         2.102214	     120.447971
	 B(3,5,17)        =         2.096882	     120.142484
	 B(4,2,14)        =         2.091751	     119.848489
	 B(4,10,5)        =         2.079354	     119.138237
	 B(4,10,11)       =         2.101896	     120.429798
	 B(5,3,15)        =         2.091710	     119.846161
	 B(5,10,11)       =         2.101409	     120.401890
	 B(6,8,12)        =         2.157328	     123.605798
	 B(6,8,20)        =         2.099008	     120.264309
	 B(6,11,7)        =         2.046605	     117.261843
	 B(6,11,10)       =         2.118377	     121.374069
	 B(7,9,12)        =         2.157256	     123.601684
	 B(7,9,21)        =         2.099264	     120.278986
	 B(7,11,10)       =         2.117685	     121.334420
	 B(8,6,11)        =         2.082797	     119.335473
	 B(8,6,18)        =         2.100441	     120.346409
	 B(8,12,9)        =         2.039464	     116.852667
	 B(9,7,11)        =         2.082809	     119.336159
	 B(9,7,19)        =         2.100454	     120.347132
	 B(10,4,16)       =         2.083967	     119.402496
	 B(10,5,17)       =         2.084018	     119.405455
	 B(11,6,18)       =         2.099926	     120.316870
	 B(11,7,19)       =         2.099863	     120.313289
	 B(12,8,20)       =         2.026805	     116.127394
	 B(12,9,21)       =         2.026655	     116.118773
	 D(1,2,4,10)      =        -0.004176	      -0.239269
	 D(1,2,4,16)      =         3.128603	     179.255753
	 D(1,3,5,10)      =         0.008492	       0.486577
	 D(1,3,5,17)      =         3.137169	     179.746536
	 D(2,1,3,5)       =         0.002102	       0.120427
	 D(2,1,3,15)      =         3.141022	     179.967283
	 D(2,4,10,5)      =         0.014571	       0.834838
	 D(2,4,10,11)     =         3.121491	     178.848241
	 D(3,1,2,4)       =        -0.004250	      -0.243527
	 D(3,1,2,14)      =         3.130101	     179.341582
	 D(3,5,10,4)      =        -0.016728	      -0.958470
	 D(3,5,10,11)     =        -3.123658	    -178.972442
	 D(4,2,1,13)      =         3.141530	     179.996410
	 D(4,10,5,17)     =         3.137686	     179.776145
	 D(4,10,11,6)     =         1.041620	      59.680445
	 D(4,10,11,7)     =        -2.135501	    -122.355209
	 D(5,3,1,13)      =         3.139507	     179.880508
	 D(5,10,4,16)     =        -3.118274	    -178.663931
	 D(5,10,11,6)     =        -2.135085	    -122.331384
	 D(5,10,11,7)     =         0.970978	      55.632962
	 D(6,8,12,9)      =        -0.002508	      -0.143702
	 D(6,11,7,9)      =        -0.015313	      -0.877366
	 D(6,11,7,19)     =         3.137980	     179.792993
	 D(7,9,12,8)      =         0.002777	       0.159086
	 D(7,11,6,8)      =         0.015559	       0.891453
	 D(7,11,6,18)     =        -3.118968	    -178.703716
	 D(8,6,11,10)     =         3.123013	     178.935468
	 D(8,12,9,21)     =         3.139629	     179.887506
	 D(9,7,11,10)     =        -3.122782	    -178.922205
	 D(9,12,8,20)     =         3.129048	     179.281231
	 D(10,4,2,14)     =        -3.138545	    -179.825366
	 D(10,5,3,15)     =        -3.130434	    -179.360661
	 D(10,11,6,18)    =        -0.011514	      -0.659701
	 D(10,11,7,19)    =         0.030511	       1.748153
	 D(11,6,8,12)     =        -0.006921	      -0.396564
	 D(11,6,8,20)     =        -3.138081	    -179.798787
	 D(11,7,9,12)     =         0.006390	       0.366107
	 D(11,7,9,21)     =        -3.130275	    -179.351525
	 D(11,10,4,16)    =        -0.011354	      -0.650527
	 D(11,10,5,17)    =         0.030756	       1.762173
	 D(12,8,6,18)     =         3.127604	     179.198483
	 D(12,9,7,19)     =         3.136278	     179.695517
	 D(13,1,2,14)     =        -0.007304	      -0.418481
	 D(13,1,3,15)     =        -0.004758	      -0.272636
	 D(14,2,4,16)     =        -0.005766	      -0.330344
	 D(15,3,5,17)     =        -0.001758	      -0.100702
	 D(18,6,8,20)     =        -0.003556	      -0.203740
	 D(19,7,9,21)     =        -0.000386	      -0.022115

	Current energy   :      -478.5758106293

	Energy change for the previous step:
		Projected    :         0.0003686263
		Actual       :        -0.0002429309

	Performing BFGS update.
	Previous computed or guess Hessian on step 1.
	Steps to be used in Hessian update: 2 1
	Adding user-defined constraint: Fragment 1; Coordinate 71:
		Value =     1.041620; Fixed value    =     1.047200
		Force =     0.003069; Force constant =     0.550000
	Removing off-diagonal coupling between coordinate 71 and others.
	Taking RFO optimization step.
	Going to follow RFO solution 1.
	Using RFO vector 1.
	Norm of target step-size    0.05180
	Projected energy change by RFO approximation:        -0.0000227795

	Back-transformation to cartesian coordinates...
	The INTCO_EXCEPTion handler:
	TORS::compute_val: unable to compute torsion value
	Dynamic level is 0.
	exc.g_really_quit() is 0.

  **** Optimization has failed! (in 3 steps) ****
			--------------------------
			 OPTKING Finished Execution 
			--------------------------
	Cleaning optimization helper files.

*** Psi4 exiting successfully. Buy a developer a beer!
