
    -----------------------------------------------------------------------
          Psi4: An Open-Source Ab Initio Electronic Structure Package
                               Psi4 1.1 release

                         Git: Rev {HEAD} add49b9 


    R. M. Parrish, L. A. Burns, D. G. A. Smith, A. C. Simmonett,
    A. E. DePrince III, E. G. Hohenstein, U. Bozkaya, A. Yu. Sokolov,
    R. Di Remigio, R. M. Richard, J. F. Gonthier, A. M. James,
    H. R. McAlexander, A. Kumar, M. Saitow, X. Wang, B. P. Pritchard,
    P. Verma, H. F. Schaefer III, K. Patkowski, R. A. King, E. F. Valeev,
    F. A. Evangelista, J. M. Turney, T. D. Crawford, and C. D. Sherrill,
    J. Chem. Theory Comput. in press (2017).
    (doi: 10.1021/acs.jctc.7b00174)

    -----------------------------------------------------------------------


    Psi4 started on: Monday, 13 November 2017 11:18PM

    Process ID:   6286
    PSIDATADIR: /cbio/jclab/home/chayas/anaconda/envs/py35/share/psi4
    Memory:     500.0 MiB
    Threads:    8
    
  ==> Input File <==

--------------------------------------------------------------------------

memory 5 Gb

molecule phepyr {
  symmetry C1
  0 1 
  C      1.885   -1.036   -0.112
  C      0.807   -0.463   0.561
  C      2.921   -1.631   0.608
  C      0.764   -0.484   1.955
  C      2.878   -1.652   2.002
  C      0.704   -1.732   4.778
  C      2.763   -0.491   4.860
  C      0.709   -1.726   6.164
  C      2.675   -0.541   6.242
  C      1.800   -1.079   2.676
  C      1.755   -1.101   4.122
  N      1.670   -1.145   6.915
  H      1.917   -1.021   -1.198
  H      -0.001   -0.002   0.000
  H      3.760   -2.079   0.084
  H      -0.084   -0.033   2.466
  H      3.693   -2.120   2.550
  H      -0.100   -2.219   4.236
  H      3.598   0.011   4.383
  H      -0.087   -2.207   6.723
  H      3.435   -0.080   6.864
  units Angstrom
}

dih_string = "4 10 11 6 60"
set optking { opt_coordinates = cartesian
              fixed_dihedral = $dih_string
              dynamic_level = 1
              geom_maxiter = 250
              print_trajectory_xyz_file = True }

optimize('MP2/aug-cc-PVTZ')
--------------------------------------------------------------------------

  Memory set to   4.657 GiB by Python driver.
gradient() will perform analytic gradient computation.

*** tstart() called on gpu-2-12.local
*** at Mon Nov 13 23:18:31 2017

    SCF Algorithm Type (re)set to DF.

*** tstart() called on gpu-2-12.local
*** at Mon Nov 13 23:18:31 2017

   => Loading Basis Set <=

    Name: AUG-CC-PVTZ
    Role: ORBITAL
    Keyword: BASIS
    atoms 1-11  entry C          line   221 file /cbio/jclab/home/chayas/anaconda/envs/py35/share/psi4/basis/aug-cc-pvtz.gbs 
    atoms 12    entry N          line   267 file /cbio/jclab/home/chayas/anaconda/envs/py35/share/psi4/basis/aug-cc-pvtz.gbs 
    atoms 13-21 entry H          line    34 file /cbio/jclab/home/chayas/anaconda/envs/py35/share/psi4/basis/aug-cc-pvtz.gbs 


         ---------------------------------------------------------
                                   SCF
            by Justin Turney, Rob Parrish, and Andy Simmonett
                              RHF Reference
                        8 Threads,   4768 MiB Core
         ---------------------------------------------------------

  ==> Geometry <==

    Molecular point group: c1
    Full point group: C1

    Geometry (in Angstrom), charge = 0, multiplicity = 1:

       Center              X                  Y                   Z               Mass       
    ------------   -----------------  -----------------  -----------------  -----------------
           C          0.107943569108     0.054397873064    -3.525965346062    12.000000000000
           C         -0.970056430892     0.627397873064    -2.852965346062    12.000000000000
           C          1.143943569108    -0.540602126936    -2.805965346062    12.000000000000
           C         -1.013056430892     0.606397873064    -1.458965346062    12.000000000000
           C          1.100943569108    -0.561602126936    -1.411965346062    12.000000000000
           C         -1.073056430892    -0.641602126936     1.364034653938    12.000000000000
           C          0.985943569108     0.599397873064     1.446034653938    12.000000000000
           C         -1.068056430892    -0.635602126936     2.750034653938    12.000000000000
           C          0.897943569108     0.549397873064     2.828034653938    12.000000000000
           C          0.022943569108     0.011397873064    -0.737965346062    12.000000000000
           C         -0.022056430892    -0.010602126936     0.708034653938    12.000000000000
           N         -0.107056430892    -0.054602126936     3.501034653938    14.003074004780
           H          0.139943569108     0.069397873064    -4.611965346062     1.007825032070
           H         -1.778056430892     1.088397873064    -3.413965346062     1.007825032070
           H          1.982943569108    -0.988602126936    -3.329965346062     1.007825032070
           H         -1.861056430892     1.057397873064    -0.947965346062     1.007825032070
           H          1.915943569108    -1.029602126936    -0.863965346062     1.007825032070
           H         -1.877056430892    -1.128602126936     0.822034653938     1.007825032070
           H          1.820943569108     1.101397873064     0.969034653938     1.007825032070
           H         -1.864056430892    -1.116602126936     3.309034653938     1.007825032070
           H          1.657943569108     1.010397873064     3.450034653938     1.007825032070

  Running in c1 symmetry.

  Rotational constants: A =      0.09742  B =      0.01825  C =      0.01668 [cm^-1]
  Rotational constants: A =   2920.64930  B =    546.99290  C =    500.09844 [MHz]
  Nuclear repulsion =  605.969969686055947

  Charge       = 0
  Multiplicity = 1
  Electrons    = 82
  Nalpha       = 41
  Nbeta        = 41

  ==> Algorithm <==

  SCF Algorithm Type is DF.
  DIIS enabled.
  MOM disabled.
  Fractional occupation disabled.
  Guess Type is SAD.
  Energy threshold   = 1.00e-10
  Density threshold  = 1.00e-10
  Integral threshold = 0.00e+00

  ==> Primary Basis <==

  Basis Set: AUG-CC-PVTZ
    Blend: AUG-CC-PVTZ
    Number of shells: 249
    Number of basis function: 759
    Number of Cartesian functions: 885
    Spherical Harmonics?: true
    Max angular momentum: 3

   => Loading Basis Set <=

    Name: (AUG-CC-PVTZ AUX)
    Role: JKFIT
    Keyword: DF_BASIS_SCF
    atoms 1-11  entry C          line   161 file /cbio/jclab/home/chayas/anaconda/envs/py35/share/psi4/basis/aug-cc-pvtz-jkfit.gbs 
    atoms 12    entry N          line   223 file /cbio/jclab/home/chayas/anaconda/envs/py35/share/psi4/basis/aug-cc-pvtz-jkfit.gbs 
    atoms 13-21 entry H          line    69 file /cbio/jclab/home/chayas/anaconda/envs/py35/share/psi4/basis/aug-cc-pvtz-jkfit.gbs 

  ==> Pre-Iterations <==

   -------------------------------------------------------
    Irrep   Nso     Nmo     Nalpha   Nbeta   Ndocc  Nsocc
   -------------------------------------------------------
     A        759     759       0       0       0       0
   -------------------------------------------------------
    Total     759     759      41      41      41       0
   -------------------------------------------------------

  ==> Integral Setup <==

  ==> DFJK: Density-Fitted J/K Matrices <==

    J tasked:                  Yes
    K tasked:                  Yes
    wK tasked:                  No
    OpenMP threads:              8
    Integrals threads:           8
    Memory (MB):              3576
    Algorithm:                Core
    Integral Cache:           NONE
    Schwarz Cutoff:          1E-12
    Fitting Condition:       1E-12

   => Auxiliary Basis Set <=

  Basis Set: (AUG-CC-PVTZ AUX)
    Blend: AUG-CC-PVTZ-JKFIT
    Number of shells: 486
    Number of basis function: 1662
    Number of Cartesian functions: 2067
    Spherical Harmonics?: true
    Max angular momentum: 4

  Minimum eigenvalue in the overlap matrix is 4.7919612111E-07.
  Using Symmetric Orthogonalization.

  SCF Guess: Superposition of Atomic Densities via on-the-fly atomic UHF.

  ==> Iterations <==

                           Total Energy        Delta E     RMS |[F,P]|

   @DF-RHF iter   0:  -483.68938974522871   -4.83689e+02   1.83118e-02 
   @DF-RHF iter   1:  -476.09111080624541    7.59828e+00   1.44786e-03 
   @DF-RHF iter   2:  -476.33923350608865   -2.48123e-01   6.57645e-04 DIIS
   @DF-RHF iter   3:  -476.37894320385340   -3.97097e-02   3.63594e-04 DIIS
   @DF-RHF iter   4:  -476.39442130428972   -1.54781e-02   9.75719e-05 DIIS
   @DF-RHF iter   5:  -476.39628016268665   -1.85886e-03   4.02999e-05 DIIS
   @DF-RHF iter   6:  -476.39658604025942   -3.05878e-04   1.33839e-05 DIIS
   @DF-RHF iter   7:  -476.39662276561319   -3.67254e-05   4.38157e-06 DIIS
   @DF-RHF iter   8:  -476.39662756527230   -4.79966e-06   3.26525e-06 DIIS
   @DF-RHF iter   9:  -476.39662930595250   -1.74068e-06   1.20843e-06 DIIS
   @DF-RHF iter  10:  -476.39662994221857   -6.36266e-07   2.95000e-07 DIIS
   @DF-RHF iter  11:  -476.39663000120248   -5.89839e-08   1.74410e-07 DIIS
   @DF-RHF iter  12:  -476.39663000545295   -4.25047e-09   3.94106e-08 DIIS
   @DF-RHF iter  13:  -476.39663000578156   -3.28612e-10   1.82507e-08 DIIS
   @DF-RHF iter  14:  -476.39663000587984   -9.82823e-11   7.98448e-09 DIIS
   @DF-RHF iter  15:  -476.39663000590787   -2.80238e-11   3.62636e-09 DIIS
   @DF-RHF iter  16:  -476.39663000592935   -2.14868e-11   2.53639e-09 DIIS
   @DF-RHF iter  17:  -476.39663000592401    5.34328e-12   7.18701e-10 DIIS
   @DF-RHF iter  18:  -476.39663000591162    1.23919e-11   2.91780e-10 DIIS
   @DF-RHF iter  19:  -476.39663000592321   -1.15961e-11   1.69800e-10 DIIS
   @DF-RHF iter  20:  -476.39663000592657   -3.35376e-12   7.68500e-11 DIIS

  ==> Post-Iterations <==

    Orbital Energies (a.u.)
    -----------------------

    Doubly Occupied:                                                      

       1A    -15.565264     2A    -11.275353     3A    -11.275295  
       4A    -11.263486     5A    -11.250902     6A    -11.245860  
       7A    -11.245721     8A    -11.244521     9A    -11.244428  
      10A    -11.242963    11A    -11.238829    12A    -11.238758  
      13A     -1.250970    14A     -1.173463    15A     -1.107025  
      16A     -1.036126    17A     -1.024099    18A     -1.015933  
      19A     -0.881124    20A     -0.860801    21A     -0.832609  
      22A     -0.805529    23A     -0.729992    24A     -0.683643  
      25A     -0.669208    26A     -0.657496    27A     -0.633493  
      28A     -0.631757    29A     -0.600712    30A     -0.595416  
      31A     -0.578620    32A     -0.540129    33A     -0.526049  
      34A     -0.508528    35A     -0.505680    36A     -0.501582  
      37A     -0.419412    38A     -0.388260    39A     -0.352136  
      40A     -0.344942    41A     -0.332571  

    Virtual:                                                              

      42A      0.025220    43A      0.030769    44A      0.032686  
      45A      0.037030    46A      0.043471    47A      0.046956  
      48A      0.051183    49A      0.053962    50A      0.060476  
      51A      0.080509    52A      0.085400    53A      0.089799  
      54A      0.093383    55A      0.094030    56A      0.098077  
      57A      0.100860    58A      0.107488    59A      0.107564  
      60A      0.110687    61A      0.114486    62A      0.114765  
      63A      0.119835    64A      0.122206    65A      0.126315  
      66A      0.129107    67A      0.130134    68A      0.132299  
      69A      0.135347    70A      0.143190    71A      0.144548  
      72A      0.144589    73A      0.149112    74A      0.151349  
      75A      0.154084    76A      0.157482    77A      0.159827  
      78A      0.172285    79A      0.176156    80A      0.176694  
      81A      0.188085    82A      0.189769    83A      0.200360  
      84A      0.205019    85A      0.214069    86A      0.225978  
      87A      0.227872    88A      0.234783    89A      0.240057  
      90A      0.242253    91A      0.242816    92A      0.248004  
      93A      0.252346    94A      0.254824    95A      0.260970  
      96A      0.265488    97A      0.265612    98A      0.270742  
      99A      0.272654   100A      0.278599   101A      0.281795  
     102A      0.286249   103A      0.293516   104A      0.294921  
     105A      0.299747   106A      0.304816   107A      0.305291  
     108A      0.313024   109A      0.316210   110A      0.318962  
     111A      0.324357   112A      0.325975   113A      0.329916  
     114A      0.332101   115A      0.332363   116A      0.344906  
     117A      0.350973   118A      0.358503   119A      0.360606  
     120A      0.363015   121A      0.363330   122A      0.374392  
     123A      0.383977   124A      0.388964   125A      0.395103  
     126A      0.398604   127A      0.409063   128A      0.413221  
     129A      0.415662   130A      0.417449   131A      0.423094  
     132A      0.427654   133A      0.439726   134A      0.441296  
     135A      0.442685   136A      0.444351   137A      0.446250  
     138A      0.447041   139A      0.459574   140A      0.462386  
     141A      0.469267   142A      0.472604   143A      0.475307  
     144A      0.477604   145A      0.480776   146A      0.481015  
     147A      0.486807   148A      0.487428   149A      0.488856  
     150A      0.490641   151A      0.499452   152A      0.501098  
     153A      0.508271   154A      0.511744   155A      0.513070  
     156A      0.516959   157A      0.520641   158A      0.522611  
     159A      0.525011   160A      0.531155   161A      0.532006  
     162A      0.537325   163A      0.540930   164A      0.547522  
     165A      0.548330   166A      0.552455   167A      0.554791  
     168A      0.557456   169A      0.570156   170A      0.571721  
     171A      0.578543   172A      0.587550   173A      0.591997  
     174A      0.601885   175A      0.605079   176A      0.609223  
     177A      0.617347   178A      0.626427   179A      0.629713  
     180A      0.636074   181A      0.638260   182A      0.642112  
     183A      0.656908   184A      0.666580   185A      0.673618  
     186A      0.675545   187A      0.680531   188A      0.685721  
     189A      0.688998   190A      0.696652   191A      0.700868  
     192A      0.704805   193A      0.705222   194A      0.715252  
     195A      0.715787   196A      0.722098   197A      0.730007  
     198A      0.737339   199A      0.741826   200A      0.745363  
     201A      0.746474   202A      0.751421   203A      0.767572  
     204A      0.774475   205A      0.781390   206A      0.784700  
     207A      0.795829   208A      0.800902   209A      0.807502  
     210A      0.816243   211A      0.822706   212A      0.826173  
     213A      0.831917   214A      0.849547   215A      0.849885  
     216A      0.859220   217A      0.865269   218A      0.867884  
     219A      0.868932   220A      0.873960   221A      0.875427  
     222A      0.885687   223A      0.888955   224A      0.891981  
     225A      0.893492   226A      0.900557   227A      0.904493  
     228A      0.911220   229A      0.914586   230A      0.915341  
     231A      0.924916   232A      0.925289   233A      0.929837  
     234A      0.934244   235A      0.937546   236A      0.947703  
     237A      0.951373   238A      0.953289   239A      0.956071  
     240A      0.967219   241A      0.972113   242A      0.976032  
     243A      0.983716   244A      0.990346   245A      0.992651  
     246A      0.995353   247A      0.995815   248A      1.006634  
     249A      1.009619   250A      1.014116   251A      1.016011  
     252A      1.026737   253A      1.028597   254A      1.040310  
     255A      1.042045   256A      1.046428   257A      1.046559  
     258A      1.056064   259A      1.060073   260A      1.068478  
     261A      1.077372   262A      1.078006   263A      1.084018  
     264A      1.088829   265A      1.091816   266A      1.093444  
     267A      1.100023   268A      1.101798   269A      1.105447  
     270A      1.105471   271A      1.121007   272A      1.126692  
     273A      1.131147   274A      1.135397   275A      1.139988  
     276A      1.141791   277A      1.151508   278A      1.152181  
     279A      1.157888   280A      1.164359   281A      1.166677  
     282A      1.174834   283A      1.184331   284A      1.186878  
     285A      1.189365   286A      1.193128   287A      1.199330  
     288A      1.200994   289A      1.201612   290A      1.212499  
     291A      1.214689   292A      1.220227   293A      1.224890  
     294A      1.241013   295A      1.245025   296A      1.252968  
     297A      1.256267   298A      1.262420   299A      1.264912  
     300A      1.266674   301A      1.275167   302A      1.282390  
     303A      1.286490   304A      1.297457   305A      1.299123  
     306A      1.303757   307A      1.311874   308A      1.313693  
     309A      1.320394   310A      1.327240   311A      1.347705  
     312A      1.352895   313A      1.362942   314A      1.374346  
     315A      1.378308   316A      1.383508   317A      1.385207  
     318A      1.396719   319A      1.407471   320A      1.409216  
     321A      1.413852   322A      1.422187   323A      1.433079  
     324A      1.433674   325A      1.439861   326A      1.453406  
     327A      1.468983   328A      1.471646   329A      1.477898  
     330A      1.486722   331A      1.499663   332A      1.500017  
     333A      1.513576   334A      1.529843   335A      1.538901  
     336A      1.544908   337A      1.551128   338A      1.563989  
     339A      1.567575   340A      1.570308   341A      1.579976  
     342A      1.590100   343A      1.590930   344A      1.599707  
     345A      1.603598   346A      1.624781   347A      1.635811  
     348A      1.637977   349A      1.645996   350A      1.649120  
     351A      1.666002   352A      1.678628   353A      1.687954  
     354A      1.688116   355A      1.696506   356A      1.705466  
     357A      1.711732   358A      1.719791   359A      1.725395  
     360A      1.732953   361A      1.733575   362A      1.741151  
     363A      1.742139   364A      1.749894   365A      1.758938  
     366A      1.771267   367A      1.778745   368A      1.801118  
     369A      1.812263   370A      1.820350   371A      1.821300  
     372A      1.825412   373A      1.838771   374A      1.842594  
     375A      1.850671   376A      1.856937   377A      1.866202  
     378A      1.885961   379A      1.886343   380A      1.898344  
     381A      1.904858   382A      1.911293   383A      1.914491  
     384A      1.925476   385A      1.932260   386A      1.945663  
     387A      1.946464   388A      1.958278   389A      1.973877  
     390A      1.978505   391A      1.987681   392A      1.994691  
     393A      1.997299   394A      2.001729   395A      2.005244  
     396A      2.019971   397A      2.032659   398A      2.034706  
     399A      2.037880   400A      2.050273   401A      2.052067  
     402A      2.063603   403A      2.071367   404A      2.081882  
     405A      2.089840   406A      2.090436   407A      2.096115  
     408A      2.103794   409A      2.114659   410A      2.115468  
     411A      2.141048   412A      2.143998   413A      2.156652  
     414A      2.161964   415A      2.162485   416A      2.169297  
     417A      2.181917   418A      2.188475   419A      2.191249  
     420A      2.203320   421A      2.208975   422A      2.209656  
     423A      2.230526   424A      2.244030   425A      2.248810  
     426A      2.257460   427A      2.267062   428A      2.284733  
     429A      2.290618   430A      2.300290   431A      2.319569  
     432A      2.323933   433A      2.331744   434A      2.335918  
     435A      2.353209   436A      2.364030   437A      2.367866  
     438A      2.368431   439A      2.384421   440A      2.391432  
     441A      2.407106   442A      2.418220   443A      2.427854  
     444A      2.431876   445A      2.457650   446A      2.481143  
     447A      2.481477   448A      2.490336   449A      2.516457  
     450A      2.523053   451A      2.544479   452A      2.547608  
     453A      2.565218   454A      2.567888   455A      2.585198  
     456A      2.586376   457A      2.602193   458A      2.603904  
     459A      2.626525   460A      2.634629   461A      2.652675  
     462A      2.676997   463A      2.705027   464A      2.713466  
     465A      2.744234   466A      2.758165   467A      2.761012  
     468A      2.778677   469A      2.793834   470A      2.815567  
     471A      2.839922   472A      2.841379   473A      2.853804  
     474A      2.878801   475A      2.884231   476A      2.970440  
     477A      2.971289   478A      2.991484   479A      3.066190  
     480A      3.072457   481A      3.083461   482A      3.147151  
     483A      3.167156   484A      3.169264   485A      3.194284  
     486A      3.195936   487A      3.220395   488A      3.239464  
     489A      3.242511   490A      3.252410   491A      3.252505  
     492A      3.286890   493A      3.309925   494A      3.318626  
     495A      3.339230   496A      3.348218   497A      3.357123  
     498A      3.373666   499A      3.380082   500A      3.397455  
     501A      3.405902   502A      3.411609   503A      3.418877  
     504A      3.437032   505A      3.439739   506A      3.442291  
     507A      3.448289   508A      3.452600   509A      3.457674  
     510A      3.469362   511A      3.484102   512A      3.487910  
     513A      3.503238   514A      3.511361   515A      3.535935  
     516A      3.541675   517A      3.541949   518A      3.545856  
     519A      3.554054   520A      3.563845   521A      3.575161  
     522A      3.579684   523A      3.582262   524A      3.590725  
     525A      3.599652   526A      3.609921   527A      3.612253  
     528A      3.630024   529A      3.646483   530A      3.648769  
     531A      3.662440   532A      3.678389   533A      3.680623  
     534A      3.687723   535A      3.701270   536A      3.703276  
     537A      3.723817   538A      3.723989   539A      3.735345  
     540A      3.742084   541A      3.776218   542A      3.777872  
     543A      3.786767   544A      3.788648   545A      3.807470  
     546A      3.825949   547A      3.826297   548A      3.837660  
     549A      3.845798   550A      3.857473   551A      3.859442  
     552A      3.862343   553A      3.868429   554A      3.877683  
     555A      3.892065   556A      3.906072   557A      3.913733  
     558A      3.918907   559A      3.929248   560A      3.942046  
     561A      3.944401   562A      3.955276   563A      3.958896  
     564A      3.967996   565A      3.977604   566A      3.989526  
     567A      3.998190   568A      4.005017   569A      4.015663  
     570A      4.024463   571A      4.028067   572A      4.033334  
     573A      4.038922   574A      4.041725   575A      4.055995  
     576A      4.060301   577A      4.082428   578A      4.087074  
     579A      4.103027   580A      4.106083   581A      4.111083  
     582A      4.124407   583A      4.133985   584A      4.141734  
     585A      4.148036   586A      4.156288   587A      4.162485  
     588A      4.174717   589A      4.181580   590A      4.205737  
     591A      4.206025   592A      4.221281   593A      4.226474  
     594A      4.235734   595A      4.245237   596A      4.270684  
     597A      4.284632   598A      4.292864   599A      4.307845  
     600A      4.309432   601A      4.315205   602A      4.316427  
     603A      4.322161   604A      4.350635   605A      4.351163  
     606A      4.358036   607A      4.381757   608A      4.382651  
     609A      4.388959   610A      4.395009   611A      4.404922  
     612A      4.416188   613A      4.430999   614A      4.435885  
     615A      4.444842   616A      4.447522   617A      4.452319  
     618A      4.474056   619A      4.480143   620A      4.485717  
     621A      4.493232   622A      4.499375   623A      4.504949  
     624A      4.505520   625A      4.534451   626A      4.552698  
     627A      4.554052   628A      4.578419   629A      4.590557  
     630A      4.619559   631A      4.645600   632A      4.647742  
     633A      4.675133   634A      4.693127   635A      4.710007  
     636A      4.716527   637A      4.718505   638A      4.733949  
     639A      4.735319   640A      4.742663   641A      4.772387  
     642A      4.778481   643A      4.802438   644A      4.823329  
     645A      4.844442   646A      4.859717   647A      4.876530  
     648A      4.896830   649A      4.916898   650A      4.920908  
     651A      4.945453   652A      4.951733   653A      4.964062  
     654A      4.964522   655A      4.984504   656A      5.008381  
     657A      5.012382   658A      5.018779   659A      5.020410  
     660A      5.032124   661A      5.032689   662A      5.062373  
     663A      5.064728   664A      5.085860   665A      5.094847  
     666A      5.111795   667A      5.120250   668A      5.137657  
     669A      5.143662   670A      5.148878   671A      5.157454  
     672A      5.160739   673A      5.169811   674A      5.175812  
     675A      5.185418   676A      5.192724   677A      5.193008  
     678A      5.196901   679A      5.240000   680A      5.252824  
     681A      5.272272   682A      5.283283   683A      5.323641  
     684A      5.335405   685A      5.345705   686A      5.351003  
     687A      5.358636   688A      5.378662   689A      5.381721  
     690A      5.389141   691A      5.425415   692A      5.444845  
     693A      5.458225   694A      5.468887   695A      5.473580  
     696A      5.479381   697A      5.521267   698A      5.527010  
     699A      5.559514   700A      5.570043   701A      5.587664  
     702A      5.647522   703A      5.662060   704A      5.709720  
     705A      5.757042   706A      5.770946   707A      5.773265  
     708A      5.784154   709A      5.794899   710A      5.801080  
     711A      5.824787   712A      5.851000   713A      5.865624  
     714A      5.884495   715A      5.908944   716A      5.979848  
     717A      6.021776   718A      6.080974   719A      6.139792  
     720A      6.167791   721A      6.195584   722A      6.226873  
     723A      6.244115   724A      6.271028   725A      6.272914  
     726A      6.310861   727A      6.334560   728A      6.344741  
     729A      6.393201   730A      6.490075   731A      6.495138  
     732A      6.571614   733A      6.581077   734A      6.602936  
     735A      6.696693   736A      6.716569   737A      6.733532  
     738A      6.800850   739A      6.874734   740A      6.895244  
     741A      6.922875   742A      7.015438   743A      7.043994  
     744A      7.085847   745A      7.176936   746A      7.345914  
     747A      7.420337   748A     15.613559   749A     16.185863  
     750A     16.566685   751A     16.693678   752A     18.414735  
     753A     18.716843   754A     19.022259   755A     19.202043  
     756A     19.969706   757A     19.972971   758A     20.192115  
     759A     21.885813  

    Final Occupation by Irrep:
              A 
    DOCC [    41 ]

  Energy converged.

  @DF-RHF Final Energy:  -476.39663000592657

   => Energetics <=

    Nuclear Repulsion Energy =            605.9699696860559470
    One-Electron Energy =               -1845.6958324532397455
    Two-Electron Energy =                 763.3292327612572308
    DFT Exchange-Correlation Energy =       0.0000000000000000
    Empirical Dispersion Energy =           0.0000000000000000
    PCM Polarization Energy =               0.0000000000000000
    EFP Energy =                            0.0000000000000000
    Total Energy =                       -476.3966300059265677



Properties will be evaluated at   0.000000,   0.000000,   0.000000 Bohr

Properties computed using the SCF density matrix

  Nuclear Dipole Moment: (a.u.)
     X:     0.1292      Y:     0.0598      Z:    -4.3391

  Electronic Dipole Moment: (a.u.)
     X:    -0.0969      Y:    -0.0450      Z:     3.2658

  Dipole Moment: (a.u.)
     X:     0.0323      Y:     0.0147      Z:    -1.0734     Total:     1.0739

  Dipole Moment: (Debye)
     X:     0.0821      Y:     0.0374      Z:    -2.7282     Total:     2.7297


*** tstop() called on gpu-2-12.local at Mon Nov 13 23:24:51 2017
Module time:
	user time   =    1032.56 seconds =      17.21 minutes
	system time =       9.03 seconds =       0.15 minutes
	total time  =        380 seconds =       6.33 minutes
Total time:
	user time   =    1032.57 seconds =      17.21 minutes
	system time =       9.03 seconds =       0.15 minutes
	total time  =        380 seconds =       6.33 minutes

  //>>>>>>>>>>>>>>>>>>>>>>>>>>>>>>>>>>>//
  //               DFMP2               //
  //<<<<<<<<<<<<<<<<<<<<<<<<<<<<<<<<<<<//

   => Loading Basis Set <=

    Name: (AUG-CC-PVTZ AUX)
    Role: RIFIT
    Keyword: DF_BASIS_MP2
    atoms 1-11  entry C          line   147 file /cbio/jclab/home/chayas/anaconda/envs/py35/share/psi4/basis/aug-cc-pvtz-ri.gbs 
    atoms 12    entry N          line   205 file /cbio/jclab/home/chayas/anaconda/envs/py35/share/psi4/basis/aug-cc-pvtz-ri.gbs 
    atoms 13-21 entry H          line    29 file /cbio/jclab/home/chayas/anaconda/envs/py35/share/psi4/basis/aug-cc-pvtz-ri.gbs 

	 --------------------------------------------------------
	                          DF-MP2                         
	      2nd-Order Density-Fitted Moller-Plesset Theory     
	              RMP2 Wavefunction,   8 Threads             
	                                                         
	        Rob Parrish, Justin Turney, Andy Simmonett,      
	           Ed Hohenstein, and C. David Sherrill          
	 --------------------------------------------------------

   => Auxiliary Basis Set <=

  Basis Set: (AUG-CC-PVTZ AUX)
    Blend: AUG-CC-PVTZ-RI
    Number of shells: 462
    Number of basis function: 1686
    Number of Cartesian functions: 2127
    Spherical Harmonics?: true
    Max angular momentum: 4

	 --------------------------------------------------------
	                 NBF =   759, NAUX =  1686
	 --------------------------------------------------------
	   CLASS    FOCC     OCC    AOCC    AVIR     VIR    FVIR
	   PAIRS       0      41      41     718     718       0
	 --------------------------------------------------------


         ------------------------------------------------------------
                                     CPHF                           
                                  Rob Parrish                       
         ------------------------------------------------------------

  ==> Geometry <==

    Molecular point group: c1
    Full point group: C1

    Geometry (in Angstrom), charge = 0, multiplicity = 1:

       Center              X                  Y                   Z               Mass       
    ------------   -----------------  -----------------  -----------------  -----------------
           C          0.107943569108     0.054397873064    -3.525965346062    12.000000000000
           C         -0.970056430892     0.627397873064    -2.852965346062    12.000000000000
           C          1.143943569108    -0.540602126936    -2.805965346062    12.000000000000
           C         -1.013056430892     0.606397873064    -1.458965346062    12.000000000000
           C          1.100943569108    -0.561602126936    -1.411965346062    12.000000000000
           C         -1.073056430892    -0.641602126936     1.364034653938    12.000000000000
           C          0.985943569108     0.599397873064     1.446034653938    12.000000000000
           C         -1.068056430892    -0.635602126936     2.750034653938    12.000000000000
           C          0.897943569108     0.549397873064     2.828034653938    12.000000000000
           C          0.022943569108     0.011397873064    -0.737965346062    12.000000000000
           C         -0.022056430892    -0.010602126936     0.708034653938    12.000000000000
           N         -0.107056430892    -0.054602126936     3.501034653938    14.003074004780
           H          0.139943569108     0.069397873064    -4.611965346062     1.007825032070
           H         -1.778056430892     1.088397873064    -3.413965346062     1.007825032070
           H          1.982943569108    -0.988602126936    -3.329965346062     1.007825032070
           H         -1.861056430892     1.057397873064    -0.947965346062     1.007825032070
           H          1.915943569108    -1.029602126936    -0.863965346062     1.007825032070
           H         -1.877056430892    -1.128602126936     0.822034653938     1.007825032070
           H          1.820943569108     1.101397873064     0.969034653938     1.007825032070
           H         -1.864056430892    -1.116602126936     3.309034653938     1.007825032070
           H          1.657943569108     1.010397873064     3.450034653938     1.007825032070

  Nuclear repulsion =  605.969969686055947
  Reference energy  = -476.396630005926568

  ==> Basis Set <==

  Basis Set: AUG-CC-PVTZ
    Blend: AUG-CC-PVTZ
    Number of shells: 249
    Number of basis function: 759
    Number of Cartesian functions: 885
    Spherical Harmonics?: true
    Max angular momentum: 3

  ==> CGRSolver (by Rob Parrish) <==

   Number of roots    =         1
   Preconditioning    =    JACOBI
   Convergence cutoff =     1E-06
   Maximum iterations =       100

  ==> CPHFRHamiltonian (by Rob Parrish) <== 

  ==> DFJK: Density-Fitted J/K Matrices <==

    J tasked:                  Yes
    K tasked:                  Yes
    wK tasked:                  No
    OpenMP threads:              8
    Integrals threads:           8
    Memory (MB):              3576
    Algorithm:                Core
    Integral Cache:           NONE
    Schwarz Cutoff:          1E-12
    Fitting Condition:       1E-12

   => Auxiliary Basis Set <=

  Basis Set: (AUG-CC-PVTZ AUX)
    Blend: AUG-CC-PVTZ-JKFIT
    Number of shells: 486
    Number of basis function: 1662
    Number of Cartesian functions: 2067
    Spherical Harmonics?: true
    Max angular momentum: 4

  ==> CPHF Iterations <==

  => Iterations <=

             Iter  Converged  Remaining    Residual
  CGR           1          0          1   8.193E-02
  CGR           2          0          1   3.048E-02
  CGR           3          0          1   2.086E-02
  CGR           4          0          1   8.906E-03
  CGR           5          0          1   2.473E-03
  CGR           6          0          1   8.506E-04
  CGR           7          0          1   3.404E-04
  CGR           8          0          1   1.066E-04
  CGR           9          0          1   5.238E-05
  CGR          10          0          1   2.416E-05
  CGR          11          0          1   7.204E-06
  CGR          12          0          1   2.865E-06
  CGR          13          1          0   7.931E-07

    CGRSolver converged.

  ==> DFCorrGrad: Density-Fitted Correlated Gradients <==

    OpenMP threads:              8
    Integrals threads:           8
    Memory (MB):              3576
    Schwarz Cutoff:          0E+00
    Fitting Condition:       1E-12

   => Auxiliary Basis Set <=

  Basis Set: (AUG-CC-PVTZ AUX)
    Blend: AUG-CC-PVTZ-JKFIT
    Number of shells: 486
    Number of basis function: 1662
    Number of Cartesian functions: 2067
    Spherical Harmonics?: true
    Max angular momentum: 4

	-----------------------------------------------------------
	 ==================> DF-MP2 Energies <==================== 
	-----------------------------------------------------------
	 Reference Energy          =    -476.3966300059265677 [Eh]
	 Singles Energy            =      -0.0000000000000003 [Eh]
	 Same-Spin Energy          =      -0.5345185224854043 [Eh]
	 Opposite-Spin Energy      =      -1.6424022518825472 [Eh]
	 Correlation Energy        =      -2.1769207743679519 [Eh]
	 Total Energy              =    -478.5735507802945108 [Eh]
	-----------------------------------------------------------
	 ================> DF-SCS-MP2 Energies <================== 
	-----------------------------------------------------------
	 SCS Same-Spin Scale       =       0.3333333333333333 [-]
	 SCS Opposite-Spin Scale   =       1.2000000000000000 [-]
	 SCS Same-Spin Energy      =      -0.1781728408284681 [Eh]
	 SCS Opposite-Spin Energy  =      -1.9708827022590565 [Eh]
	 SCS Correlation Energy    =      -2.1490555430875249 [Eh]
	 SCS Total Energy          =    -478.5456855490140811 [Eh]
	-----------------------------------------------------------


  -Total Gradient:
     Atom            X                  Y                   Z
    ------   -----------------  -----------------  -----------------
       1       -0.000426086219     0.000412265012     0.000105297384
       2       -0.000866587420     0.000902120274    -0.001097139641
       3        0.001805834425    -0.001194866316    -0.000891351127
       4        0.002402556147     0.001321893082     0.008531994095
       5       -0.003493416633    -0.001196575260     0.008520902603
       6       -0.001886125917    -0.003763689904    -0.007759156866
       7        0.002145368680     0.004154736412    -0.007594985585
       8       -0.005577093475    -0.003831455984    -0.011019986818
       9        0.006968822038     0.004495951594    -0.010994136524
      10        0.000295269879    -0.000563199929     0.010458750629
      11        0.000080970752     0.000017781132     0.000423861485
      12       -0.000990743027    -0.000494080814     0.016783885092
      13        0.000089840772     0.000030806217    -0.005132199460
      14       -0.003733964146     0.001734107262    -0.002548697154
      15        0.003607543915    -0.001733965454    -0.002233712944
      16       -0.005792648059     0.002670731486     0.000147057165
      17        0.005725342472    -0.002662094916     0.000407609826
      18       -0.004500573071    -0.002191030368    -0.000254801708
      19        0.004363582423     0.002075913529     0.000155485516
      20       -0.001844323592    -0.000936622362     0.001909362085
      21        0.001626430055     0.000751275310     0.002081961951


*** tstop() called on gpu-2-12.local at Mon Nov 13 23:47:51 2017
Module time:
	user time   =    4204.50 seconds =      70.08 minutes
	system time =      29.96 seconds =       0.50 minutes
	total time  =       1760 seconds =      29.33 minutes
Total time:
	user time   =    4204.51 seconds =      70.08 minutes
	system time =      29.96 seconds =       0.50 minutes
	total time  =       1760 seconds =      29.33 minutes

			-----------------------------------------
			 OPTKING 2.0: for geometry optimizations 
			  - R.A. King,  Bethel University        
			-----------------------------------------
	At level 1: Red. Int., RFO, no backsteps, dynamic trust

	Internal coordinates to be generated automatically.
	Detected frag 1 with atoms:  1 2 3 4 5 6 7 8 9 10 11 12 13 14 15 16 17 18 19 20
	 21
	---Fragment 1 Bond Connectivity---
	 1 : 2 3 13
	 2 : 1 4 14
	 3 : 1 5 15
	 4 : 2 10 16
	 5 : 3 10 17
	 6 : 8 11 18
	 7 : 9 11 19
	 8 : 6 12 20
	 9 : 7 12 21
	 10 : 4 5 11
	 11 : 6 7 10
	 12 : 8 9
	 13 : 1
	 14 : 2
	 15 : 3
	 16 : 4
	 17 : 5
	 18 : 6
	 19 : 7
	 20 : 8
	 21 : 9

	Assuming in current code that numbering for constraints corresponds to unified fragment.
	Fixed dihedral atom list: 
	     4    10    11     6
	---Fragment 1 Geometry and Gradient---
	 C           0.2039837834        0.1027970823       -6.6631088581
	 C          -1.8331409878        1.1856101564       -5.3913231707
	 C           2.1617400571       -1.0215899668       -5.3025060424
	 C          -1.9143992115        1.1459259077       -2.7570449414
	 C           2.0804818334       -1.0612742156       -2.6682278132
	 C          -2.0277827795       -1.2124523062        2.5776519317
	 C           1.8631633281        1.1326978247        2.7326094746
	 C          -2.0183341489       -1.2011139494        5.1968123519
	 C           1.6968674284        1.0382115181        5.3442109903
	 C           0.0433570621        0.0215388586       -1.3945523996
	 C          -0.0416806139       -0.0200351163        1.3379915885
	 N          -0.2023073352       -0.1031830662        6.6159966777
	 H           0.2644550197        0.1311429743       -8.7153514384
	 H          -3.3600397032        2.0567739037       -6.4514595312
	 H           3.7472202826       -1.8681872743       -6.2927225361
	 H          -3.5168869722        1.9981923936       -1.7913948875
	 H           3.6206086317       -1.9456660457       -1.6326578924
	 H          -3.5471225904       -2.1327489329        1.5534203677
	 H           3.4410846491        2.0813403434        1.8312101092
	 H          -3.5225561506       -2.1100722193        6.2531692602
	 H           3.1330592894        1.9093752653        6.5196206449
	            -0.0004260862        0.0004122650        0.0001052974
	            -0.0008665874        0.0009021203       -0.0010971396
	             0.0018058344       -0.0011948663       -0.0008913511
	             0.0024025561        0.0013218931        0.0085319941
	            -0.0034934166       -0.0011965753        0.0085209026
	            -0.0018861259       -0.0037636899       -0.0077591569
	             0.0021453687        0.0041547364       -0.0075949856
	            -0.0055770935       -0.0038314560       -0.0110199868
	             0.0069688220        0.0044959516       -0.0109941365
	             0.0002952699       -0.0005631999        0.0104587506
	             0.0000809708        0.0000177811        0.0004238615
	            -0.0009907430       -0.0004940808        0.0167838851
	             0.0000898408        0.0000308062       -0.0051321995
	            -0.0037339641        0.0017341073       -0.0025486972
	             0.0036075439       -0.0017339655       -0.0022337129
	            -0.0057926481        0.0026707315        0.0001470572
	             0.0057253425       -0.0026620949        0.0004076098
	            -0.0045005731       -0.0021910304       -0.0002548017
	             0.0043635824        0.0020759135        0.0001554855
	            -0.0018443236       -0.0009366224        0.0019093621
	             0.0016264301        0.0007512753        0.0020819620

	Previous optimization step data not found.  Starting new optimization.

	---Fragment 1 Intrafragment Coordinates---
	 - Coordinate -           - BOHR/RAD -       - ANG/DEG -
	 R(1,2)           =         2.634350	       1.394038
	 R(1,3)           =         2.635962	       1.394891
	 R(1,13)          =         2.053329	       1.086575
	 R(2,4)           =         2.635830	       1.394821
	 R(2,14)          =         2.052860	       1.086327
	 R(3,5)           =         2.635830	       1.394821
	 R(3,15)          =         2.052073	       1.085910
	 R(4,10)          =         2.636938	       1.395407
	 R(4,16)          =         2.055920	       1.087946
	 R(5,10)          =         2.635263	       1.394521
	 R(5,17)          =         2.055856	       1.087912
	 R(6,8)           =         2.619202	       1.386022
	 R(6,11)          =         2.627398	       1.390359
	 R(6,18)          =         2.050461	       1.085057
	 R(7,9)           =         2.618596	       1.385701
	 R(7,11)          =         2.627201	       1.390255
	 R(7,19)          =         2.049946	       1.084785
	 R(8,12)          =         2.552937	       1.350956
	 R(8,20)          =         2.050556	       1.085107
	 R(9,12)          =         2.554816	       1.351950
	 R(9,21)          =         2.050161	       1.084899
	 R(10,11)         =         2.734183	       1.446867
	 B(1,2,4)         =         2.094553	     120.009056
	 B(1,2,14)        =         2.094726	     120.018942
	 B(1,3,5)         =         2.093692	     119.959722
	 B(1,3,15)        =         2.095250	     120.048965
	 B(2,1,3)         =         2.094940	     120.031219
	 B(2,1,13)        =         2.093950	     119.974480
	 B(2,4,10)        =         2.094306	     119.994870
	 B(2,4,16)        =         2.079681	     119.156970
	 B(3,1,13)        =         2.094293	     119.994160
	 B(3,5,10)        =         2.095181	     120.045019
	 B(3,5,17)        =         2.079222	     119.130634
	 B(4,2,14)        =         2.093904	     119.971849
	 B(4,10,5)        =         2.093699	     119.960108
	 B(4,10,11)       =         2.094138	     119.985297
	 B(5,3,15)        =         2.094242	     119.991253
	 B(5,10,11)       =         2.095348	     120.054595
	 B(6,8,12)        =         2.165570	     124.078038
	 B(6,8,20)        =         2.106659	     120.702671
	 B(6,11,7)        =         2.090644	     119.785063
	 B(6,11,10)       =         2.096647	     120.129023
	 B(7,9,12)        =         2.164939	     124.041857
	 B(7,9,21)        =         2.108278	     120.795418
	 B(7,11,10)       =         2.095895	     120.085914
	 B(8,6,11)        =         2.056829	     117.847611
	 B(8,6,18)        =         2.099160	     120.273013
	 B(8,12,9)        =         2.031082	     116.372431
	 B(9,7,11)        =         2.057306	     117.874954
	 B(9,7,19)        =         2.099164	     120.273265
	 B(10,4,16)       =         2.109198	     120.848149
	 B(10,5,17)       =         2.108782	     120.824331
	 B(11,6,18)       =         2.127195	     121.879287
	 B(11,7,19)       =         2.126715	     121.851765
	 B(12,8,20)       =         2.010954	     115.219190
	 B(12,9,21)       =         2.009968	     115.162666
	 D(1,2,4,10)      =        -0.000325	      -0.018609
	 D(1,2,4,16)      =        -3.141283	    -179.982244
	 D(1,3,5,10)      =         0.000325	       0.018608
	 D(1,3,5,17)      =         3.141117	     179.972749
	 D(2,1,3,5)       =        -0.000348	      -0.019945
	 D(2,1,3,15)      =         3.139689	     179.890913
	 D(2,4,10,5)      =         0.000301	       0.017261
	 D(2,4,10,11)     =        -3.141289	    -179.982587
	 D(3,1,2,4)       =         0.000348	       0.019955
	 D(3,1,2,14)      =        -3.138767	    -179.838124
	 D(3,5,10,4)      =        -0.000301	      -0.017270
	 D(3,5,10,11)     =         3.141289	     179.982578
	 D(4,2,1,13)      =         3.139559	     179.883471
	 D(4,10,5,17)     =        -3.141080	    -179.970623
	 D(4,10,11,6)     =         1.046868	      59.981127
	 D(4,10,11,7)     =        -2.094740	    -120.019737
	 D(5,3,1,13)      =        -3.139558	    -179.883434
	 D(5,10,4,16)     =         3.141248	     179.980271
	 D(5,10,11,6)     =        -2.094722	    -120.018721
	 D(5,10,11,7)     =         1.046856	      59.980415
	 D(6,8,12,9)      =        -0.000325	      -0.018635
	 D(6,11,7,9)      =         0.001288	       0.073783
	 D(6,11,7,19)     =        -3.141103	    -179.971956
	 D(7,9,12,8)      =         0.000283	       0.016229
	 D(7,11,6,8)      =        -0.001325	      -0.075909
	 D(7,11,6,18)     =        -3.141019	    -179.967154
	 D(8,6,11,10)     =         3.140253	     179.923230
	 D(8,12,9,21)     =         3.140327	     179.927488
	 D(9,7,11,10)     =        -3.140290	    -179.925356
	 D(9,12,8,20)     =         3.139261	     179.866426
	 D(10,4,2,14)     =         3.138792	     179.839537
	 D(10,5,3,15)     =        -3.139713	    -179.892302
	 D(10,11,6,18)    =         0.000558	       0.031985
	 D(10,11,7,19)    =         0.000504	       0.028905
	 D(11,6,8,12)     =         0.000857	       0.049086
	 D(11,6,8,20)     =        -3.138625	    -179.829979
	 D(11,7,9,12)     =        -0.000776	      -0.044454
	 D(11,7,9,21)     =        -3.140737	    -179.950950
	 D(11,10,4,16)    =        -0.000342	      -0.019577
	 D(11,10,5,17)    =         0.000510	       0.029225
	 D(12,8,6,18)     =         3.140583	     179.942153
	 D(12,9,7,19)     =         3.141593	     180.000000
	 D(13,1,2,14)     =         0.000443	       0.025392
	 D(13,1,3,15)     =         0.000479	       0.027424
	 D(14,2,4,16)     =        -0.002166	      -0.124098
	 D(15,3,5,17)     =         0.001079	       0.061840
	 D(18,6,8,20)     =         0.001101	       0.063088
	 D(19,7,9,21)     =         0.001641	       0.094036

	Current energy   :      -478.5735507803

	Using model Hessian from Lindh (1995).
	 - Coordinate -           - BOHR/RAD -       - ANG/DEG -
	 R(1,2)           =         2.634350	       1.394038
	 R(1,3)           =         2.635962	       1.394891
	 R(1,13)          =         2.053329	       1.086575
	 R(2,4)           =         2.635830	       1.394821
	 R(2,14)          =         2.052860	       1.086327
	 R(3,5)           =         2.635830	       1.394821
	 R(3,15)          =         2.052073	       1.085910
	 R(4,10)          =         2.636938	       1.395407
	 R(4,16)          =         2.055920	       1.087946
	 R(5,10)          =         2.635263	       1.394521
	 R(5,17)          =         2.055856	       1.087912
	 R(6,8)           =         2.619202	       1.386022
	 R(6,11)          =         2.627398	       1.390359
	 R(6,18)          =         2.050461	       1.085057
	 R(7,9)           =         2.618596	       1.385701
	 R(7,11)          =         2.627201	       1.390255
	 R(7,19)          =         2.049946	       1.084785
	 R(8,12)          =         2.552937	       1.350956
	 R(8,20)          =         2.050556	       1.085107
	 R(9,12)          =         2.554816	       1.351950
	 R(9,21)          =         2.050161	       1.084899
	 R(10,11)         =         2.734183	       1.446867
	 R(12,20)         =         3.896575	       2.061979
	 R(12,21)         =         3.896710	       2.062050
	 B(1,2,4)         =         2.094553	     120.009056
	 B(1,2,14)        =         2.094726	     120.018942
	 B(1,3,5)         =         2.093692	     119.959722
	 B(1,3,15)        =         2.095250	     120.048965
	 B(2,1,3)         =         2.094940	     120.031219
	 B(2,1,13)        =         2.093950	     119.974480
	 B(2,4,10)        =         2.094306	     119.994870
	 B(2,4,16)        =         2.079681	     119.156970
	 B(3,1,13)        =         2.094293	     119.994160
	 B(3,5,10)        =         2.095181	     120.045019
	 B(3,5,17)        =         2.079222	     119.130634
	 B(4,2,14)        =         2.093904	     119.971849
	 B(4,10,5)        =         2.093699	     119.960108
	 B(4,10,11)       =         2.094138	     119.985297
	 B(5,3,15)        =         2.094242	     119.991253
	 B(5,10,11)       =         2.095348	     120.054595
	 B(6,8,12)        =         2.165570	     124.078038
	 B(6,8,20)        =         2.106659	     120.702671
	 B(6,11,7)        =         2.090644	     119.785063
	 B(6,11,10)       =         2.096647	     120.129023
	 B(7,9,12)        =         2.164939	     124.041857
	 B(7,9,21)        =         2.108278	     120.795418
	 B(7,11,10)       =         2.095895	     120.085914
	 B(8,6,11)        =         2.056829	     117.847611
	 B(8,6,18)        =         2.099160	     120.273013
	 B(8,12,9)        =         2.031082	     116.372431
	 B(8,12,20)       =         0.496199	      28.430096
	 B(8,12,21)       =         2.527409	     144.809848
	 B(8,20,12)       =         0.634440	      36.350714
	 B(9,7,11)        =         2.057306	     117.874954
	 B(9,7,19)        =         2.099164	     120.273265
	 B(9,12,20)       =         2.527279	     144.802412
	 B(9,12,21)       =         0.496327	      28.437451
	 B(9,21,12)       =         0.635298	      36.399884
	 B(10,4,16)       =         2.109198	     120.848149
	 B(10,5,17)       =         2.108782	     120.824331
	 B(11,6,18)       =         2.127195	     121.879287
	 B(11,7,19)       =         2.126715	     121.851765
	 B(12,8,20)       =         2.010954	     115.219190
	 B(12,9,21)       =         2.009968	     115.162666
	 B(20,12,21)      =         3.023605	     173.239834
	 D(1,2,4,10)      =        -0.000325	      -0.018609
	 D(1,2,4,16)      =        -3.141283	    -179.982244
	 D(1,3,5,10)      =         0.000325	       0.018608
	 D(1,3,5,17)      =         3.141117	     179.972749
	 D(2,1,3,5)       =        -0.000348	      -0.019945
	 D(2,1,3,15)      =         3.139689	     179.890913
	 D(2,4,10,5)      =         0.000301	       0.017261
	 D(2,4,10,11)     =        -3.141289	    -179.982587
	 D(3,1,2,4)       =         0.000348	       0.019955
	 D(3,1,2,14)      =        -3.138767	    -179.838124
	 D(3,5,10,4)      =        -0.000301	      -0.017270
	 D(3,5,10,11)     =         3.141289	     179.982578
	 D(4,2,1,13)      =         3.139559	     179.883471
	 D(4,10,5,17)     =        -3.141080	    -179.970623
	 D(4,10,11,6)     =         1.046868	      59.981127
	 D(4,10,11,7)     =        -2.094740	    -120.019737
	 D(5,3,1,13)      =        -3.139558	    -179.883434
	 D(5,10,4,16)     =         3.141248	     179.980271
	 D(5,10,11,6)     =        -2.094722	    -120.018721
	 D(5,10,11,7)     =         1.046856	      59.980415
	 D(6,8,12,9)      =        -0.000325	      -0.018635
	 D(6,8,12,20)     =        -3.139587	    -179.885061
	 D(6,8,12,21)     =         0.000721	       0.041283
	 D(6,8,20,12)     =         3.139660	     179.889279
	 D(6,11,7,9)      =         0.001288	       0.073783
	 D(6,11,7,19)     =        -3.141103	    -179.971956
	 D(7,9,12,8)      =         0.000283	       0.016229
	 D(7,9,12,20)     =         0.002209	       0.126557
	 D(7,9,12,21)     =        -3.140044	    -179.911259
	 D(7,9,21,12)     =         3.140099	     179.914396
	 D(7,11,6,8)      =        -0.001325	      -0.075909
	 D(7,11,6,18)     =        -3.141019	    -179.967154
	 D(8,6,11,10)     =         3.140253	     179.923230
	 D(8,12,9,21)     =         3.140327	     179.927488
	 D(8,12,21,9)     =        -0.001968	      -0.112730
	 D(8,20,12,9)     =        -0.003624	      -0.207621
	 D(8,20,12,21)    =        -0.006294	      -0.360600
	 D(9,7,11,10)     =        -3.140290	    -179.925356
	 D(9,12,8,20)     =         3.139261	     179.866426
	 D(9,21,12,20)    =         0.003232	       0.185168
	 D(10,4,2,14)     =         3.138792	     179.839537
	 D(10,5,3,15)     =        -3.139713	    -179.892302
	 D(10,11,6,18)    =         0.000558	       0.031985
	 D(10,11,7,19)    =         0.000504	       0.028905
	 D(11,6,8,12)     =         0.000857	       0.049086
	 D(11,6,8,20)     =        -3.138625	    -179.829979
	 D(11,7,9,12)     =        -0.000776	      -0.044454
	 D(11,7,9,21)     =        -3.140737	    -179.950950
	 D(11,10,4,16)    =        -0.000342	      -0.019577
	 D(11,10,5,17)    =         0.000510	       0.029225
	 D(12,8,6,18)     =         3.140583	     179.942153
	 D(12,9,7,19)     =         3.141593	     180.000000
	 D(13,1,2,14)     =         0.000443	       0.025392
	 D(13,1,3,15)     =         0.000479	       0.027424
	 D(14,2,4,16)     =        -0.002166	      -0.124098
	 D(15,3,5,17)     =         0.001079	       0.061840
	 D(18,6,8,20)     =         0.001101	       0.063088
	 D(19,7,9,21)     =         0.001641	       0.094036
	 D(20,8,12,21)    =         3.140307	     179.926344
	 D(20,12,9,21)    =        -3.140933	    -179.962185

	Adding user-defined constraint: Fragment 1; Coordinate 71:
		Value =     1.046868; Fixed value    =     1.047198
		Force =     0.000165; Force constant =     0.500000
	Removing off-diagonal coupling between coordinate 71 and others.
	Taking RFO optimization step.
	Going to follow RFO solution 1.
	Using RFO vector 1.

	Determining step-restricting scale parameter for RS-RFO.
	Maximum step size allowed    0.10000

	 Iter      |step|        alpha        rfo_root  
	------------------------------------------------
	    0     0.19366       1.00000           1
	    1     0.13941       3.44116           1
	    2     0.11363       6.49674           1
	    3     0.10298       8.96944           1
	    4     0.10021       9.85390           1
	    5     0.10000       9.92712           1
	------------------------------------------------
	Norm of target step-size    0.10000
	Projected energy change by RFO approximation:        -0.0029643586

	Back-transformation to cartesian coordinates...
	Could not converge backtransformation.
	Using first guess instead.

	--- Internal Coordinate Step in ANG or DEG, aJ/ANG or AJ/DEG ---
	 ---------------------------------------------------------------------------
	   Coordinate                Previous        Force       Change         New 
	   ----------                --------       ------       ------       ------
	    1 R(1,2)          =      1.394038    -0.046869    -0.004518     1.389520
	    2 R(1,3)          =      1.394891    -0.052410    -0.005066     1.389825
	    3 R(1,13)         =      1.086575    -0.042286    -0.005256     1.081319
	    4 R(2,4)          =      1.394821    -0.048657    -0.004608     1.390214
	    5 R(2,14)         =      1.086327    -0.039788    -0.004956     1.081371
	    6 R(3,5)          =      1.394821    -0.048625    -0.004627     1.390194
	    7 R(3,15)         =      1.085910    -0.037737    -0.004652     1.081258
	    8 R(4,10)         =      1.395407    -0.023343    -0.001994     1.393414
	    9 R(4,16)         =      1.087946    -0.046889    -0.005838     1.082108
	   10 R(5,10)         =      1.394521    -0.018069    -0.001456     1.393065
	   11 R(5,17)         =      1.087912    -0.046463    -0.005715     1.082198
	   12 R(6,8)          =      1.386022     0.003948     0.000375     1.386397
	   13 R(6,11)         =      1.390359    -0.013988    -0.000466     1.389893
	   14 R(6,18)         =      1.085057    -0.036625    -0.004546     1.080511
	   15 R(7,9)          =      1.385701     0.005002     0.000448     1.386150
	   16 R(7,11)         =      1.390255    -0.012220    -0.000410     1.389845
	   17 R(7,19)         =      1.084785    -0.035024    -0.004312     1.080473
	   18 R(8,12)         =      1.350956    -0.114006    -0.009917     1.341040
	   19 R(8,20)         =      1.085107    -0.022671    -0.002727     1.082380
	   20 R(9,12)         =      1.351950    -0.119119    -0.010419     1.341532
	   21 R(9,21)         =      1.084899    -0.021851    -0.002574     1.082325
	   22 R(10,11)        =      1.446867     0.134085     0.014713     1.461580
	   23 B(1,2,4)        =    120.009056     0.000031     0.041907   120.050963
	   24 B(1,2,14)       =    120.018942    -0.000012    -0.010761   120.008181
	   25 B(1,3,5)        =    119.959722     0.000040     0.059302   120.019024
	   26 B(1,3,15)       =    120.048965    -0.000018    -0.019634   120.029332
	   27 B(2,1,3)        =    120.031219    -0.000044    -0.168465   119.862754
	   28 B(2,1,13)       =    119.974480     0.000025     0.095855   120.070335
	   29 B(2,4,10)       =    119.994870     0.000160     0.408585   120.403455
	   30 B(2,4,16)       =    119.156970     0.000143     0.442946   119.599916
	   31 B(3,1,13)       =    119.994160     0.000019     0.072703   120.066863
	   32 B(3,5,10)       =    120.045019     0.000152     0.392174   120.437193
	   33 B(3,5,17)       =    119.130634     0.000146     0.450454   119.581087
	   34 B(4,2,14)       =    119.971849    -0.000020    -0.031198   119.940651
	   35 B(4,10,5)       =    119.960108    -0.000340    -0.734776   119.225332
	   36 B(4,10,11)      =    119.985297     0.000177     0.404189   120.389486
	   37 B(5,3,15)       =    119.991253    -0.000023    -0.039708   119.951545
	   38 B(5,10,11)      =    120.054595     0.000163     0.324730   120.379324
	   39 B(6,8,12)       =    124.078038    -0.000023    -0.143236   123.934802
	   40 B(6,8,20)       =    120.702671    -0.000033    -0.059686   120.642985
	   41 B(6,11,7)       =    119.785063    -0.000893    -1.826586   117.958478
	   42 B(6,11,10)      =    120.129023     0.000442     0.926883   121.055906
	   43 B(7,9,12)       =    124.041857    -0.000017    -0.128333   123.913524
	   44 B(7,9,21)       =    120.795418    -0.000045    -0.094820   120.700597
	   45 B(7,11,10)      =    120.085914     0.000452     0.894247   120.980161
	   46 B(8,6,11)       =    117.847611     0.000399     1.044628   118.892238
	   47 B(8,6,18)       =    120.273013    -0.000023    -0.023014   120.249998
	   48 B(8,12,9)       =    116.372431     0.000137     0.014359   116.386790
	   49 B(9,7,11)       =    117.874954     0.000397     1.038252   118.913207
	   50 B(9,7,19)       =    120.273265    -0.000023    -0.019420   120.253844
	   51 B(10,4,16)      =    120.848149    -0.000303    -0.852643   119.995507
	   52 B(10,5,17)      =    120.824331    -0.000298    -0.844029   119.980302
	   53 B(11,6,18)      =    121.879287    -0.000377    -1.022539   120.856748
	   54 B(11,7,19)      =    121.851765    -0.000374    -1.019935   120.831830
	   55 B(12,8,20)      =    115.219190     0.000056     0.201655   115.420845
	   56 B(12,9,21)      =    115.162666     0.000062     0.222653   115.385318
	   57 D(1,2,4,10)     =     -0.018609     0.000001    -0.010868    -0.029477
	   58 D(1,2,4,16)     =   -179.982244    -0.000004    -0.432560  -180.414804
	   59 D(1,3,5,10)     =      0.018608     0.000003     0.255397     0.274005
	   60 D(1,3,5,17)     =    179.972749    -0.000003    -0.131978   179.840771
	   61 D(2,1,3,5)      =     -0.019945    -0.000000     0.034419     0.014474
	   62 D(2,1,3,15)     =    179.890913    -0.000001     0.008958   179.899871
	   63 D(2,4,10,5)     =      0.017261     0.000001     0.296142     0.313403
	   64 D(2,4,10,11)    =   -179.982587    -0.000004    -0.581014  -180.563601
	   65 D(3,1,2,4)      =      0.019955    -0.000002    -0.156006    -0.136051
	   66 D(3,1,2,14)     =   -179.838124    -0.000005    -0.462712  -180.300836
	   67 D(3,5,10,4)     =     -0.017270    -0.000003    -0.418376    -0.435646
	   68 D(3,5,10,11)    =    179.982578     0.000002     0.458689   180.441267
	   69 D(4,2,1,13)     =    179.883471     0.000000     0.059244   179.942714
	   70 D(4,10,5,17)    =   -179.970623     0.000002    -0.029377  -180.000000
	   71 D(4,10,11,6)    =     59.981127    -0.000017    -0.242860    59.738267
	   72 D(4,10,11,7)    =   -120.019737    -0.000022    -1.109115  -121.128852
	   73 D(5,3,1,13)     =   -179.883434    -0.000002    -0.180855  -180.064289
	   74 D(5,10,4,16)    =    179.980271     0.000007     0.719985   180.700256
	   75 D(5,10,11,6)    =   -120.018721    -0.000022    -1.130193  -121.148914
	   76 D(5,10,11,7)    =     59.980415    -0.000027    -1.996448    57.983967
	   77 D(6,8,12,9)     =     -0.018635    -0.000000    -0.048428    -0.067063
	   78 D(6,11,7,9)     =      0.073783    -0.000003    -0.417550    -0.343767
	   79 D(6,11,7,19)    =   -179.971956     0.000002     0.011979  -179.959977
	   80 D(7,9,12,8)     =      0.016229     0.000000     0.049425     0.065654
	   81 D(7,11,6,8)     =     -0.075909     0.000003     0.418338     0.342429
	   82 D(7,11,6,18)    =   -179.967154     0.000007     0.675257  -179.291897
	   83 D(8,6,11,10)    =    179.923230    -0.000002    -0.422450   179.500779
	   84 D(8,12,9,21)    =    179.927488    -0.000003    -0.133284   179.794204
	   85 D(9,7,11,10)    =   -179.925356     0.000002     0.422570  -179.502786
	   86 D(9,12,8,20)    =    179.866426    -0.000004    -0.357675   179.508751
	   87 D(10,4,2,14)    =    179.839537     0.000004     0.295658   180.135196
	   88 D(10,5,3,15)    =   -179.892302     0.000003     0.280821  -179.611482
	   89 D(10,11,6,18)   =      0.031985     0.000001    -0.165532    -0.133547
	   90 D(10,11,7,19)   =      0.028905     0.000008     0.852099     0.881005
	   91 D(11,6,8,12)    =      0.049086    -0.000001    -0.189625    -0.140538
	   92 D(11,6,8,20)    =   -179.829979     0.000002     0.134737  -179.695241
	   93 D(11,7,9,12)    =     -0.044454     0.000002     0.187789     0.143335
	   94 D(11,7,9,21)    =   -179.950950     0.000005     0.379498  -179.571451
	   95 D(11,10,4,16)   =     -0.019577     0.000002    -0.157171    -0.176748
	   96 D(11,10,5,17)   =      0.029225     0.000007     0.847006     0.876231
	   97 D(12,8,6,18)    =    179.942153    -0.000005    -0.446087   179.496067
	   98 D(12,9,7,19)    =    180.000000    -0.000004    -0.238178   179.761822
	   99 D(13,1,2,14)    =      0.025392    -0.000003    -0.247462    -0.222070
	  100 D(13,1,3,15)    =      0.027424    -0.000003    -0.206316    -0.178892
	  101 D(14,2,4,16)    =     -0.124098    -0.000001    -0.126033    -0.250131
	  102 D(15,3,5,17)    =      0.061840    -0.000002    -0.106555    -0.044715
	  103 D(18,6,8,20)    =      0.063088    -0.000001    -0.121724    -0.058636
	  104 D(19,7,9,21)    =      0.094036    -0.000001    -0.047000     0.047036
	 ---------------------------------------------------------------------------
	Successfully symmetrized geometry.
	 Forces used to impose fixed constraints are not included.
	  Forces zeroed: 71 

  ==> Convergence Check <==

  Measures of convergence in internal coordinates in au.
  Criteria marked as inactive (o), active & met (*), and active & unmet ( ).
  --------------------------------------------------------------------------------------------- ~
   Step     Total Energy     Delta E     MAX Force     RMS Force      MAX Disp      RMS Disp    ~
  --------------------------------------------------------------------------------------------- ~
    Convergence Criteria    1.00e-06 *    3.00e-04 *             o    1.20e-03 *             o  ~
  --------------------------------------------------------------------------------------------- ~
      1    -478.57355078   -4.79e+02      1.63e-02      3.69e-03 o    3.48e-02      9.80e-03 o  ~
  ---------------------------------------------------------------------------------------------

	Writing optimization data to binary file.
	Structure for next step:
	Cartesian Geometry (in Angstrom)
	    C     0.1118975047   0.0553704957  -3.5411185198
	    C    -0.9688732436   0.6168472033  -2.8722066587
	    C     1.1459504760  -0.5277826296  -2.8184289720
	    C    -1.0167269474   0.5926169880  -1.4830281903
	    C     1.0978773442  -0.5489914828  -1.4292285177
	    C    -1.0725175634  -0.6269724358   1.3881968865
	    C     0.9786763939   0.5821798249   1.4612761117
	    C    -1.0645878345  -0.6228178818   2.7745652880
	    C     0.8983864317   0.5343611706   2.8442721132
	    C     0.0146934352   0.0066291354  -0.7520068621
	    C    -0.0299899618  -0.0077934696   0.7088186175
	    N    -0.1022036826  -0.0549575095   3.5160087569
	    H     0.1489944206   0.0732202692  -4.6216539353
	    H    -1.7723764209   1.0755136434  -3.4320026678
	    H     1.9874666863  -0.9669253383  -3.3362359024
	    H    -1.8585956697   1.0379985311  -0.9693646642
	    H     1.9056674032  -1.0072127984  -0.8736565868
	    H    -1.8751812424  -1.1101523045   0.8498910454
	    H     1.8107055203   1.0766918449   0.9810596483
	    H    -1.8596342826  -1.1007887484   3.3322317826
	    H     1.6641861841   0.9903208265   3.4583389596
			--------------------------
			 OPTKING Finished Execution 
			--------------------------

    Structure for next step:
    Molecular point group: c1
    Full point group: C1

    Geometry (in Angstrom), charge = 0, multiplicity = 1:

    C            0.112808797184     0.055735534344    -3.540865670485
    C           -0.967961951113     0.617212241925    -2.871953809397
    C            1.146861768443    -0.527417591006    -2.818176122674
    C           -1.015815654961     0.592982026597    -1.482775340947
    C            1.098788636694    -0.548626444216    -1.428975668354
    C           -1.071606270917    -0.626607397237     1.388449735815
    C            0.979587686382     0.582544863533     1.461528961073
    C           -1.063676541999    -0.622452843229     2.774818137316
    C            0.899297724180     0.534726209252     2.844524962582
    C            0.015604727662     0.006994174022    -0.751754012700
    C           -0.029078669379    -0.007428431036     0.709071466864
    N           -0.101292390131    -0.054592470848     3.516261606286
    H            0.149905713094     0.073585307789    -4.621401085943
    H           -1.771465128431     1.075878682002    -3.431749818414
    H            1.988377978719    -0.966560299711    -3.335983053029
    H           -1.857684377266     1.038363569710    -0.969111814807
    H            1.906578695683    -1.006847759776    -0.873403737423
    H           -1.874269949950    -1.109787265921     0.850143894738
    H            1.811616812800     1.077056883554     0.981312497645
    H           -1.858722990130    -1.100423709782     3.332484631998
    H            1.665097476526     0.990685865128     3.458591808943

gradient() will perform analytic gradient computation.

*** tstart() called on gpu-2-12.local
*** at Mon Nov 13 23:47:51 2017

    SCF Algorithm Type (re)set to DF.

*** tstart() called on gpu-2-12.local
*** at Mon Nov 13 23:47:51 2017

   => Loading Basis Set <=

    Name: AUG-CC-PVTZ
    Role: ORBITAL
    Keyword: BASIS
    atoms 1-11  entry C          line   221 file /cbio/jclab/home/chayas/anaconda/envs/py35/share/psi4/basis/aug-cc-pvtz.gbs 
    atoms 12    entry N          line   267 file /cbio/jclab/home/chayas/anaconda/envs/py35/share/psi4/basis/aug-cc-pvtz.gbs 
    atoms 13-21 entry H          line    34 file /cbio/jclab/home/chayas/anaconda/envs/py35/share/psi4/basis/aug-cc-pvtz.gbs 


         ---------------------------------------------------------
                                   SCF
            by Justin Turney, Rob Parrish, and Andy Simmonett
                              RHF Reference
                        8 Threads,   4768 MiB Core
         ---------------------------------------------------------

  ==> Geometry <==

    Molecular point group: c1
    Full point group: C1

    Geometry (in Angstrom), charge = 0, multiplicity = 1:

       Center              X                  Y                   Z               Mass       
    ------------   -----------------  -----------------  -----------------  -----------------
           C          0.112808797184     0.055735534344    -3.540865670485    12.000000000000
           C         -0.967961951113     0.617212241925    -2.871953809397    12.000000000000
           C          1.146861768443    -0.527417591006    -2.818176122674    12.000000000000
           C         -1.015815654961     0.592982026597    -1.482775340947    12.000000000000
           C          1.098788636694    -0.548626444216    -1.428975668354    12.000000000000
           C         -1.071606270917    -0.626607397237     1.388449735815    12.000000000000
           C          0.979587686382     0.582544863533     1.461528961073    12.000000000000
           C         -1.063676541999    -0.622452843229     2.774818137316    12.000000000000
           C          0.899297724180     0.534726209252     2.844524962582    12.000000000000
           C          0.015604727662     0.006994174022    -0.751754012700    12.000000000000
           C         -0.029078669379    -0.007428431036     0.709071466864    12.000000000000
           N         -0.101292390131    -0.054592470848     3.516261606286    14.003074004780
           H          0.149905713094     0.073585307789    -4.621401085943     1.007825032070
           H         -1.771465128431     1.075878682002    -3.431749818414     1.007825032070
           H          1.988377978719    -0.966560299711    -3.335983053029     1.007825032070
           H         -1.857684377266     1.038363569710    -0.969111814807     1.007825032070
           H          1.906578695683    -1.006847759776    -0.873403737423     1.007825032070
           H         -1.874269949950    -1.109787265921     0.850143894738     1.007825032070
           H          1.811616812800     1.077056883554     0.981312497645     1.007825032070
           H         -1.858722990130    -1.100423709782     3.332484631998     1.007825032070
           H          1.665097476526     0.990685865128     3.458591808943     1.007825032070

  Running in c1 symmetry.

  Rotational constants: A =      0.09868  B =      0.01806  C =      0.01650 [cm^-1]
  Rotational constants: A =   2958.38366  B =    541.47967  C =    494.72325 [MHz]
  Nuclear repulsion =  605.760009520411472

  Charge       = 0
  Multiplicity = 1
  Electrons    = 82
  Nalpha       = 41
  Nbeta        = 41

  ==> Algorithm <==

  SCF Algorithm Type is DF.
  DIIS enabled.
  MOM disabled.
  Fractional occupation disabled.
  Guess Type is READ.
  Energy threshold   = 1.00e-10
  Density threshold  = 1.00e-10
  Integral threshold = 0.00e+00

  ==> Primary Basis <==

  Basis Set: AUG-CC-PVTZ
    Blend: AUG-CC-PVTZ
    Number of shells: 249
    Number of basis function: 759
    Number of Cartesian functions: 885
    Spherical Harmonics?: true
    Max angular momentum: 3

   => Loading Basis Set <=

    Name: (AUG-CC-PVTZ AUX)
    Role: JKFIT
    Keyword: DF_BASIS_SCF
    atoms 1-11  entry C          line   161 file /cbio/jclab/home/chayas/anaconda/envs/py35/share/psi4/basis/aug-cc-pvtz-jkfit.gbs 
    atoms 12    entry N          line   223 file /cbio/jclab/home/chayas/anaconda/envs/py35/share/psi4/basis/aug-cc-pvtz-jkfit.gbs 
    atoms 13-21 entry H          line    69 file /cbio/jclab/home/chayas/anaconda/envs/py35/share/psi4/basis/aug-cc-pvtz-jkfit.gbs 

  Reading orbitals from file 180, no projection.

  ==> Pre-Iterations <==

   -------------------------------------------------------
    Irrep   Nso     Nmo     Nalpha   Nbeta   Ndocc  Nsocc
   -------------------------------------------------------
     A        759     759       0       0       0       0
   -------------------------------------------------------
    Total     759     759      41      41      41       0
   -------------------------------------------------------

  ==> Integral Setup <==

  ==> DFJK: Density-Fitted J/K Matrices <==

    J tasked:                  Yes
    K tasked:                  Yes
    wK tasked:                  No
    OpenMP threads:              8
    Integrals threads:           8
    Memory (MB):              3576
    Algorithm:                Core
    Integral Cache:           NONE
    Schwarz Cutoff:          1E-12
    Fitting Condition:       1E-12

   => Auxiliary Basis Set <=

  Basis Set: (AUG-CC-PVTZ AUX)
    Blend: AUG-CC-PVTZ-JKFIT
    Number of shells: 486
    Number of basis function: 1662
    Number of Cartesian functions: 2067
    Spherical Harmonics?: true
    Max angular momentum: 4

  Minimum eigenvalue in the overlap matrix is 4.7318342786E-07.
  Using Symmetric Orthogonalization.

  SCF Guess: Orbitals guess was supplied from a previous computation.

  ==> Iterations <==

                           Total Energy        Delta E     RMS |[F,P]|

   @DF-RHF iter   0:  -476.51469237466415   -4.76515e+02   4.64147e-04 
   @DF-RHF iter   1:  -476.39949698756050    1.15195e-01   1.29547e-04 
   @DF-RHF iter   2:  -476.40013215097974   -6.35163e-04   9.48162e-05 DIIS
   @DF-RHF iter   3:  -476.40057478725976   -4.42636e-04   1.24803e-05 DIIS
   @DF-RHF iter   4:  -476.40058494435493   -1.01571e-05   5.07523e-06 DIIS
   @DF-RHF iter   5:  -476.40058735781452   -2.41346e-06   1.47474e-06 DIIS
   @DF-RHF iter   6:  -476.40058775214220   -3.94328e-07   9.61583e-07 DIIS
   @DF-RHF iter   7:  -476.40058788869504   -1.36553e-07   3.36346e-07 DIIS
   @DF-RHF iter   8:  -476.40058792419364   -3.54986e-08   1.30904e-07 DIIS
   @DF-RHF iter   9:  -476.40058792941738   -5.22374e-09   5.63779e-08 DIIS
   @DF-RHF iter  10:  -476.40058792994671   -5.29326e-10   1.95955e-08 DIIS
   @DF-RHF iter  11:  -476.40058793001509   -6.83826e-11   3.04631e-09 DIIS
   @DF-RHF iter  12:  -476.40058793006665   -5.15570e-11   1.73612e-09 DIIS
   @DF-RHF iter  13:  -476.40058793002390    4.27463e-11   9.29240e-10 DIIS
   @DF-RHF iter  14:  -476.40058793004215   -1.82467e-11   4.14034e-10 DIIS
   @DF-RHF iter  15:  -476.40058793003533    6.82121e-12   1.65970e-10 DIIS
   @DF-RHF iter  16:  -476.40058793002584    9.49285e-12   6.02771e-11 DIIS

  ==> Post-Iterations <==

    Orbital Energies (a.u.)
    -----------------------

    Doubly Occupied:                                                      

       1A    -15.563846     2A    -11.273550     3A    -11.273519  
       4A    -11.264475     5A    -11.252013     6A    -11.244215  
       7A    -11.244121     8A    -11.243091     9A    -11.242836  
      10A    -11.241464    11A    -11.237944    12A    -11.237872  
      13A     -1.256385    14A     -1.174440    15A     -1.107834  
      16A     -1.035624    17A     -1.025539    18A     -1.018337  
      19A     -0.880438    20A     -0.862506    21A     -0.834323  
      22A     -0.807397    23A     -0.731591    24A     -0.686549  
      25A     -0.670585    26A     -0.657076    27A     -0.634509  
      28A     -0.633464    29A     -0.599437    30A     -0.595693  
      31A     -0.581869    32A     -0.542465    33A     -0.525716  
      34A     -0.509700    35A     -0.507965    36A     -0.501457  
      37A     -0.419281    38A     -0.390725    39A     -0.351280  
      40A     -0.345422    41A     -0.333937  

    Virtual:                                                              

      42A      0.025211    43A      0.030808    44A      0.032674  
      45A      0.037185    46A      0.043427    47A      0.046962  
      48A      0.051442    49A      0.054090    50A      0.060526  
      51A      0.080619    52A      0.085583    53A      0.089684  
      54A      0.093443    55A      0.093965    56A      0.098356  
      57A      0.100897    58A      0.107381    59A      0.108054  
      60A      0.110853    61A      0.114385    62A      0.114773  
      63A      0.119916    64A      0.121887    65A      0.126341  
      66A      0.129312    67A      0.130367    68A      0.132409  
      69A      0.135272    70A      0.143425    71A      0.144426  
      72A      0.144622    73A      0.149738    74A      0.151897  
      75A      0.153806    76A      0.157017    77A      0.159977  
      78A      0.172115    79A      0.176028    80A      0.176926  
      81A      0.187585    82A      0.189914    83A      0.200664  
      84A      0.204966    85A      0.214368    86A      0.225726  
      87A      0.228082    88A      0.234905    89A      0.239570  
      90A      0.241865    91A      0.242521    92A      0.247882  
      93A      0.251675    94A      0.254591    95A      0.260681  
      96A      0.265532    97A      0.265808    98A      0.270588  
      99A      0.272747   100A      0.278566   101A      0.282729  
     102A      0.287194   103A      0.293951   104A      0.295473  
     105A      0.299969   106A      0.305650   107A      0.305876  
     108A      0.312956   109A      0.316525   110A      0.319643  
     111A      0.325117   112A      0.326480   113A      0.330508  
     114A      0.331857   115A      0.333019   116A      0.344989  
     117A      0.350799   118A      0.358482   119A      0.361203  
     120A      0.363241   121A      0.364191   122A      0.375325  
     123A      0.384203   124A      0.388851   125A      0.395062  
     126A      0.398905   127A      0.409601   128A      0.413561  
     129A      0.416140   130A      0.417077   131A      0.424238  
     132A      0.427249   133A      0.438747   134A      0.441916  
     135A      0.443379   136A      0.444345   137A      0.446216  
     138A      0.448049   139A      0.459138   140A      0.462736  
     141A      0.472084   142A      0.473070   143A      0.477095  
     144A      0.478091   145A      0.480854   146A      0.481637  
     147A      0.485653   148A      0.486695   149A      0.489408  
     150A      0.491747   151A      0.499708   152A      0.501220  
     153A      0.508183   154A      0.511373   155A      0.512718  
     156A      0.517211   157A      0.521610   158A      0.522173  
     159A      0.526184   160A      0.531619   161A      0.532273  
     162A      0.538629   163A      0.540743   164A      0.547115  
     165A      0.550173   166A      0.552386   167A      0.553362  
[...]
	 B(6,11,10)       =         2.119381	     121.431599
	 B(7,9,12)        =         2.157999	     123.644243
	 B(7,9,21)        =         2.096815	     120.138662
	 B(7,11,10)       =         2.118012	     121.353140
	 B(8,6,11)        =         2.083733	     119.389107
	 B(8,6,18)        =         2.100601	     120.355584
	 B(8,12,9)        =         2.038991	     116.825592
	 B(8,12,20)       =         0.491252	      28.146647
	 B(8,12,21)       =         2.530292	     144.975072
	 B(8,20,12)       =         0.621827	      35.628065
	 B(9,7,11)        =         2.083271	     119.362625
	 B(9,7,19)        =         2.100857	     120.370267
	 B(9,12,20)       =         2.530209	     144.970288
	 B(9,12,21)       =         0.491302	      28.149507
	 B(9,21,12)       =         0.621921	      35.633425
	 B(10,4,16)       =         2.081710	     119.273192
	 B(10,5,17)       =         2.081849	     119.281149
	 B(11,6,18)       =         2.098840	     120.254675
	 B(11,7,19)       =         2.098970	     120.262121
	 B(12,8,20)       =         2.028514	     116.225288
	 B(12,9,21)       =         2.028370	     116.217069
	 B(20,12,21)      =         3.021418	     173.114502
	 D(1,2,4,10)      =        -0.008648	      -0.495478
	 D(1,2,4,16)      =         3.127198	     179.175271
	 D(1,3,5,10)      =         0.009751	       0.558696
	 D(1,3,5,17)      =         3.136356	     179.699944
	 D(2,1,3,5)       =         0.002745	       0.157292
	 D(2,1,3,15)      =        -3.141008	    -179.966479
	 D(2,4,10,5)      =         0.020875	       1.196055
	 D(2,4,10,11)     =         3.111997	     178.304310
	 D(3,1,2,4)       =        -0.003295	      -0.188818
	 D(3,1,2,14)      =         3.128780	     179.265862
	 D(3,5,10,4)      =        -0.021422	      -1.227388
	 D(3,5,10,11)     =        -3.112577	    -178.337537
	 D(4,2,1,13)      =        -3.141407	    -179.989336
	 D(4,10,5,17)     =         3.135009	     179.622795
	 D(4,10,11,6)     =         1.040218	      59.600097
	 D(4,10,11,7)     =        -2.153112	    -123.364255
	 D(5,3,1,13)      =         3.140856	     179.957807
	 D(5,10,4,16)     =        -3.115028	    -178.477947
	 D(5,10,11,6)     =        -2.152477	    -123.327867
	 D(5,10,11,7)     =         0.937378	      53.707782
	 D(6,8,12,9)      =        -0.001335	      -0.076482
	 D(6,8,12,20)     =        -3.133293	    -179.524445
	 D(6,8,12,21)     =        -0.002259	      -0.129443
	 D(6,8,20,12)     =         3.133599	     179.541980
	 D(6,11,7,9)      =        -0.019395	      -1.111247
	 D(6,11,7,19)     =         3.136322	     179.698036
	 D(7,9,12,8)      =         0.002149	       0.123140
	 D(7,9,12,20)     =         0.010067	       0.576816
	 D(7,9,12,21)     =        -3.140568	    -179.941290
	 D(7,9,21,12)     =         3.140606	     179.943484
	 D(7,11,6,8)      =         0.020146	       1.154259
	 D(7,11,6,18)     =        -3.116412	    -178.557236
	 D(8,6,11,10)     =         3.112085	     178.309337
	 D(8,12,9,21)     =        -3.140468	    -179.935570
	 D(8,12,21,9)     =         0.001748	       0.100180
	 D(8,20,12,9)     =        -0.014979	      -0.858255
	 D(8,20,12,21)    =        -0.050571	      -2.897511
	 D(9,7,11,10)     =        -3.111376	    -178.268704
	 D(9,12,8,20)     =         3.131958	     179.447964
	 D(9,21,12,20)    =         0.043308	       2.481388
	 D(10,4,2,14)     =        -3.140741	    -179.951178
	 D(10,5,3,15)     =        -3.129686	    -179.317790
	 D(10,11,6,18)    =        -0.024472	      -1.402157
	 D(10,11,7,19)    =         0.044341	       2.540580
	 D(11,6,8,12)     =        -0.010206	      -0.584750
	 D(11,6,8,20)     =         3.139998	     179.908633
	 D(11,7,9,12)     =         0.008595	       0.492469
	 D(11,7,9,21)     =        -3.131934	    -179.446627
	 D(11,10,4,16)    =        -0.023906	      -1.369692
	 D(11,10,5,17)    =         0.043854	       2.512646
	 D(12,8,6,18)     =         3.126346	     179.126448
	 D(12,9,7,19)     =         3.136048	     179.682292
	 D(13,1,2,14)     =        -0.009332	      -0.534656
	 D(13,1,3,15)     =        -0.002897	      -0.165964
	 D(14,2,4,16)     =        -0.004894	      -0.280428
	 D(15,3,5,17)     =        -0.003081	      -0.176542
	 D(18,6,8,20)     =        -0.006635	      -0.380169
	 D(19,7,9,21)     =        -0.004482	      -0.256804
	 D(20,8,12,21)    =         3.131033	     179.395002
	 D(20,12,9,21)    =        -3.132550	    -179.481894

	Adding user-defined constraint: Fragment 1; Coordinate 71:
		Value =     1.040218; Fixed value    =     1.047198
		Force =     0.003490; Force constant =     0.500000
	Removing off-diagonal coupling between coordinate 71 and others.
	Taking RFO optimization step.
	Going to follow RFO solution 1.
	Using RFO vector 1.
	Norm of target step-size    0.02967
	Projected energy change by RFO approximation:        -0.0000008275

	Back-transformation to cartesian coordinates...
	Successfully converged to displaced geometry.

	--- Internal Coordinate Step in ANG or DEG, aJ/ANG or AJ/DEG ---
	 ---------------------------------------------------------------------------
	   Coordinate                Previous        Force       Change         New 
	   ----------                --------       ------       ------       ------
	    1 R(1,2)          =      1.388491     0.000060    -0.000003     1.388488
	    2 R(1,3)          =      1.388598    -0.000102    -0.000036     1.388561
	    3 R(1,13)         =      1.079054     0.000034    -0.000005     1.079048
	    4 R(2,4)          =      1.387141     0.000031     0.000011     1.387152
	    5 R(2,14)         =      1.079292    -0.000056    -0.000010     1.079282
	    6 R(3,5)          =      1.387096    -0.000085    -0.000008     1.387088
	    7 R(3,15)         =      1.079284     0.000043     0.000015     1.079299
	    8 R(4,10)         =      1.393319    -0.000038     0.000012     1.393332
	    9 R(4,16)         =      1.080016    -0.000133    -0.000024     1.079992
	   10 R(5,10)         =      1.393348    -0.000014     0.000018     1.393366
	   11 R(5,17)         =      1.079949     0.000106     0.000008     1.079957
	   12 R(6,8)          =      1.386274     0.000191     0.000046     1.386320
	   13 R(6,11)         =      1.390575    -0.000044     0.000006     1.390580
	   14 R(6,18)         =      1.079751    -0.000293    -0.000044     1.079707
	   15 R(7,9)          =      1.386212     0.000108     0.000031     1.386243
	   16 R(7,11)         =      1.390617    -0.000073     0.000002     1.390619
	   17 R(7,19)         =      1.079724    -0.000114    -0.000022     1.079703
	   18 R(8,12)         =      1.334992     0.000204     0.000021     1.335013
	   19 R(8,20)         =      1.081086     0.000017     0.000003     1.081089
	   20 R(9,12)         =      1.335049     0.000034    -0.000003     1.335046
	   21 R(9,21)         =      1.081092     0.000083     0.000019     1.081111
	   22 R(10,11)        =      1.464957    -0.000022     0.000039     1.464995
	   23 B(1,2,4)        =    120.047745    -0.000000    -0.000017   120.047728
	   24 B(1,2,14)       =    120.067991    -0.000001    -0.004865   120.063126
	   25 B(1,3,5)        =    120.076506    -0.000001    -0.004254   120.072252
	   26 B(1,3,15)       =    120.065180    -0.000000    -0.003804   120.061377
	   27 B(2,1,3)        =    119.851099     0.000001     0.003441   119.854540
	   28 B(2,1,13)       =    120.073458    -0.000000     0.000320   120.073778
	   29 B(2,4,10)       =    120.458505    -0.000000     0.000013   120.458519
	   30 B(2,4,16)       =    120.267495    -0.000000    -0.004358   120.263137
	   31 B(3,1,13)       =    120.075143    -0.000001    -0.003813   120.071330
	   32 B(3,5,10)       =    120.428361     0.000001     0.004450   120.432811
	   33 B(3,5,17)       =    120.284995    -0.000001    -0.009446   120.275549
	   34 B(4,2,14)       =    119.882022     0.000001     0.005183   119.887206
	   35 B(4,10,5)       =    119.126354    -0.000000    -0.002647   119.123707
	   36 B(4,10,11)      =    120.436913     0.000005     0.009561   120.446474
	   37 B(5,3,15)       =    119.858198     0.000001     0.008150   119.866348
	   38 B(5,10,11)      =    120.373021    -0.000004     0.000071   120.373092
	   39 B(6,8,12)       =    123.615693     0.000002     0.006688   123.622380
	   40 B(6,8,20)       =    120.157314    -0.000000    -0.000092   120.157222
	   41 B(6,11,7)       =    117.152460     0.000002     0.001354   117.153814
	   42 B(6,11,10)      =    121.431599     0.000004     0.010463   121.442061
	   43 B(7,9,12)       =    123.644243     0.000001     0.004533   123.648776
	   44 B(7,9,21)       =    120.138662     0.000000     0.002717   120.141379
	   45 B(7,11,10)      =    121.353140    -0.000004    -0.003979   121.349161
	   46 B(8,6,11)       =    119.389107    -0.000002    -0.003682   119.385425
	   47 B(8,6,18)       =    120.355584     0.000000    -0.000640   120.354944
	   48 B(8,12,9)       =    116.825592    -0.000002    -0.007300   116.818292
	   49 B(9,7,11)       =    119.362625    -0.000001    -0.000170   119.362455
	   50 B(9,7,19)       =    120.370267    -0.000001    -0.005274   120.364993
	   51 B(10,4,16)      =    119.273192     0.000001     0.002080   119.275272
	   52 B(10,5,17)      =    119.281149    -0.000000     0.000714   119.281864
	   53 B(11,6,18)      =    120.254675     0.000002     0.003109   120.257784
	   54 B(11,7,19)      =    120.262121     0.000001     0.003035   120.265156
	   55 B(12,8,20)      =    116.225288    -0.000002    -0.008935   116.216354
	   56 B(12,9,21)      =    116.217069    -0.000001    -0.007904   116.209165
	   57 D(1,2,4,10)     =     -0.495478     0.000003     0.228944    -0.266534
	   58 D(1,2,4,16)     =    179.175271    -0.000000    -0.084027   179.091244
	   59 D(1,3,5,10)     =      0.558696     0.000000     0.152272     0.710968
	   60 D(1,3,5,17)     =    179.699944    -0.000001    -0.134465   179.565478
	   61 D(2,1,3,5)      =      0.157292    -0.000001    -0.103884     0.053408
	   62 D(2,1,3,15)     =   -179.966479    -0.000001    -0.035761  -180.002239
	   63 D(2,4,10,5)     =      1.196055    -0.000003    -0.179964     1.016091
	   64 D(2,4,10,11)    =    178.304310     0.000001    -0.016952   178.287358
	   65 D(3,1,2,4)      =     -0.188818    -0.000000    -0.085845    -0.274663
	   66 D(3,1,2,14)     =    179.265862    -0.000000    -0.047752   179.218110
	   67 D(3,5,10,4)     =     -1.227388     0.000002    -0.010638    -1.238026
	   68 D(3,5,10,11)    =   -178.337537    -0.000003    -0.173809  -178.511346
	   69 D(4,2,1,13)     =   -179.989336    -0.000001    -0.069415  -180.058751
	   70 D(4,10,5,17)    =    179.622795     0.000003     0.273354   179.896150
	   71 D(4,10,11,6)    =     59.600097    -0.000007    -0.232733    59.367364
	   72 D(4,10,11,7)    =   -123.364255    -0.000002    -0.041686  -123.405941
	   73 D(5,3,1,13)     =    179.957807    -0.000001    -0.120306   179.837501
	   74 D(5,10,4,16)    =   -178.477947    -0.000000     0.129957  -178.347990
	   75 D(5,10,11,6)    =   -123.327867    -0.000002    -0.067749  -123.395616
	   76 D(5,10,11,7)    =     53.707782     0.000003     0.123298    53.831079
	   77 D(6,8,12,9)     =     -0.076482     0.000000     0.023641    -0.052840
	   78 D(6,11,7,9)     =     -1.111247     0.000002     0.084655    -1.026592
	   79 D(6,11,7,19)    =    179.698036     0.000003     0.260977   179.959013
	   80 D(7,9,12,8)     =      0.123140    -0.000001    -0.015589     0.107552
	   81 D(7,11,6,8)     =      1.154259    -0.000003    -0.077341     1.076918
	   82 D(7,11,6,18)    =   -178.557236    -0.000000     0.126793  -178.430443
	   83 D(8,6,11,10)    =    178.309337     0.000002     0.105852   178.415190
	   84 D(8,12,9,21)    =   -179.935570    -0.000002    -0.257303  -180.192873
	   85 D(9,7,11,10)    =   -178.268704    -0.000003    -0.098795  -178.367498
	   86 D(9,12,8,20)    =    179.447964    -0.000001    -0.233193   179.214771
	   87 D(10,4,2,14)    =   -179.951178     0.000002     0.190973  -179.760205
	   88 D(10,5,3,15)    =   -179.317790    -0.000000     0.084297  -179.233493
	   89 D(10,11,6,18)   =     -1.402157     0.000005     0.309986    -1.092171
	   90 D(10,11,7,19)   =      2.540580    -0.000002     0.077528     2.618107
	   91 D(11,6,8,12)    =     -0.584750     0.000002     0.024043    -0.560706
	   92 D(11,6,8,20)    =    179.908633     0.000003     0.290564   180.199197
	   93 D(11,7,9,12)    =      0.492469    -0.000000    -0.039926     0.452544
	   94 D(11,7,9,21)    =   -179.446627     0.000000     0.210850  -179.235777
	   95 D(11,10,4,16)   =     -1.369692     0.000005     0.292969    -1.076723
	   96 D(11,10,5,17)   =      2.512646    -0.000002     0.110184     2.622830
	   97 D(12,8,6,18)    =    179.126448    -0.000001    -0.180282   178.946166
	   98 D(12,9,7,19)    =    179.682292    -0.000001    -0.216359   179.465933
	   99 D(13,1,2,14)    =     -0.534656    -0.000000    -0.031321    -0.565977
	  100 D(13,1,3,15)    =     -0.165964    -0.000000    -0.052182    -0.218147
	  101 D(14,2,4,16)    =     -0.280428    -0.000001    -0.121998    -0.402427
	  102 D(15,3,5,17)    =     -0.176542    -0.000001    -0.202441    -0.378983
	  103 D(18,6,8,20)    =     -0.380169     0.000000     0.086239    -0.293930
	  104 D(19,7,9,21)    =     -0.256804    -0.000000     0.034417    -0.222387
	  105 R(1,X)          =      0.122854     0.000059     0.000307     0.123162
	  106 R(1,Y)          =      0.060306     0.000061     0.001433     0.061739
	  107 R(1,Z)          =     -3.542633     0.000116    -0.000019    -3.542652
	  108 R(2,X)          =     -0.972888    -0.000218     0.000609    -0.972279
	  109 R(2,Y)          =      0.599948    -0.000257     0.001415     0.601363
	  110 R(2,Z)          =     -2.882298     0.000043     0.000490    -2.881807
	  111 R(3,X)          =      1.161385     0.000119     0.000246     1.161631
	  112 R(3,Y)          =     -0.502554     0.000222     0.000625    -0.501929
	  113 R(3,Z)          =     -2.812671    -0.000038    -0.000623    -2.813294
	  114 R(4,X)          =     -1.031235    -0.000561     0.000004    -1.031231
	  115 R(4,Y)          =      0.573037    -0.000836    -0.001000     0.572037
	  116 R(4,Z)          =     -1.496646     0.000049     0.000427    -1.496219
	  117 R(5,X)          =      1.102818     0.000370     0.001447     1.104264
	  118 R(5,Y)          =     -0.528606     0.001068     0.001750    -0.526856
	  119 R(5,Z)          =     -1.427056    -0.000096    -0.000561    -1.427617
	  120 R(6,X)          =     -1.084681    -0.000660     0.000145    -1.084536
	  121 R(6,Y)          =     -0.603848     0.000755    -0.001180    -0.605028
	  122 R(6,Z)          =      1.402844    -0.000229    -0.000947     1.401897
	  123 R(7,X)          =      0.982960     0.000484    -0.000280     0.982679
	  124 R(7,Y)          =      0.559796    -0.000970    -0.000475     0.559321
	  125 R(7,Z)          =      1.460157    -0.000098     0.001042     1.461199
	  126 R(8,X)          =     -1.066222    -0.000287    -0.001004    -1.067226
	  127 R(8,Y)          =     -0.604772     0.000562    -0.001318    -0.606090
	  128 R(8,Z)          =      2.788995    -0.000043    -0.000886     2.788109
	  129 R(9,X)          =      0.915761     0.000207    -0.001419     0.914342
	  130 R(9,Y)          =      0.509632    -0.000552    -0.000825     0.508807
	  131 R(9,Z)          =      2.843830     0.000012     0.001005     2.844835
	  132 R(10,X)         =     -0.000011     0.000630     0.001330     0.001319
	  133 R(10,Y)         =     -0.002601     0.001391     0.000821    -0.001780
	  134 R(10,Z)         =     -0.757350     0.000050     0.000015    -0.757335
	  135 R(11,X)         =     -0.044404     0.000708     0.000986    -0.043417
	  136 R(11,Y)         =      0.002138    -0.001385    -0.001469     0.000669
	  137 R(11,Z)         =      0.706926     0.000040     0.000049     0.706975
	  138 R(12,X)         =     -0.087899     0.000105    -0.001696    -0.089594
	  139 R(12,Y)         =     -0.059506    -0.000107    -0.001371    -0.060877
	  140 R(12,Z)         =      3.515474     0.000305     0.000123     3.515596
	  141 R(13,X)         =      0.168752     0.000058     0.000263     0.169014
	  142 R(13,Y)         =      0.081172     0.000005     0.002304     0.083476
	  143 R(13,Z)         =     -4.620508     0.000081     0.000002    -4.620506
	  144 R(14,X)         =     -1.776537    -0.000115     0.001084    -1.775453
	  145 R(14,Y)         =      1.048924    -0.000371     0.002702     1.051626
	  146 R(14,Z)         =     -3.445716    -0.000087     0.000860    -3.444856
	  147 R(15,X)         =      2.015009    -0.000026    -0.000297     2.014711
	  148 R(15,Y)         =     -0.922518    -0.000029     0.000145    -0.922374
	  149 R(15,Z)         =     -3.322387    -0.000164    -0.001168    -3.323555
	  150 R(16,X)         =     -1.875594    -0.000466     0.000880    -1.874714
	  151 R(16,Y)         =      1.003634    -0.000823     0.000186     1.003820
	  152 R(16,Z)         =     -0.978883    -0.000084     0.000816    -0.978067
	  153 R(17,X)         =      1.906371     0.000168     0.000457     1.906828
	  154 R(17,Y)         =     -0.969853     0.000375    -0.000845    -0.970699
	  155 R(17,Z)         =     -0.856185    -0.000147    -0.001165    -0.857350
	  156 R(18,X)         =     -1.896542    -0.000460     0.002125    -1.894417
	  157 R(18,Y)         =     -1.073194     0.000814    -0.003684    -1.076878
	  158 R(18,Z)         =      0.867625     0.000008    -0.001656     0.865970
	  159 R(19,X)         =      1.818068     0.000089    -0.001793     1.816275
	  160 R(19,Y)         =      1.038648    -0.000339     0.003052     1.041700
	  161 R(19,Z)         =      0.971179     0.000097     0.001976     0.973155
	  162 R(20,X)         =     -1.869316    -0.000079     0.000735    -1.868581
	  163 R(20,Y)         =     -1.071009     0.000303    -0.005184    -1.076192
	  164 R(20,Z)         =      3.342538     0.000073    -0.001629     3.340909
	  165 R(21,X)         =      1.703091    -0.000125    -0.004128     1.698963
	  166 R(21,Y)         =      0.947106     0.000111     0.002919     0.950024
	  167 R(21,Z)         =      3.441733     0.000113     0.001849     3.443582
	 ---------------------------------------------------------------------------
	Successfully symmetrized geometry.
	 Forces used to impose fixed constraints are not included.
	  Forces zeroed: 71 

  ==> Convergence Check <==

  Measures of convergence in internal coordinates in au.
  Criteria marked as inactive (o), active & met (*), and active & unmet ( ).
  --------------------------------------------------------------------------------------------- ~
   Step     Total Energy     Delta E     MAX Force     RMS Force      MAX Disp      RMS Disp    ~
  --------------------------------------------------------------------------------------------- ~
    Convergence Criteria    1.00e-06 *    3.00e-04 *             o    1.20e-03 *             o  ~
  --------------------------------------------------------------------------------------------- ~
      1    -478.57584226   -4.79e+02      2.68e-04 *    6.83e-05 o    9.80e-03      2.30e-03 o  ~
  ---------------------------------------------------------------------------------------------

	Writing optimization data to binary file.
	
Fatal Error: PSIO Error
Error occurred in file: /scratch/psilocaluser/conda-builds/psi4_1495011512596/work/psi4/src/psi4/libpsio/error.cc on line: 129
The most recent 5 function calls were:

psi::PsiException::PsiException(std::__cxx11::basic_string<char, std::char_traits<char>, std::allocator<char> >, char const*, int)
psi::psio_error(unsigned int, unsigned int)
psi::PSIO::write(unsigned int, char const*, char*, unsigned long, psi::psio_address, psi::psio_address*)
psi::PSIO::write_entry(unsigned int, char const*, char*, unsigned long)
psi::psio_write_entry(unsigned int, char const*, char*, unsigned long)
