
    -----------------------------------------------------------------------
          Psi4: An Open-Source Ab Initio Electronic Structure Package
                               Psi4 1.1 release

                         Git: Rev {HEAD} add49b9 


    R. M. Parrish, L. A. Burns, D. G. A. Smith, A. C. Simmonett,
    A. E. DePrince III, E. G. Hohenstein, U. Bozkaya, A. Yu. Sokolov,
    R. Di Remigio, R. M. Richard, J. F. Gonthier, A. M. James,
    H. R. McAlexander, A. Kumar, M. Saitow, X. Wang, B. P. Pritchard,
    P. Verma, H. F. Schaefer III, K. Patkowski, R. A. King, E. F. Valeev,
    F. A. Evangelista, J. M. Turney, T. D. Crawford, and C. D. Sherrill,
    J. Chem. Theory Comput. in press (2017).
    (doi: 10.1021/acs.jctc.7b00174)

    -----------------------------------------------------------------------


    Psi4 started on: Sunday, 12 November 2017 01:47AM

    Process ID:  25947
    PSIDATADIR: /cbio/jclab/home/chayas/anaconda/envs/py35/share/psi4
    Memory:     500.0 MiB
    Threads:    8
    
  ==> Input File <==

--------------------------------------------------------------------------

memory 5 Gb

molecule phepyrFOH_zwitterion {
  symmetry C1
  0 1 
  C      1.885   -1.036   -0.112
  C      0.807   -0.463   0.561
  C      3.853   -2.769   -1.362
  C      5.298   -2.251   0.495
  C      1.800   -1.079   2.676
  C      4.942   -3.332   -2.012
  C      6.351   -2.827   -0.203
  C      2.921   -1.631   0.608
  C      4.038   -2.224   -0.095
  C      0.764   -0.484   1.955
  C      2.878   -1.652   2.002
  N      6.145   -3.344   -1.421
  O      -0.227   0.043   2.574
  F      3.866   -2.220   2.709
  H      1.904   -1.013   -1.200
  H      0.011   -0.007   -0.025
  H      2.881   -2.762   -1.846
  H      5.471   -1.833   1.482
  H      1.791   -1.109   3.764
  H      4.892   -3.777   -2.996
  H      7.361   -2.891   0.176
  H      6.932   -3.764   -1.916
  units Angstrom
}

dih_string = "1 8 9 3 330"
set optking fixed_dihedral = $dih_string

optimize('MP2/aug-cc-PVTZ')
--------------------------------------------------------------------------

  Memory set to   4.657 GiB by Python driver.
gradient() will perform analytic gradient computation.

*** tstart() called on gpu-3-8.local
*** at Sun Nov 12 01:47:00 2017

    SCF Algorithm Type (re)set to DF.

*** tstart() called on gpu-3-8.local
*** at Sun Nov 12 01:47:00 2017

   => Loading Basis Set <=

    Name: AUG-CC-PVTZ
    Role: ORBITAL
    Keyword: BASIS
    atoms 1-11  entry C          line   221 file /cbio/jclab/home/chayas/anaconda/envs/py35/share/psi4/basis/aug-cc-pvtz.gbs 
    atoms 12    entry N          line   267 file /cbio/jclab/home/chayas/anaconda/envs/py35/share/psi4/basis/aug-cc-pvtz.gbs 
    atoms 13    entry O          line   313 file /cbio/jclab/home/chayas/anaconda/envs/py35/share/psi4/basis/aug-cc-pvtz.gbs 
    atoms 14    entry F          line   359 file /cbio/jclab/home/chayas/anaconda/envs/py35/share/psi4/basis/aug-cc-pvtz.gbs 
    atoms 15-22 entry H          line    34 file /cbio/jclab/home/chayas/anaconda/envs/py35/share/psi4/basis/aug-cc-pvtz.gbs 


         ---------------------------------------------------------
                                   SCF
            by Justin Turney, Rob Parrish, and Andy Simmonett
                              RHF Reference
                        8 Threads,   4768 MiB Core
         ---------------------------------------------------------

  ==> Geometry <==

    Molecular point group: c1
    Full point group: C1

    Geometry (in Angstrom), charge = 0, multiplicity = 1:

       Center              X                  Y                   Z               Mass       
    ------------   -----------------  -----------------  -----------------  -----------------
           C         -1.361591667754     0.776033353911    -0.769541728709    12.000000000000
           C         -2.439591667754     1.349033353911    -0.096541728709    12.000000000000
           C          0.606408332246    -0.956966646089    -2.019541728709    12.000000000000
           C          2.051408332246    -0.438966646089    -0.162541728709    12.000000000000
           C         -1.446591667754     0.733033353911     2.018458271291    12.000000000000
           C          1.695408332246    -1.519966646089    -2.669541728709    12.000000000000
           C          3.104408332246    -1.014966646089    -0.860541728709    12.000000000000
           C         -0.325591667754     0.181033353911    -0.049541728709    12.000000000000
           C          0.791408332246    -0.411966646089    -0.752541728709    12.000000000000
           C         -2.482591667754     1.328033353911     1.297458271291    12.000000000000
           C         -0.368591667754     0.160033353911     1.344458271291    12.000000000000
           N          2.898408332246    -1.531966646089    -2.078541728709    14.003074004780
           O         -3.473591667754     1.855033353911     1.916458271291    15.994914619560
           F          0.619408332246    -0.407966646089     2.051458271291    18.998403224000
           H         -1.342591667754     0.799033353911    -1.857541728709     1.007825032070
           H         -3.235591667754     1.805033353911    -0.682541728709     1.007825032070
           H         -0.365591667754    -0.949966646089    -2.503541728709     1.007825032070
           H          2.224408332246    -0.020966646089     0.824458271291     1.007825032070
           H         -1.455591667754     0.703033353911     3.106458271291     1.007825032070
           H          1.645408332246    -1.964966646089    -3.653541728709     1.007825032070
           H          4.114408332246    -1.078966646089    -0.481541728709     1.007825032070
           H          3.685408332246    -1.951966646089    -2.573541728709     1.007825032070

  Running in c1 symmetry.

  Rotational constants: A =      0.06297  B =      0.01366  C =      0.01146 [cm^-1]
  Rotational constants: A =   1887.88383  B =    409.60687  C =    343.65256 [MHz]
  Nuclear repulsion =  819.559423682619695

  Charge       = 0
  Multiplicity = 1
  Electrons    = 98
  Nalpha       = 49
  Nbeta        = 49

  ==> Algorithm <==

  SCF Algorithm Type is DF.
  DIIS enabled.
  MOM disabled.
  Fractional occupation disabled.
  Guess Type is SAD.
  Energy threshold   = 1.00e-10
  Density threshold  = 1.00e-10
  Integral threshold = 0.00e+00

  ==> Primary Basis <==

  Basis Set: AUG-CC-PVTZ
    Blend: AUG-CC-PVTZ
    Number of shells: 268
    Number of basis function: 828
    Number of Cartesian functions: 970
    Spherical Harmonics?: true
    Max angular momentum: 3

   => Loading Basis Set <=

    Name: (AUG-CC-PVTZ AUX)
    Role: JKFIT
    Keyword: DF_BASIS_SCF
    atoms 1-11  entry C          line   161 file /cbio/jclab/home/chayas/anaconda/envs/py35/share/psi4/basis/aug-cc-pvtz-jkfit.gbs 
    atoms 12    entry N          line   223 file /cbio/jclab/home/chayas/anaconda/envs/py35/share/psi4/basis/aug-cc-pvtz-jkfit.gbs 
    atoms 13    entry O          line   285 file /cbio/jclab/home/chayas/anaconda/envs/py35/share/psi4/basis/aug-cc-pvtz-jkfit.gbs 
    atoms 14    entry F          line   347 file /cbio/jclab/home/chayas/anaconda/envs/py35/share/psi4/basis/aug-cc-pvtz-jkfit.gbs 
    atoms 15-22 entry H          line    69 file /cbio/jclab/home/chayas/anaconda/envs/py35/share/psi4/basis/aug-cc-pvtz-jkfit.gbs 

  ==> Pre-Iterations <==

   -------------------------------------------------------
    Irrep   Nso     Nmo     Nalpha   Nbeta   Ndocc  Nsocc
   -------------------------------------------------------
     A        828     828       0       0       0       0
   -------------------------------------------------------
    Total     828     828      49      49      49       0
   -------------------------------------------------------

  ==> Integral Setup <==

  ==> DFJK: Density-Fitted J/K Matrices <==

    J tasked:                  Yes
    K tasked:                  Yes
    wK tasked:                  No
    OpenMP threads:              8
    Integrals threads:           8
    Memory (MB):              3576
    Algorithm:                Disk
    Integral Cache:           NONE
    Schwarz Cutoff:          1E-12
    Fitting Condition:       1E-12

   => Auxiliary Basis Set <=

  Basis Set: (AUG-CC-PVTZ AUX)
    Blend: AUG-CC-PVTZ-JKFIT
    Number of shells: 532
    Number of basis function: 1824
    Number of Cartesian functions: 2274
    Spherical Harmonics?: true
    Max angular momentum: 4

  Minimum eigenvalue in the overlap matrix is 6.9068041962E-07.
  Using Symmetric Orthogonalization.

  SCF Guess: Superposition of Atomic Densities via on-the-fly atomic UHF.

  ==> Iterations <==

                           Total Energy        Delta E     RMS |[F,P]|

   @DF-RHF iter   0:  -655.77204475294525   -6.55772e+02   2.26855e-02 
   @DF-RHF iter   1:  -649.61135805839069    6.16069e+00   1.68894e-03 
   @DF-RHF iter   2:  -649.91409246177795   -3.02734e-01   1.90064e-03 DIIS
   @DF-RHF iter   3:  -650.07598835921237   -1.61896e-01   6.32341e-04 DIIS
   @DF-RHF iter   4:  -650.10103504369033   -2.50467e-02   1.97051e-04 DIIS
   @DF-RHF iter   5:  -650.10457713520020   -3.54209e-03   6.65660e-05 DIIS
   @DF-RHF iter   6:  -650.10537936610172   -8.02231e-04   3.29030e-05 DIIS
   @DF-RHF iter   7:  -650.10560542470080   -2.26059e-04   1.82460e-05 DIIS
   @DF-RHF iter   8:  -650.10566876150074   -6.33368e-05   7.48162e-06 DIIS
   @DF-RHF iter   9:  -650.10568479305198   -1.60316e-05   3.36651e-06 DIIS
   @DF-RHF iter  10:  -650.10568739522444   -2.60217e-06   1.55189e-06 DIIS
   @DF-RHF iter  11:  -650.10568790897366   -5.13749e-07   5.69538e-07 DIIS
   @DF-RHF iter  12:  -650.10568796556561   -5.65919e-08   2.22574e-07 DIIS
   @DF-RHF iter  13:  -650.10568797374140   -8.17579e-09   6.89460e-08 DIIS
   @DF-RHF iter  14:  -650.10568797502719   -1.28580e-09   2.94534e-08 DIIS
   @DF-RHF iter  15:  -650.10568797528515   -2.57955e-10   9.41099e-09 DIIS
   @DF-RHF iter  16:  -650.10568797529231   -7.16227e-12   4.14581e-09 DIIS
   @DF-RHF iter  17:  -650.10568797529675   -4.43379e-12   1.46148e-09 DIIS
   @DF-RHF iter  18:  -650.10568797529174    5.00222e-12   7.54291e-10 DIIS
   @DF-RHF iter  19:  -650.10568797531414   -2.23963e-11   4.19100e-10 DIIS
   @DF-RHF iter  20:  -650.10568797529947    1.46656e-11   1.49556e-10 DIIS
   @DF-RHF iter  21:  -650.10568797531357   -1.40972e-11   5.37890e-11 DIIS

  ==> Post-Iterations <==

    Orbital Energies (a.u.)
    -----------------------

    Doubly Occupied:                                                      

       1A    -26.314341     2A    -20.435285     3A    -15.702585  
       4A    -11.360327     5A    -11.356571     6A    -11.322359  
       7A    -11.312471     8A    -11.289257     9A    -11.283660  
      10A    -11.252777    11A    -11.237781    12A    -11.224135  
      13A    -11.193106    14A    -11.192024    15A     -1.635983  
      16A     -1.386391    17A     -1.260493    18A     -1.184736  
      19A     -1.116763    20A     -1.112252    21A     -1.003729  
      22A     -0.998673    23A     -0.942873    24A     -0.910012  
      25A     -0.840322    26A     -0.834458    27A     -0.809924  
      28A     -0.748058    29A     -0.733237    30A     -0.718381  
      31A     -0.702771    32A     -0.688936    33A     -0.679989  
      34A     -0.661645    35A     -0.654414    36A     -0.614151  
      37A     -0.606706    38A     -0.593605    39A     -0.571753  
      40A     -0.540314    41A     -0.520413    42A     -0.502996  
      43A     -0.482995    44A     -0.470597    45A     -0.419398  
      46A     -0.396275    47A     -0.348629    48A     -0.326598  
      49A     -0.241446  

    Virtual:                                                              

      50A     -0.008891    51A      0.011031    52A      0.018136  
      53A      0.024090    54A      0.037822    55A      0.039819  
      56A      0.044514    57A      0.055202    58A      0.055685  
      59A      0.061553    60A      0.061888    61A      0.068745  
      62A      0.070018    63A      0.079348    64A      0.083439  
      65A      0.093922    66A      0.099159    67A      0.103313  
      68A      0.106749    69A      0.108009    70A      0.117509  
      71A      0.120132    72A      0.122304    73A      0.128045  
      74A      0.129703    75A      0.133875    76A      0.137246  
      77A      0.142162    78A      0.148503    79A      0.151058  
      80A      0.152227    81A      0.158715    82A      0.163612  
      83A      0.166538    84A      0.168093    85A      0.172279  
      86A      0.178647    87A      0.180141    88A      0.184267  
      89A      0.186142    90A      0.195404    91A      0.196384  
      92A      0.205226    93A      0.207398    94A      0.211677  
      95A      0.212305    96A      0.220150    97A      0.224670  
      98A      0.227512    99A      0.230342   100A      0.232788  
     101A      0.240328   102A      0.248276   103A      0.250487  
     104A      0.252755   105A      0.256234   106A      0.257742  
     107A      0.265099   108A      0.268179   109A      0.277204  
     110A      0.279660   111A      0.288432   112A      0.290138  
     113A      0.293194   114A      0.296776   115A      0.299296  
     116A      0.300484   117A      0.307917   118A      0.308328  
     119A      0.319337   120A      0.322270   121A      0.324617  
     122A      0.329889   123A      0.334461   124A      0.337161  
     125A      0.342159   126A      0.344836   127A      0.350421  
     128A      0.352784   129A      0.354382   130A      0.360586  
     131A      0.364051   132A      0.368535   133A      0.376268  
     134A      0.378754   135A      0.383336   136A      0.386242  
     137A      0.391542   138A      0.396559   139A      0.400631  
     140A      0.403117   141A      0.412935   142A      0.417299  
     143A      0.420253   144A      0.424331   145A      0.432084  
     146A      0.434142   147A      0.439629   148A      0.445129  
     149A      0.448014   150A      0.448908   151A      0.452094  
     152A      0.458759   153A      0.461679   154A      0.463623  
     155A      0.468459   156A      0.470126   157A      0.477113  
     158A      0.480979   159A      0.484326   160A      0.485310  
     161A      0.489064   162A      0.492058   163A      0.492684  
     164A      0.500255   165A      0.504471   166A      0.505294  
     167A      0.509554   168A      0.510521   169A      0.517853  
     170A      0.522144   171A      0.523984   172A      0.529848  
     173A      0.532675   174A      0.539682   175A      0.543936  
     176A      0.549943   177A      0.554741   178A      0.556857  
     179A      0.564467   180A      0.565905   181A      0.575598  
     182A      0.577970   183A      0.588592   184A      0.592976  
     185A      0.597809   186A      0.605117   187A      0.607215  
     188A      0.613537   189A      0.619273   190A      0.620999  
     191A      0.630838   192A      0.638139   193A      0.647423  
     194A      0.651063   195A      0.653252   196A      0.660808  
     197A      0.669181   198A      0.675461   199A      0.680018  
     200A      0.680802   201A      0.687668   202A      0.695428  
     203A      0.699088   204A      0.704764   205A      0.706069  
     206A      0.721035   207A      0.725385   208A      0.726314  
     209A      0.729848   210A      0.733853   211A      0.738478  
     212A      0.744538   213A      0.746882   214A      0.750590  
     215A      0.767617   216A      0.767765   217A      0.773660  
     218A      0.776627   219A      0.784756   220A      0.792653  
     221A      0.798359   222A      0.806809   223A      0.812479  
     224A      0.818101   225A      0.822045   226A      0.831645  
     227A      0.836259   228A      0.843562   229A      0.852124  
     230A      0.857758   231A      0.865159   232A      0.867843  
     233A      0.872311   234A      0.872831   235A      0.878134  
     236A      0.890642   237A      0.893420   238A      0.894235  
     239A      0.897801   240A      0.901912   241A      0.911726  
     242A      0.916056   243A      0.918964   244A      0.921784  
     245A      0.923712   246A      0.930646   247A      0.935365  
     248A      0.939924   249A      0.947531   250A      0.953412  
     251A      0.955004   252A      0.962352   253A      0.966675  
     254A      0.967519   255A      0.973673   256A      0.978361  
     257A      0.982487   258A      0.988631   259A      0.991669  
     260A      0.997406   261A      1.004420   262A      1.009862  
     263A      1.012454   264A      1.016026   265A      1.019718  
     266A      1.024151   267A      1.028177   268A      1.032673  
     269A      1.035583   270A      1.039915   271A      1.043501  
     272A      1.047793   273A      1.054331   274A      1.056862  
     275A      1.062274   276A      1.068254   277A      1.071007  
     278A      1.075126   279A      1.083446   280A      1.086457  
     281A      1.089144   282A      1.096505   283A      1.102298  
     284A      1.106975   285A      1.114226   286A      1.116516  
     287A      1.119049   288A      1.126172   289A      1.133022  
     290A      1.140902   291A      1.146870   292A      1.152004  
     293A      1.156824   294A      1.157353   295A      1.161459  
     296A      1.168125   297A      1.176196   298A      1.177153  
     299A      1.181812   300A      1.185641   301A      1.188168  
     302A      1.198460   303A      1.204925   304A      1.206406  
     305A      1.209103   306A      1.214167   307A      1.217908  
     308A      1.225857   309A      1.227292   310A      1.235402  
     311A      1.241254   312A      1.243525   313A      1.251989  
     314A      1.258888   315A      1.263429   316A      1.271980  
     317A      1.277125   318A      1.279595   319A      1.284617  
     320A      1.287174   321A      1.294389   322A      1.309320  
     323A      1.314682   324A      1.325154   325A      1.338284  
     326A      1.342446   327A      1.349401   328A      1.352120  
     329A      1.354667   330A      1.354711   331A      1.367729  
     332A      1.372168   333A      1.375546   334A      1.384799  
     335A      1.393519   336A      1.398528   337A      1.411858  
     338A      1.420835   339A      1.424902   340A      1.433999  
     341A      1.436189   342A      1.446087   343A      1.452393  
     344A      1.455393   345A      1.465409   346A      1.473035  
     347A      1.482714   348A      1.487716   349A      1.494379  
     350A      1.501524   351A      1.509057   352A      1.514972  
     353A      1.519611   354A      1.526402   355A      1.529420  
     356A      1.539618   357A      1.546673   358A      1.557707  
     359A      1.564098   360A      1.570716   361A      1.578746  
     362A      1.598578   363A      1.602202   364A      1.607500  
     365A      1.618482   366A      1.625944   367A      1.634953  
     368A      1.636906   369A      1.648192   370A      1.652393  
     371A      1.659080   372A      1.668365   373A      1.674695  
     374A      1.678158   375A      1.689968   376A      1.694718  
     377A      1.711642   378A      1.718267   379A      1.723274  
     380A      1.734631   381A      1.739088   382A      1.747203  
     383A      1.764980   384A      1.775703   385A      1.777878  
     386A      1.789582   387A      1.797580   388A      1.802670  
     389A      1.805150   390A      1.810077   391A      1.822583  
     392A      1.827979   393A      1.831682   394A      1.836518  
     395A      1.850381   396A      1.858718   397A      1.872023  
     398A      1.872793   399A      1.885101   400A      1.886196  
     401A      1.904398   402A      1.916979   403A      1.929030  
     404A      1.931895   405A      1.937423   406A      1.949434  
     407A      1.954009   408A      1.962860   409A      1.968260  
     410A      1.978463   411A      1.982318   412A      1.985268  
     413A      1.998927   414A      2.004895   415A      2.010390  
     416A      2.013587   417A      2.021925   418A      2.031430  
     419A      2.032376   420A      2.039170   421A      2.051442  
     422A      2.061266   423A      2.064211   424A      2.066166  
     425A      2.074130   426A      2.085900   427A      2.088557  
     428A      2.089918   429A      2.100408   430A      2.107594  
     431A      2.116908   432A      2.127559   433A      2.134070  
     434A      2.151967   435A      2.157530   436A      2.164049  
     437A      2.179429   438A      2.183299   439A      2.195098  
     440A      2.199040   441A      2.207675   442A      2.212161  
     443A      2.225541   444A      2.230280   445A      2.242289  
     446A      2.251770   447A      2.277240   448A      2.293798  
     449A      2.302424   450A      2.309636   451A      2.312555  
     452A      2.319256   453A      2.331492   454A      2.342123  
     455A      2.349923   456A      2.361722   457A      2.371613  
     458A      2.376289   459A      2.382008   460A      2.390952  
     461A      2.395224   462A      2.410142   463A      2.432597  
     464A      2.440451   465A      2.449073   466A      2.458400  
     467A      2.471015   468A      2.474053   469A      2.484461  
     470A      2.496839   471A      2.505197   472A      2.516812  
     473A      2.521104   474A      2.541798   475A      2.547615  
     476A      2.551925   477A      2.559028   478A      2.571041  
     479A      2.573421   480A      2.585463   481A      2.619571  
     482A      2.633608   483A      2.643312   484A      2.647942  
     485A      2.662307   486A      2.674224   487A      2.685945  
     488A      2.710604   489A      2.720865   490A      2.726305  
     491A      2.745455   492A      2.753709   493A      2.774959  
     494A      2.779624   495A      2.796682   496A      2.828788  
     497A      2.844172   498A      2.857173   499A      2.879650  
     500A      2.901260   501A      2.912347   502A      2.916974  
     503A      2.948422   504A      2.966733   505A      2.977103  
     506A      2.999876   507A      3.028618   508A      3.033135  
     509A      3.050481   510A      3.073444   511A      3.082390  
     512A      3.101033   513A      3.102015   514A      3.111337  
     515A      3.146776   516A      3.153517   517A      3.168604  
     518A      3.175947   519A      3.184394   520A      3.194904  
     521A      3.221213   522A      3.227372   523A      3.241992  
     524A      3.261830   525A      3.267120   526A      3.288171  
     527A      3.297485   528A      3.314484   529A      3.322756  
     530A      3.327371   531A      3.336041   532A      3.341022  
     533A      3.353585   534A      3.372930   535A      3.381870  
     536A      3.384118   537A      3.392552   538A      3.401543  
     539A      3.419158   540A      3.421505   541A      3.437898  
     542A      3.449407   543A      3.456810   544A      3.471658  
     545A      3.483741   546A      3.491950   547A      3.495065  
     548A      3.504742   549A      3.510356   550A      3.514345  
     551A      3.530409   552A      3.536184   553A      3.543178  
     554A      3.549759   555A      3.558135   556A      3.570162  
     557A      3.577949   558A      3.585470   559A      3.595859  
     560A      3.602271   561A      3.620072   562A      3.630109  
     563A      3.637595   564A      3.651923   565A      3.655370  
     566A      3.663089   567A      3.670920   568A      3.672947  
     569A      3.678432   570A      3.700882   571A      3.703721  
     572A      3.711995   573A      3.715399   574A      3.726537  
     575A      3.744060   576A      3.753757   577A      3.763318  
     578A      3.776826   579A      3.779792   580A      3.790903  
     581A      3.803381   582A      3.808511   583A      3.811990  
     584A      3.816123   585A      3.829068   586A      3.834176  
     587A      3.850120   588A      3.852502   589A      3.859896  
     590A      3.875900   591A      3.887739   592A      3.891021  
     593A      3.895383   594A      3.909586   595A      3.915511  
     596A      3.919721   597A      3.934118   598A      3.934348  
     599A      3.943250   600A      3.965529   601A      3.968384  
     602A      3.978002   603A      3.982837   604A      3.985441  
     605A      3.995639   606A      4.004916   607A      4.012516  
     608A      4.018368   609A      4.029797   610A      4.033267  
     611A      4.036607   612A      4.051675   613A      4.071008  
     614A      4.076466   615A      4.083077   616A      4.089701  
     617A      4.103256   618A      4.115867   619A      4.123422  
     620A      4.128857   621A      4.149100   622A      4.162385  
     623A      4.166961   624A      4.181370   625A      4.190406  
     626A      4.208727   627A      4.217920   628A      4.218566  
     629A      4.222857   630A      4.237187   631A      4.241438  
     632A      4.248553   633A      4.252409   634A      4.266478  
     635A      4.280821   636A      4.288709   637A      4.298703  
     638A      4.306523   639A      4.308640   640A      4.321694  
     641A      4.328176   642A      4.341525   643A      4.348649  
     644A      4.355114   645A      4.359265   646A      4.367711  
     647A      4.379005   648A      4.384896   649A      4.390631  
     650A      4.392517   651A      4.400933   652A      4.413961  
     653A      4.415652   654A      4.433230   655A      4.444095  
     656A      4.447481   657A      4.459872   658A      4.476063  
     659A      4.493134   660A      4.500075   661A      4.504368  
     662A      4.522527   663A      4.530671   664A      4.536579  
     665A      4.538702   666A      4.553925   667A      4.567996  
     668A      4.586327   669A      4.606820   670A      4.625905  
     671A      4.629755   672A      4.643530   673A      4.657862  
     674A      4.667249   675A      4.686061   676A      4.697876  
     677A      4.715530   678A      4.732655   679A      4.740089  
     680A      4.756735   681A      4.767173   682A      4.778155  
     683A      4.783610   684A      4.791673   685A      4.800287  
     686A      4.812954   687A      4.827105   688A      4.858994  
     689A      4.873575   690A      4.882903   691A      4.890738  
     692A      4.895044   693A      4.916640   694A      4.922746  
     695A      4.942333   696A      4.951184   697A      4.954997  
     698A      4.961935   699A      4.974113   700A      5.006321  
     701A      5.030654   702A      5.036181   703A      5.039211  
     704A      5.052262   705A      5.061810   706A      5.082583  
     707A      5.085517   708A      5.093683   709A      5.115450  
     710A      5.135521   711A      5.139010   712A      5.149627  
     713A      5.160516   714A      5.175997   715A      5.184527  
     716A      5.196594   717A      5.207070   718A      5.229825  
     719A      5.237296   720A      5.248286   721A      5.267094  
     722A      5.284097   723A      5.293376   724A      5.313053  
     725A      5.323545   726A      5.331889   727A      5.349590  
     728A      5.386715   729A      5.394333   730A      5.400440  
     731A      5.407243   732A      5.434792   733A      5.451197  
     734A      5.489627   735A      5.509539   736A      5.520309  
     737A      5.539501   738A      5.559140   739A      5.577377  
     740A      5.629828   741A      5.633614   742A      5.658646  
     743A      5.674432   744A      5.690561   745A      5.718448  
     746A      5.736032   747A      5.739791   748A      5.776612  
     749A      5.789817   750A      5.817580   751A      5.823911  
     752A      5.839234   753A      5.856943   754A      5.901377  
     755A      5.924833   756A      5.967003   757A      5.972587  
     758A      6.010346   759A      6.063659   760A      6.078321  
     761A      6.113255   762A      6.127124   763A      6.179359  
     764A      6.211691   765A      6.239661   766A      6.282139  
     767A      6.314822   768A      6.319991   769A      6.406807  
     770A      6.432649   771A      6.459455   772A      6.499537  
     773A      6.545421   774A      6.556143   775A      6.599233  
     776A      6.661062   777A      6.685502   778A      6.706960  
     779A      6.768671   780A      6.774381   781A      6.801586  
     782A      6.861484   783A      6.874905   784A      6.914670  
     785A      6.958492   786A      6.963383   787A      7.037089  
     788A      7.060995   789A      7.105762   790A      7.174714  
     791A      7.209268   792A      7.228704   793A      7.476301  
     794A      7.482564   795A      7.514082   796A      7.591148  
     797A      7.665902   798A      7.797794   799A      7.805894  
     800A      7.894332   801A      8.016334   802A      8.090033  
     803A      9.118247   804A      9.140262   805A      9.289077  
     806A      9.307259   807A      9.438613   808A      9.540000  
     809A      9.576565   810A      9.634187   811A      9.679564  
     812A      9.745506   813A     10.062200   814A     10.124651  
     815A     15.827426   816A     16.116572   817A     16.351362  
     818A     16.770729   819A     16.857207   820A     17.164383  
     821A     18.961175   822A     19.465926   823A     19.660348  
     824A     19.926886   825A     20.254945   826A     20.318019  
     827A     20.707195   828A     21.748880  

    Final Occupation by Irrep:
              A 
    DOCC [    49 ]

  Energy converged.

  @DF-RHF Final Energy:  -650.10568797531357

   => Energetics <=

    Nuclear Repulsion Energy =            819.5594236826196948
    One-Electron Energy =               -2513.8570308047123945
    Two-Electron Energy =                1044.1919191467791279
    DFT Exchange-Correlation Energy =       0.0000000000000000
    Empirical Dispersion Energy =           0.0000000000000000
    PCM Polarization Energy =               0.0000000000000000
    EFP Energy =                            0.0000000000000000
    Total Energy =                       -650.1056879753136855



Properties will be evaluated at   0.000000,   0.000000,   0.000000 Bohr

Properties computed using the SCF density matrix

  Nuclear Dipole Moment: (a.u.)
     X:     4.3313      Y:    -2.0952      Z:    -9.2523

  Electronic Dipole Moment: (a.u.)
     X:     1.1589      Y:    -0.8013      Z:     5.2408

  Dipole Moment: (a.u.)
     X:     5.4902      Y:    -2.8965      Z:    -4.0114     Total:     7.3908

  Dipole Moment: (Debye)
     X:    13.9547      Y:    -7.3621      Z:   -10.1960     Total:    18.7854


*** tstop() called on gpu-3-8.local at Sun Nov 12 01:56:02 2017
Module time:
	user time   =    1280.26 seconds =      21.34 minutes
	system time =      61.93 seconds =       1.03 minutes
	total time  =        542 seconds =       9.03 minutes
Total time:
	user time   =    1280.27 seconds =      21.34 minutes
	system time =      61.93 seconds =       1.03 minutes
	total time  =        542 seconds =       9.03 minutes

  //>>>>>>>>>>>>>>>>>>>>>>>>>>>>>>>>>>>//
  //               DFMP2               //
  //<<<<<<<<<<<<<<<<<<<<<<<<<<<<<<<<<<<//

   => Loading Basis Set <=

    Name: (AUG-CC-PVTZ AUX)
    Role: RIFIT
    Keyword: DF_BASIS_MP2
    atoms 1-11  entry C          line   147 file /cbio/jclab/home/chayas/anaconda/envs/py35/share/psi4/basis/aug-cc-pvtz-ri.gbs 
    atoms 12    entry N          line   205 file /cbio/jclab/home/chayas/anaconda/envs/py35/share/psi4/basis/aug-cc-pvtz-ri.gbs 
    atoms 13    entry O          line   263 file /cbio/jclab/home/chayas/anaconda/envs/py35/share/psi4/basis/aug-cc-pvtz-ri.gbs 
    atoms 14    entry F          line   321 file /cbio/jclab/home/chayas/anaconda/envs/py35/share/psi4/basis/aug-cc-pvtz-ri.gbs 
    atoms 15-22 entry H          line    29 file /cbio/jclab/home/chayas/anaconda/envs/py35/share/psi4/basis/aug-cc-pvtz-ri.gbs 

	 --------------------------------------------------------
	                          DF-MP2                         
	      2nd-Order Density-Fitted Moller-Plesset Theory     
	              RMP2 Wavefunction,   8 Threads             
	                                                         
	        Rob Parrish, Justin Turney, Andy Simmonett,      
	           Ed Hohenstein, and C. David Sherrill          
	 --------------------------------------------------------

   => Auxiliary Basis Set <=

  Basis Set: (AUG-CC-PVTZ AUX)
    Blend: AUG-CC-PVTZ-RI
    Number of shells: 504
    Number of basis function: 1852
    Number of Cartesian functions: 2344
    Spherical Harmonics?: true
    Max angular momentum: 4

	 --------------------------------------------------------
	                 NBF =   828, NAUX =  1852
	 --------------------------------------------------------
	   CLASS    FOCC     OCC    AOCC    AVIR     VIR    FVIR
	   PAIRS       0      49      49     779     779       0
	 --------------------------------------------------------


         ------------------------------------------------------------
                                     CPHF                           
                                  Rob Parrish                       
         ------------------------------------------------------------

  ==> Geometry <==

    Molecular point group: c1
    Full point group: C1

    Geometry (in Angstrom), charge = 0, multiplicity = 1:

       Center              X                  Y                   Z               Mass       
    ------------   -----------------  -----------------  -----------------  -----------------
           C         -1.361591667754     0.776033353911    -0.769541728709    12.000000000000
           C         -2.439591667754     1.349033353911    -0.096541728709    12.000000000000
           C          0.606408332246    -0.956966646089    -2.019541728709    12.000000000000
           C          2.051408332246    -0.438966646089    -0.162541728709    12.000000000000
           C         -1.446591667754     0.733033353911     2.018458271291    12.000000000000
           C          1.695408332246    -1.519966646089    -2.669541728709    12.000000000000
           C          3.104408332246    -1.014966646089    -0.860541728709    12.000000000000
           C         -0.325591667754     0.181033353911    -0.049541728709    12.000000000000
           C          0.791408332246    -0.411966646089    -0.752541728709    12.000000000000
           C         -2.482591667754     1.328033353911     1.297458271291    12.000000000000
           C         -0.368591667754     0.160033353911     1.344458271291    12.000000000000
           N          2.898408332246    -1.531966646089    -2.078541728709    14.003074004780
           O         -3.473591667754     1.855033353911     1.916458271291    15.994914619560
           F          0.619408332246    -0.407966646089     2.051458271291    18.998403224000
           H         -1.342591667754     0.799033353911    -1.857541728709     1.007825032070
           H         -3.235591667754     1.805033353911    -0.682541728709     1.007825032070
           H         -0.365591667754    -0.949966646089    -2.503541728709     1.007825032070
           H          2.224408332246    -0.020966646089     0.824458271291     1.007825032070
           H         -1.455591667754     0.703033353911     3.106458271291     1.007825032070
           H          1.645408332246    -1.964966646089    -3.653541728709     1.007825032070
           H          4.114408332246    -1.078966646089    -0.481541728709     1.007825032070
           H          3.685408332246    -1.951966646089    -2.573541728709     1.007825032070

  Nuclear repulsion =  819.559423682619695
  Reference energy  = -650.105687975313572

  ==> Basis Set <==

  Basis Set: AUG-CC-PVTZ
    Blend: AUG-CC-PVTZ
    Number of shells: 268
    Number of basis function: 828
    Number of Cartesian functions: 970
    Spherical Harmonics?: true
    Max angular momentum: 3

  ==> CGRSolver (by Rob Parrish) <==

   Number of roots    =         1
   Preconditioning    =    JACOBI
   Convergence cutoff =     1E-06
   Maximum iterations =       100

  ==> CPHFRHamiltonian (by Rob Parrish) <== 

  ==> DFJK: Density-Fitted J/K Matrices <==

    J tasked:                  Yes
    K tasked:                  Yes
    wK tasked:                  No
    OpenMP threads:              8
    Integrals threads:           8
    Memory (MB):              3576
    Algorithm:                Disk
    Integral Cache:           NONE
    Schwarz Cutoff:          1E-12
    Fitting Condition:       1E-12

   => Auxiliary Basis Set <=

  Basis Set: (AUG-CC-PVTZ AUX)
    Blend: AUG-CC-PVTZ-JKFIT
    Number of shells: 532
    Number of basis function: 1824
    Number of Cartesian functions: 2274
    Spherical Harmonics?: true
    Max angular momentum: 4

  ==> CPHF Iterations <==

  => Iterations <=

             Iter  Converged  Remaining    Residual
  CGR           1          0          1   1.541E-01
  CGR           2          0          1   6.043E-02
  CGR           3          0          1   3.022E-02
  CGR           4          0          1   9.131E-03
  CGR           5          0          1   3.102E-03
  CGR           6          0          1   1.194E-03
  CGR           7          0          1   4.877E-04
  CGR           8          0          1   1.537E-04
  CGR           9          0          1   5.655E-05
  CGR          10          0          1   2.408E-05
  CGR          11          0          1   1.115E-05
  CGR          12          0          1   3.189E-06
  CGR          13          0          1   1.405E-06
  CGR          14          1          0   5.575E-07

    CGRSolver converged.

  ==> DFCorrGrad: Density-Fitted Correlated Gradients <==

    OpenMP threads:              8
    Integrals threads:           8
    Memory (MB):              3576
    Schwarz Cutoff:          0E+00
    Fitting Condition:       1E-12

   => Auxiliary Basis Set <=

  Basis Set: (AUG-CC-PVTZ AUX)
    Blend: AUG-CC-PVTZ-JKFIT
    Number of shells: 532
    Number of basis function: 1824
    Number of Cartesian functions: 2274
    Spherical Harmonics?: true
    Max angular momentum: 4

	-----------------------------------------------------------
	 ==================> DF-MP2 Energies <==================== 
	-----------------------------------------------------------
	 Reference Energy          =    -650.1056879753135718 [Eh]
	 Singles Energy            =      -0.0000000000000001 [Eh]
	 Same-Spin Energy          =      -0.6794449739290701 [Eh]
	 Opposite-Spin Energy      =      -2.0278109818518377 [Eh]
	 Correlation Energy        =      -2.7072559557809077 [Eh]
	 Total Energy              =    -652.8129439310944235 [Eh]
	-----------------------------------------------------------
	 ================> DF-SCS-MP2 Energies <================== 
	-----------------------------------------------------------
	 SCS Same-Spin Scale       =       0.3333333333333333 [-]
	 SCS Opposite-Spin Scale   =       1.2000000000000000 [-]
	 SCS Same-Spin Energy      =      -0.2264816579763567 [Eh]
	 SCS Opposite-Spin Energy  =      -2.4333731782222050 [Eh]
	 SCS Correlation Energy    =      -2.6598548361985617 [Eh]
	 SCS Total Energy          =    -652.7655428115120912 [Eh]
	-----------------------------------------------------------


  -Total Gradient:
     Atom            X                  Y                   Z
    ------   -----------------  -----------------  -----------------
       1        0.041316132941    -0.012150439091    -0.008082571219
       2       -0.027739347169     0.013575060555     0.056032876823
       3       -0.024198672627     0.013015491746     0.031403676230
       4       -0.041511474082     0.017746316437     0.007261618532
       5       -0.057571865155     0.031973922253    -0.003822051161
       6        0.030877554249    -0.008155373749     0.003626548199
       7        0.009625334358    -0.014694534471    -0.028874674097
       8       -0.050274743921     0.026660898453     0.027092694019
       9        0.050488330651    -0.025988176549    -0.033421870032
      10        0.064471583125    -0.033890308053    -0.040658302910
      11        0.044209444358    -0.033991469408    -0.023205055931
      12       -0.018847299889     0.011502446595     0.013710002622
      13       -0.022417269557     0.011863410715     0.013188773520
      14       -0.002978169623     0.006170294759    -0.005182581889
      15       -0.002109488928    -0.000602557270    -0.006224655424
      16       -0.003346716103     0.000568907121    -0.008976774559
      17       -0.006151717975     0.002120700673    -0.003074988147
      18       -0.001002690559     0.002328449394     0.010029183700
      19        0.003922137952    -0.001154597364     0.007524272497
      20        0.001683486192    -0.000686438273    -0.002689593227
      21        0.002571358704    -0.001707389988    -0.000238809446
      22        0.008984093063    -0.004504614479    -0.005417718093


*** tstop() called on gpu-3-8.local at Sun Nov 12 02:33:43 2017
Module time:
	user time   =    6250.17 seconds =     104.17 minutes
	system time =     141.23 seconds =       2.35 minutes
	total time  =       2803 seconds =      46.72 minutes
Total time:
	user time   =    6250.18 seconds =     104.17 minutes
	system time =     141.23 seconds =       2.35 minutes
	total time  =       2803 seconds =      46.72 minutes

			-----------------------------------------
			 OPTKING 2.0: for geometry optimizations 
			  - R.A. King,  Bethel University        
			-----------------------------------------

	Internal coordinates to be generated automatically.
	Detected frag 1 with atoms:  1 2 3 4 5 6 7 8 9 10 11 12 13 14 15 16 17 18 19 20
	 21 22
	---Fragment 1 Bond Connectivity---
	 1 : 2 8 15
	 2 : 1 10 16
	 3 : 6 9 17
	 4 : 7 9 18
	 5 : 10 11 19
	 6 : 3 12 20
	 7 : 4 12 21
	 8 : 1 9 11
	 9 : 3 4 8
	 10 : 2 5 13
	 11 : 5 8 14
	 12 : 6 7 22
	 13 : 10
	 14 : 11
	 15 : 1
	 16 : 2
	 17 : 3
	 18 : 4
	 19 : 5
	 20 : 6
	 21 : 7
	 22 : 12

	Assuming in current code that numbering for constraints corresponds to unified fragment.
	Fixed dihedral atom list: 
	     1     8     9     3
	---Fragment 1 Geometry and Gradient---
	 C          -2.5730353569        1.4664905089       -1.4542231151
	 C          -4.6101601281        2.5493035830       -0.1824374277
	 C           1.1459456726       -1.8084048794       -3.8163807812
	 C           3.8765999347       -0.8295267426       -0.3071593524
	 C          -2.7336620782        1.3852322852        3.8143333434
	 C           3.2038574314       -2.8723206922       -5.0447027676
	 C           5.8664815526       -1.9180089951       -1.6261881932
	 C          -0.6152790832        0.3421034598       -0.0936202994
	 C           1.4955450072       -0.7785041370       -1.4220977708
	 C          -4.6914183518        2.5096193342        2.4518408016
	 C          -0.6965373069        0.3024192110        2.5406579298
	 N           5.4771979692       -2.8949974058       -3.9278746230
	 O          -6.5641369495        3.5055050063        3.6215812778
	 F           1.1705121124       -0.7709452325        3.8766943058
	 H          -2.5371305603        1.5099542099       -3.5102451477
	 H          -6.1143821299        3.4110186996       -1.2898169415
	 H          -0.6908681285       -1.7951767965       -4.7310082295
	 H           4.2035225557       -0.0396212190        1.5580003407
	 H          -2.7506696134        1.3285405012        5.8703553760
	 H           3.1093711247       -3.7132488214       -6.9041932823
	 H           7.7751049468       -2.0389514676       -0.9099819888
	 H           6.9644124358       -3.6886823816       -4.8632890588
	             0.0413161329       -0.0121504391       -0.0080825712
	            -0.0277393472        0.0135750606        0.0560328768
	            -0.0241986726        0.0130154917        0.0314036762
	            -0.0415114741        0.0177463164        0.0072616185
	            -0.0575718652        0.0319739223       -0.0038220512
	             0.0308775542       -0.0081553737        0.0036265482
	             0.0096253344       -0.0146945345       -0.0288746741
	            -0.0502747439        0.0266608985        0.0270926940
	             0.0504883307       -0.0259881765       -0.0334218700
	             0.0644715831       -0.0338903081       -0.0406583029
	             0.0442094444       -0.0339914694       -0.0232050559
	            -0.0188472999        0.0115024466        0.0137100026
	            -0.0224172696        0.0118634107        0.0131887735
	            -0.0029781696        0.0061702948       -0.0051825819
	            -0.0021094889       -0.0006025573       -0.0062246554
	            -0.0033467161        0.0005689071       -0.0089767746
	            -0.0061517180        0.0021207007       -0.0030749881
	            -0.0010026906        0.0023284494        0.0100291837
	             0.0039221380       -0.0011545974        0.0075242725
	             0.0016834862       -0.0006864383       -0.0026895932
	             0.0025713587       -0.0017073900       -0.0002388094
	             0.0089840931       -0.0045046145       -0.0054177181

	Previous optimization step data not found.  Starting new optimization.

	---Fragment 1 Intrafragment Coordinates---
	 - Coordinate -           - BOHR/RAD -       - ANG/DEG -
	 R(1,2)           =         2.634350	       1.394038
	 R(1,8)           =         2.635962	       1.394891
	 R(1,15)          =         2.056795	       1.088409
	 R(2,10)          =         2.635830	       1.394821
	 R(2,16)          =         2.057067	       1.088553
	 R(3,6)           =         2.622154	       1.387584
	 R(3,9)           =         2.629735	       1.391596
	 R(3,17)          =         2.051975	       1.085859
	 R(4,7)           =         2.623787	       1.388448
	 R(4,9)           =         2.629660	       1.391556
	 R(4,18)          =         2.051743	       1.085736
	 R(5,10)          =         2.636938	       1.395407
	 R(5,11)          =         2.635263	       1.394521
	 R(5,19)          =         2.056874	       1.088451
	 R(6,12)          =         2.532962	       1.340386
	 R(6,20)          =         2.042986	       1.081102
	 R(7,12)          =         2.530575	       1.339122
	 R(7,21)          =         2.042161	       1.080665
	 R(8,9)           =         2.734263	       1.446909
	 R(8,11)          =         2.635830	       1.394821
	 R(10,13)         =         2.422221	       1.281784
	 R(11,14)         =         2.534359	       1.341125
	 R(12,22)         =         1.927886	       1.020193
	 B(1,2,10)        =         2.094553	     120.009056
	 B(1,2,16)        =         2.068903	     118.539404
	 B(1,8,9)         =         2.091392	     119.827938
	 B(1,8,11)        =         2.093692	     119.959722
	 B(2,1,8)         =         2.094940	     120.031219
	 B(2,1,15)        =         2.079908	     119.169966
	 B(2,10,5)        =         2.094306	     119.994870
	 B(2,10,13)       =         2.094719	     120.018581
	 B(3,6,12)        =         2.096087	     120.096942
	 B(3,6,20)        =         2.161660	     123.854021
	 B(3,9,4)         =         2.093008	     119.920530
	 B(3,9,8)         =         2.094673	     120.015918
	 B(4,7,12)        =         2.095257	     120.049357
	 B(4,7,21)        =         2.161648	     123.853299
	 B(4,9,8)         =         2.095504	     120.063536
	 B(5,10,13)       =         2.094160	     119.986548
	 B(5,11,8)        =         2.095181	     120.045019
	 B(5,11,14)       =         2.081414	     119.256220
	 B(6,3,9)         =         2.072668	     118.755132
	 B(6,3,17)        =         2.090177	     119.758301
	 B(6,12,7)        =         2.136068	     122.387702
	 B(6,12,22)       =         2.073852	     118.822992
	 B(7,4,9)         =         2.073282	     118.790313
	 B(7,4,18)        =         2.089638	     119.727439
	 B(7,12,22)       =         2.073262	     118.789170
	 B(8,1,15)        =         2.108336	     120.798746
	 B(8,11,14)       =         2.106591	     120.698759
	 B(9,3,17)        =         2.120340	     121.486560
	 B(9,4,18)        =         2.120265	     121.482237
	 B(9,8,11)        =         2.098101	     120.212327
	 B(10,2,16)       =         2.119728	     121.451467
	 B(10,5,11)       =         2.093699	     119.960108
	 B(10,5,19)       =         2.120101	     121.472852
	 B(11,5,19)       =         2.069385	     118.567038
	 B(12,6,20)       =         2.025437	     116.048984
	 B(12,7,21)       =         2.026280	     116.097318
	 D(1,2,10,5)      =        -0.000325	      -0.018609
	 D(1,2,10,13)     =         3.141392	     179.988520
	 D(1,8,9,3)       =        -0.523822	     -30.012806
	 D(1,8,9,4)       =         2.618577	     150.033398
	 D(1,8,11,5)      =         0.000325	       0.018608
	 D(1,8,11,14)     =        -3.141528	    -179.996269
	 D(2,1,8,9)       =        -3.141211	    -179.978157
	 D(2,1,8,11)      =        -0.000348	      -0.019945
	 D(2,10,5,11)     =         0.000301	       0.017261
	 D(2,10,5,19)     =        -3.141543	    -179.997173
	 D(3,6,12,7)      =         0.001024	       0.058647
	 D(3,6,12,22)     =         3.140243	     179.922648
	 D(3,9,4,7)       =         0.000367	       0.021036
	 D(3,9,4,18)      =         3.141257	     179.980747
	 D(3,9,8,11)      =         2.618502	     150.029088
	 D(4,7,12,6)      =        -0.000484	      -0.027732
	 D(4,7,12,22)     =        -3.139704	    -179.891778
	 D(4,9,3,6)       =         0.000152	       0.008691
	 D(4,9,3,17)      =         3.141202	     179.977641
	 D(4,9,8,11)      =        -0.522285	     -29.924708
	 D(5,10,2,16)     =         3.139529	     179.881752
	 D(5,11,8,9)      =         3.141185	     179.976658
	 D(6,3,9,8)       =        -3.140636	    -179.945171
	 D(6,12,7,21)     =        -3.141101	    -179.971808
	 D(7,4,9,8)       =         3.141154	     179.974876
	 D(7,12,6,20)     =         3.141210	     179.978088
	 D(8,1,2,10)      =         0.000348	       0.019955
	 D(8,1,2,16)      =        -3.139556	    -179.883288
	 D(8,9,3,17)      =         0.000415	       0.023779
	 D(8,9,4,18)      =        -0.001142	      -0.065413
	 D(8,11,5,10)     =        -0.000301	      -0.017270
	 D(8,11,5,19)     =         3.141536	     179.996748
	 D(9,3,6,12)      =        -0.000838	      -0.048016
	 D(9,3,6,20)      =        -3.140910	    -179.960865
	 D(9,4,7,12)      =        -0.000219	      -0.012563
	 D(9,4,7,21)      =         3.140318	     179.926962
	 D(9,8,1,15)      =         0.002066	       0.118384
	 D(9,8,11,14)     =        -0.000667	      -0.038219
	 D(10,2,1,15)     =         3.140283	     179.924984
	 D(10,5,11,14)    =         3.141547	     179.997392
	 D(11,5,10,13)    =        -3.141416	    -179.989865
	 D(11,8,1,15)     =        -3.140256	    -179.923403
	 D(12,6,3,17)     =         3.141287	     179.982484
	 D(12,7,4,18)     =        -3.141121	    -179.972997
	 D(13,10,2,16)    =        -0.001939	      -0.111119
	 D(13,10,5,19)    =        -0.000075	      -0.004300
	 D(14,11,5,19)    =         0.000199	       0.011410
	 D(15,1,2,16)     =         0.000379	       0.021741
	 D(17,3,6,20)     =         0.001215	       0.069635
	 D(18,4,7,21)     =        -0.000584	      -0.033473
	 D(20,6,12,22)    =        -0.002756	      -0.157911
	 D(21,7,12,22)    =         0.002865	       0.164147
	 R(4,14)          =         4.983069	       2.636926

	Current energy   :      -652.8129439311

	Generating empirical Hessian (Schlegel '84) for each fragment.
	Adding user-defined constraint: Fragment 1; Coordinate 62:
		Value =    -0.523822; Fixed value    =    -0.523599
		Force =     0.000112; Force constant =     0.500000
	Removing off-diagonal coupling between coordinate 62 and others.
	Taking RFO optimization step.
	Going to follow RFO solution 1.
	Using RFO vector 1.

	Determining step-restricting scale parameter for RS-RFO.
	Maximum step size allowed    0.10000

	 Iter      |step|        alpha        rfo_root  
	------------------------------------------------
	    0     0.30282       1.00000           1
	    1     0.22186       4.26251           1
	    2     0.16146      14.47233           1
	    3     0.12369      33.06211           1
	    4     0.10561      51.25523           1
	    5     0.10045      58.56294           1
	    6     0.10000      59.25050           1
	------------------------------------------------
	Norm of target step-size    0.10000
	Projected energy change by RFO approximation:        -0.0097154604

	Back-transformation to cartesian coordinates...
	Could not converge backtransformation.
	Using first guess instead.

	--- Internal Coordinate Step in ANG or DEG, aJ/ANG or AJ/DEG ---
	 ---------------------------------------------------------------------------
	   Coordinate                Previous        Force       Change         New 
	   ----------                --------       ------       ------       ------
	    1 R(1,2)          =      1.394038    -0.191674    -0.011590     1.382448
	    2 R(1,8)          =      1.394891     0.148606     0.008934     1.403825
	    3 R(1,15)         =      1.088409    -0.050855    -0.003468     1.084941
	    4 R(2,10)         =      1.394821     0.277080     0.017057     1.411878
	    5 R(2,16)         =      1.088553    -0.061939    -0.004222     1.084331
	    6 R(3,6)          =      1.387584    -0.183366    -0.011029     1.376555
	    7 R(3,9)          =      1.391596     0.179172     0.010873     1.402468
	    8 R(3,17)         =      1.085859    -0.056773    -0.003851     1.082008
	    9 R(4,7)          =      1.388448    -0.181542    -0.010897     1.377551
	   10 R(4,9)          =      1.391556     0.192818     0.011737     1.403293
	   11 R(4,18)         =      1.085736    -0.081182    -0.005484     1.080252
	   12 R(5,10)         =      1.395407     0.253329     0.015597     1.411005
	   13 R(5,11)         =      1.394521    -0.250518    -0.015227     1.379294
	   14 R(5,19)         =      1.088451    -0.061960    -0.004222     1.084229
	   15 R(6,12)         =      1.340386     0.114091     0.006290     1.346676
	   16 R(6,20)         =      1.081102    -0.021855    -0.001465     1.079636
	   17 R(7,12)         =      1.339122     0.137021     0.007554     1.346676
	   18 R(7,21)         =      1.080665    -0.019942    -0.001344     1.079321
	   19 R(8,9)          =      1.446909    -0.183664    -0.012013     1.434897
	   20 R(8,11)         =      1.394821     0.113493     0.006837     1.401658
	   21 R(10,13)        =      1.281784    -0.235450    -0.011480     1.270304
	   22 R(11,14)        =      1.341125     0.060181     0.003346     1.344472
	   23 R(12,22)        =      1.020193    -0.094034    -0.005834     1.014359
	   24 B(1,2,10)       =    120.009056     0.000363     0.353846   120.362902
	   25 B(1,2,16)       =    118.539404     0.000273     0.276283   118.815687
	   26 B(1,8,9)        =    119.827938     0.000514     0.473448   120.301386
	   27 B(1,8,11)       =    119.959722    -0.000925    -0.872716   119.087006
	   28 B(2,1,8)        =    120.031219     0.000530     0.474197   120.505416
	   29 B(2,1,15)       =    119.169966    -0.000141    -0.114241   119.055725
	   30 B(2,10,5)       =    119.994870    -0.001219    -1.042392   118.952478
	   31 B(2,10,13)      =    120.018581     0.000674     0.579189   120.597771
	   32 B(3,6,12)       =    120.096942    -0.000066    -0.073126   120.023816
	   33 B(3,6,20)       =    123.854021    -0.000097    -0.092870   123.761151
	   34 B(3,9,4)        =    119.920530    -0.001092    -0.976479   118.944051
	   35 B(3,9,8)        =    120.015918     0.000341     0.297414   120.313332
	   36 B(4,7,12)       =    120.049357     0.000036     0.032550   120.081907
	   37 B(4,7,21)       =    123.853299    -0.000152    -0.150507   123.702792
	   38 B(4,9,8)        =    120.063536     0.000751     0.679027   120.742563
	   39 B(5,10,13)      =    119.986548     0.000545     0.463203   120.449751
	   40 B(5,11,8)       =    120.045019     0.001063     0.915407   120.960426
	   41 B(5,11,14)      =    119.256220    -0.000095    -0.078565   119.177655
	   42 B(6,3,9)        =    118.755132     0.000695     0.632628   119.387760
	   43 B(6,3,17)       =    119.758301    -0.000422    -0.394131   119.364169
	   44 B(6,12,7)       =    122.387702    -0.000090    -0.089250   122.298451
	   45 B(6,12,22)      =    118.822992     0.000027     0.026320   118.849312
	   46 B(7,4,9)        =    118.790313     0.000516     0.473677   119.263989
	   47 B(7,4,18)       =    119.727439    -0.000427    -0.410475   119.316963
	   48 B(7,12,22)      =    118.789170     0.000062     0.062942   118.852112
	   49 B(8,1,15)       =    120.798746    -0.000389    -0.359914   120.438831
	   50 B(8,11,14)      =    120.698759    -0.000968    -0.837213   119.861546
	   51 B(9,3,17)       =    121.486560    -0.000273    -0.238602   121.247958
	   52 B(9,4,18)       =    121.482237    -0.000089    -0.063385   121.418851
	   53 B(9,8,11)       =    120.212327     0.000411     0.399218   120.611545
	   54 B(10,2,16)      =    121.451467    -0.000636    -0.630104   120.821363
	   55 B(10,5,11)      =    119.960108     0.000187     0.171521   120.131629
	   56 B(10,5,19)      =    121.472852    -0.000402    -0.393467   121.079386
	   57 B(11,5,19)      =    118.567038     0.000215     0.221947   118.788985
	   58 B(12,6,20)      =    116.048984     0.000162     0.166048   116.215032
	   59 B(12,7,21)      =    116.097318     0.000116     0.117905   116.215223
	   60 D(1,2,10,5)     =     -0.018609     0.000010     0.055783     0.037175
	   61 D(1,2,10,13)    =    179.988520     0.000009     0.048632   180.037152
	   62 D(1,8,9,3)      =    -30.012806     0.000039     0.158478   -29.854328
	   63 D(1,8,9,4)      =    150.033398     0.000043     0.197272   150.230670
	   64 D(1,8,11,5)     =      0.018608     0.000011     0.072978     0.091586
	   65 D(1,8,11,14)    =   -179.996269    -0.000027    -0.136173  -180.132443
	   66 D(2,1,8,9)      =   -179.978157     0.000014     0.085554  -179.892604
	   67 D(2,1,8,11)     =     -0.019945     0.000009     0.036491     0.016546
	   68 D(2,10,5,11)    =      0.017261     0.000010     0.052355     0.069616
	   69 D(2,10,5,19)    =   -179.997173     0.000012     0.063197  -179.933977
	   70 D(3,6,12,7)     =      0.058647    -0.000003    -0.014828     0.043819
	   71 D(3,6,12,22)    =    179.922648    -0.000002    -0.008603   179.914045
	   72 D(3,9,4,7)      =      0.021036     0.000003     0.021957     0.042993
	   73 D(3,9,4,18)     =    179.980747    -0.000020    -0.099982   179.880766
	   74 D(3,9,8,11)     =    150.029088     0.000044     0.208832   150.237920
	   75 D(4,7,12,6)     =     -0.027732     0.000005     0.023030    -0.004702
	   76 D(4,7,12,22)    =   -179.891778     0.000003     0.016854  -179.874924
	   77 D(4,9,3,6)      =      0.008691    -0.000001    -0.013794    -0.005103
	   78 D(4,9,3,17)     =    179.977641    -0.000018    -0.105685   179.871957
	   79 D(4,9,8,11)     =    -29.924708     0.000048     0.247626   -29.677082
	   80 D(5,10,2,16)    =    179.881752     0.000014     0.075237   179.956989
	   81 D(5,11,8,9)     =    179.976658     0.000006     0.023342   180.000000
	   82 D(6,3,9,8)      =   -179.945171     0.000002     0.023549  -179.921622
	   83 D(6,12,7,21)    =   -179.971808     0.000013     0.064820  -179.906988
	   84 D(7,4,9,8)      =    179.974876    -0.000001    -0.015734   179.959142
	   85 D(7,12,6,20)    =    179.978088     0.000009     0.052046   180.030134
	   86 D(8,1,2,10)     =      0.019955    -0.000019    -0.099844    -0.079889
	   87 D(8,1,2,16)     =   -179.883288    -0.000022    -0.118009  -180.001297
	   88 D(8,9,3,17)     =      0.023779    -0.000015    -0.068341    -0.044562
	   89 D(8,9,4,18)     =     -0.065413    -0.000024    -0.137672    -0.203085
	   90 D(8,11,5,10)    =     -0.017270    -0.000020    -0.117317    -0.134587
	   91 D(8,11,5,19)    =    179.996748    -0.000023    -0.127824   179.868924
	   92 D(9,3,6,12)     =     -0.048016     0.000001     0.010152    -0.037864
	   93 D(9,3,6,20)     =   -179.960865    -0.000012    -0.062232  -180.023097
	   94 D(9,4,7,12)     =     -0.012563    -0.000004    -0.026302    -0.038864
	   95 D(9,4,7,21)     =    179.926962    -0.000013    -0.071200   179.855762
	   96 D(9,8,1,15)     =      0.118384    -0.000016    -0.071660     0.046724
	   97 D(9,8,11,14)    =     -0.038219    -0.000032    -0.185364    -0.223583
	   98 D(10,2,1,15)    =    179.924984     0.000010     0.054968   179.979952
	   99 D(10,5,11,14)   =    179.997392     0.000017     0.090540   180.087932
	  100 D(11,5,10,13)   =   -179.989865     0.000011     0.059504  -179.930361
	  101 D(11,8,1,15)    =   -179.923403    -0.000021    -0.120723  -180.044126
	  102 D(12,6,3,17)    =    179.982484     0.000018     0.100252   180.082736
	  103 D(12,7,4,18)    =   -179.972997     0.000018     0.092910  -179.880088
	  104 D(13,10,2,16)   =     -0.111119     0.000013     0.068085    -0.043034
	  105 D(13,10,5,19)   =     -0.004300     0.000013     0.070346     0.066046
	  106 D(14,11,5,19)   =      0.011410     0.000015     0.080034     0.091443
	  107 D(15,1,2,16)    =      0.021741     0.000007     0.036803     0.058544
	  108 D(17,3,6,20)    =      0.069635     0.000005     0.027868     0.097503
	  109 D(18,4,7,21)    =     -0.033473     0.000009     0.048012     0.014539
	  110 D(20,6,12,22)   =     -0.157911     0.000011     0.058271    -0.099640
	  111 D(21,7,12,22)   =      0.164147     0.000011     0.058643     0.222790
	  112 R(4,14)         =      2.636926     0.051454     0.005290     2.642216
	 ---------------------------------------------------------------------------
	Successfully symmetrized geometry.
	 Forces used to impose fixed constraints are not included.
	  Forces zeroed: 62 

  ==> Convergence Check <==

  Measures of convergence in internal coordinates in au.
  Criteria marked as inactive (o), active & met (*), and active & unmet ( ).
  --------------------------------------------------------------------------------------------- ~
   Step     Total Energy     Delta E     MAX Force     RMS Force      MAX Disp      RMS Disp    ~
  --------------------------------------------------------------------------------------------- ~
    Convergence Criteria    1.00e-06 *    3.00e-04 *             o    1.20e-03 *             o  ~
  --------------------------------------------------------------------------------------------- ~
      1    -652.81294393   -6.53e+02      3.36e-02      9.53e-03 o    3.22e-02      9.45e-03 o  ~
  ---------------------------------------------------------------------------------------------

	Writing optimization data to binary file.
	Structure for next step:
	Cartesian Geometry (in Angstrom)
	    C    -1.3701935964   0.7783775550  -0.7707728466
	    C    -2.4406704848   1.3476477996  -0.1065649796
	    C     0.6122997659  -0.9582904837  -2.0244588454
	    C     2.0622125332  -0.4426068086  -0.1608889616
	    C    -1.4401626360   0.7300363245   2.0219614743
	    C     1.6900589498  -1.5185299836  -2.6721250593
	    C     3.1062052094  -1.0148582441  -0.8538928089
	    C    -0.3225826246   0.1801728833  -0.0528678399
	    C     0.7875241710  -0.4073697265  -0.7466872118
	    C    -2.4947222940   1.3330786413   1.3042027057
	    C    -0.3765569656   0.1674034186   1.3476923277
	    N     2.8991057928  -1.5336736299  -2.0792405137
	    O    -3.4765650156   1.8542262434   1.9190701775
	    F     0.6170221086  -0.4036970620   2.0507205200
	    H    -1.3504854756   0.8012411399  -1.8552942807
	    H    -3.2348175622   1.8022720052  -0.6883054320
	    H    -0.3545517314  -0.9531046586  -2.5101666864
	    H     2.2426589361  -0.0284284422   0.8203549506
	    H    -1.4469361985   0.6984945495   3.1057103759
	    H     1.6352557817  -1.9619621797  -3.6549675234
	    H     4.1142011085  -1.0784776381  -0.4733277753
	    H     3.6806835373  -1.9522179175  -2.5720697987
			--------------------------
			 OPTKING Finished Execution 
			--------------------------

    Structure for next step:
    Molecular point group: c1
    Full point group: C1

    Geometry (in Angstrom), charge = 0, multiplicity = 1:

    C           -1.369134578322     0.777530787546    -0.771184752991
    C           -2.439611466707     1.346801032169    -0.106976885966
    C            0.613358784003    -0.959137251126    -2.024870751812
    C            2.063271551281    -0.443453575994    -0.161300867937
    C           -1.439103617912     0.729189557084     2.021549567871
    C            1.691117967879    -1.519376751044    -2.672536965637
    C            3.107264227539    -1.015705011506    -0.854304715300
    C           -0.321523606454     0.179326115909    -0.053279746275
    C            0.788583189110    -0.408216493894    -0.747099118200
    C           -2.493663275912     1.332231873870     1.303790799339
    C           -0.375497947506     0.166556651121     1.347280421273
    N            2.900164810929    -1.534520397349    -2.079652420056
    O           -3.475505997473     1.853379476005     1.918658271104
    F            0.618081126741    -0.404543829385     2.050308613602
    H           -1.349426457526     0.800394372442    -1.855706187091
    H           -3.233758544059     1.801425237758    -0.688717338428
    H           -0.353492713316    -0.953951426050    -2.510578592827
    H            2.243717954257    -0.029275209622     0.819943044263
    H           -1.445877180427     0.697647782050     3.105298469539
    H            1.636314799859    -1.962808947089    -3.655379429788
    H            4.115260126643    -1.079324405501    -0.473739681669
    H            3.681742555417    -1.953064684923    -2.572481705098

gradient() will perform analytic gradient computation.

*** tstart() called on gpu-3-8.local
*** at Sun Nov 12 02:33:44 2017

    SCF Algorithm Type (re)set to DF.

*** tstart() called on gpu-3-8.local
*** at Sun Nov 12 02:33:44 2017

   => Loading Basis Set <=

    Name: AUG-CC-PVTZ
    Role: ORBITAL
    Keyword: BASIS
    atoms 1-11  entry C          line   221 file /cbio/jclab/home/chayas/anaconda/envs/py35/share/psi4/basis/aug-cc-pvtz.gbs 
    atoms 12    entry N          line   267 file /cbio/jclab/home/chayas/anaconda/envs/py35/share/psi4/basis/aug-cc-pvtz.gbs 
    atoms 13    entry O          line   313 file /cbio/jclab/home/chayas/anaconda/envs/py35/share/psi4/basis/aug-cc-pvtz.gbs 
    atoms 14    entry F          line   359 file /cbio/jclab/home/chayas/anaconda/envs/py35/share/psi4/basis/aug-cc-pvtz.gbs 
    atoms 15-22 entry H          line    34 file /cbio/jclab/home/chayas/anaconda/envs/py35/share/psi4/basis/aug-cc-pvtz.gbs 


         ---------------------------------------------------------
                                   SCF
            by Justin Turney, Rob Parrish, and Andy Simmonett
                              RHF Reference
                        8 Threads,   4768 MiB Core
         ---------------------------------------------------------

  ==> Geometry <==

    Molecular point group: c1
    Full point group: C1

    Geometry (in Angstrom), charge = 0, multiplicity = 1:

       Center              X                  Y                   Z               Mass       
    ------------   -----------------  -----------------  -----------------  -----------------
           C         -1.369134578322     0.777530787546    -0.771184752991    12.000000000000
           C         -2.439611466707     1.346801032169    -0.106976885966    12.000000000000
           C          0.613358784003    -0.959137251126    -2.024870751812    12.000000000000
           C          2.063271551281    -0.443453575994    -0.161300867937    12.000000000000
           C         -1.439103617912     0.729189557084     2.021549567871    12.000000000000
           C          1.691117967879    -1.519376751044    -2.672536965637    12.000000000000
           C          3.107264227539    -1.015705011506    -0.854304715300    12.000000000000
           C         -0.321523606454     0.179326115909    -0.053279746275    12.000000000000
           C          0.788583189110    -0.408216493894    -0.747099118200    12.000000000000
           C         -2.493663275912     1.332231873870     1.303790799339    12.000000000000
           C         -0.375497947506     0.166556651121     1.347280421273    12.000000000000
           N          2.900164810929    -1.534520397349    -2.079652420056    14.003074004780
           O         -3.475505997473     1.853379476005     1.918658271104    15.994914619560
           F          0.618081126741    -0.404543829385     2.050308613602    18.998403224000
           H         -1.349426457526     0.800394372442    -1.855706187091     1.007825032070
           H         -3.233758544059     1.801425237758    -0.688717338428     1.007825032070
           H         -0.353492713316    -0.953951426050    -2.510578592827     1.007825032070
           H          2.243717954257    -0.029275209622     0.819943044263     1.007825032070
           H         -1.445877180427     0.697647782050     3.105298469539     1.007825032070
           H          1.636314799859    -1.962808947089    -3.655379429788     1.007825032070
           H          4.115260126643    -1.079324405501    -0.473739681669     1.007825032070
           H          3.681742555417    -1.953064684923    -2.572481705098     1.007825032070

  Running in c1 symmetry.

  Rotational constants: A =      0.06275  B =      0.01365  C =      0.01144 [cm^-1]
  Rotational constants: A =   1881.07014  B =    409.09503  C =    343.03657 [MHz]
  Nuclear repulsion =  818.852625261034063

  Charge       = 0
  Multiplicity = 1
  Electrons    = 98
  Nalpha       = 49
  Nbeta        = 49

  ==> Algorithm <==

  SCF Algorithm Type is DF.
  DIIS enabled.
  MOM disabled.
  Fractional occupation disabled.
  Guess Type is READ.
  Energy threshold   = 1.00e-10
  Density threshold  = 1.00e-10
  Integral threshold = 0.00e+00

  ==> Primary Basis <==

  Basis Set: AUG-CC-PVTZ
    Blend: AUG-CC-PVTZ
    Number of shells: 268
    Number of basis function: 828
    Number of Cartesian functions: 970
    Spherical Harmonics?: true
    Max angular momentum: 3

   => Loading Basis Set <=

    Name: (AUG-CC-PVTZ AUX)
    Role: JKFIT
    Keyword: DF_BASIS_SCF
    atoms 1-11  entry C          line   161 file /cbio/jclab/home/chayas/anaconda/envs/py35/share/psi4/basis/aug-cc-pvtz-jkfit.gbs 
    atoms 12    entry N          line   223 file /cbio/jclab/home/chayas/anaconda/envs/py35/share/psi4/basis/aug-cc-pvtz-jkfit.gbs 
    atoms 13    entry O          line   285 file /cbio/jclab/home/chayas/anaconda/envs/py35/share/psi4/basis/aug-cc-pvtz-jkfit.gbs 
    atoms 14    entry F          line   347 file /cbio/jclab/home/chayas/anaconda/envs/py35/share/psi4/basis/aug-cc-pvtz-jkfit.gbs 
    atoms 15-22 entry H          line    69 file /cbio/jclab/home/chayas/anaconda/envs/py35/share/psi4/basis/aug-cc-pvtz-jkfit.gbs 

  Reading orbitals from file 180, no projection.

  ==> Pre-Iterations <==

   -------------------------------------------------------
    Irrep   Nso     Nmo     Nalpha   Nbeta   Ndocc  Nsocc
   -------------------------------------------------------
     A        828     828       0       0       0       0
   -------------------------------------------------------
    Total     828     828      49      49      49       0
   -------------------------------------------------------

  ==> Integral Setup <==

  ==> DFJK: Density-Fitted J/K Matrices <==

    J tasked:                  Yes
    K tasked:                  Yes
    wK tasked:                  No
    OpenMP threads:              8
    Integrals threads:           8
    Memory (MB):              3576
    Algorithm:                Disk
    Integral Cache:           NONE
    Schwarz Cutoff:          1E-12
    Fitting Condition:       1E-12

   => Auxiliary Basis Set <=

  Basis Set: (AUG-CC-PVTZ AUX)
    Blend: AUG-CC-PVTZ-JKFIT
    Number of shells: 532
    Number of basis function: 1824
    Number of Cartesian functions: 2274
    Spherical Harmonics?: true
    Max angular momentum: 4

  Minimum eigenvalue in the overlap matrix is 7.0005689752E-07.
  Using Symmetric Orthogonalization.

  SCF Guess: Orbitals guess was supplied from a previous computation.

  ==> Iterations <==

                           Total Energy        Delta E     RMS |[F,P]|

   @DF-RHF iter   0:  -650.17110560598815   -6.50171e+02   6.35104e-04 
   @DF-RHF iter   1:  -650.11659472171061    5.45109e-02   7.92742e-05 
   @DF-RHF iter   2:  -650.11698687471403   -3.92153e-04   5.08367e-05 DIIS
   @DF-RHF iter   3:  -650.11719311249465   -2.06238e-04   1.17221e-05 DIIS
   @DF-RHF iter   4:  -650.11721822340905   -2.51109e-05   6.44006e-06 DIIS
   @DF-RHF iter   5:  -650.11723191904332   -1.36956e-05   2.95524e-06 DIIS
   @DF-RHF iter   6:  -650.11723668474713   -4.76570e-06   1.15651e-06 DIIS
   @DF-RHF iter   7:  -650.11723767428657   -9.89539e-07   5.94339e-07 DIIS
   @DF-RHF iter   8:  -650.11723772779192   -5.35053e-08   1.71404e-07 DIIS
   @DF-RHF iter   9:  -650.11723773061715   -2.82523e-09   4.67178e-08 DIIS
   @DF-RHF iter  10:  -650.11723773110191   -4.84761e-10   1.49912e-08 DIIS
   @DF-RHF iter  11:  -650.11723773117751   -7.56017e-11   8.73176e-09 DIIS
   @DF-RHF iter  12:  -650.11723773120946   -3.19460e-11   3.21871e-09 DIIS
   @DF-RHF iter  13:  -650.11723773120798    1.47793e-12   1.50598e-09 DIIS
   @DF-RHF iter  14:  -650.11723773121093   -2.95586e-12   5.71148e-10 DIIS
   @DF-RHF iter  15:  -650.11723773118729    2.36469e-11   2.56475e-10 DIIS
   @DF-RHF iter  16:  -650.11723773121548   -2.81943e-11   1.00648e-10 DIIS
   @DF-RHF iter  17:  -650.11723773121605   -5.68434e-13   5.67562e-11 DIIS

  ==> Post-Iterations <==

    Orbital Energies (a.u.)
    -----------------------

    Doubly Occupied:                                                      

       1A    -26.313061     2A    -20.447593     3A    -15.693129  
       4A    -11.354150     5A    -11.350295     6A    -11.323558  
       7A    -11.311417     8A    -11.283384     9A    -11.277944  
      10A    -11.262843    11A    -11.239368    12A    -11.225241  
      13A    -11.196241    14A    -11.194502    15A     -1.633837  
      16A     -1.376058    17A     -1.274990    18A     -1.180411  
      19A     -1.116769    20A     -1.108320    21A     -1.008034  
      22A     -1.000455    23A     -0.934802    24A     -0.907411  
      25A     -0.835749    26A     -0.832394    27A     -0.810819  
      28A     -0.745675    29A     -0.729389    30A     -0.716489  
      31A     -0.701407    32A     -0.686445    33A     -0.679272  
      34A     -0.659393    35A     -0.647274    36A     -0.615639  
      37A     -0.605511    38A     -0.597591    39A     -0.568418  
      40A     -0.547001    41A     -0.521156    42A     -0.506228  
      43A     -0.492978    44A     -0.471079    45A     -0.418215  
      46A     -0.398402    47A     -0.357543    48A     -0.332921  
      49A     -0.244439  

    Virtual:                                                              

      50A     -0.006344    51A      0.012629    52A      0.020480  
      53A      0.025468    54A      0.038727    55A      0.040829  
      56A      0.045305    57A      0.056359    58A      0.060607  
      59A      0.061464    60A      0.062339    61A      0.069907  
      62A      0.072288    63A      0.080750    64A      0.085081  
      65A      0.094882    66A      0.100086    67A      0.103927  
      68A      0.108155    69A      0.109407    70A      0.117539  
      71A      0.120274    72A      0.122336    73A      0.128203  
      74A      0.130449    75A      0.133993    76A      0.137710  
      77A      0.142602    78A      0.148524    79A      0.151047  
      80A      0.152664    81A      0.158809    82A      0.163093  
      83A      0.166553    84A      0.167274    85A      0.172184  
      86A      0.179057    87A      0.180257    88A      0.183420  
      89A      0.187116    90A      0.194999    91A      0.196271  
      92A      0.205383    93A      0.208405    94A      0.212062  
      95A      0.213998    96A      0.220428    97A      0.224833  
      98A      0.227608    99A      0.232141   100A      0.233222  
     101A      0.239609   102A      0.249301   103A      0.250387  
     104A      0.253894   105A      0.254330   106A      0.257878  
     107A      0.266117   108A      0.269171   109A      0.276809  
     110A      0.280737   111A      0.288189   112A      0.289668  
     113A      0.294283   114A      0.297904   115A      0.299586  
     116A      0.300993   117A      0.308197   118A      0.309203  
     119A      0.319439   120A      0.321788   121A      0.327437  
     122A      0.330197   123A      0.334638   124A      0.338068  
     125A      0.343627   126A      0.344730   127A      0.350759  
     128A      0.353473   129A      0.354777   130A      0.361667  
     131A      0.362932   132A      0.368108   133A      0.377001  
     134A      0.379321   135A      0.384154   136A      0.386588  
     137A      0.392496   138A      0.397832   139A      0.402414  
     140A      0.403913   141A      0.414679   142A      0.418492  
     143A      0.421673   144A      0.426053   145A      0.433765  
     146A      0.435136   147A      0.439608   148A      0.444708  
     149A      0.448147   150A      0.450894   151A      0.452386  
     152A      0.457640   153A      0.460804   154A      0.465123  
     155A      0.469467   156A      0.471400   157A      0.478651  
     158A      0.480944   159A      0.485120   160A      0.485735  
     161A      0.488849   162A      0.491542   163A      0.492520  
     164A      0.500600   165A      0.504682   166A      0.507068  
     167A      0.511330   168A      0.511938   169A      0.517608  
     170A      0.523258   171A      0.524444   172A      0.529667  
     173A      0.532640   174A      0.539074   175A      0.543063  
     176A      0.549165   177A      0.554724   178A      0.555447  
     179A      0.564031   180A      0.565645   181A      0.574743  
     182A      0.578379   183A      0.589010   184A      0.594602  
     185A      0.595860   186A      0.605056   187A      0.606649  
     188A      0.612937   189A      0.620390   190A      0.620779  
     191A      0.630636   192A      0.638578   193A      0.647428  
     194A      0.649837   195A      0.653301   196A      0.661172  
     197A      0.669175   198A      0.677303   199A      0.681742  
     200A      0.682915   201A      0.688750   202A      0.695110  
     203A      0.699808   204A      0.704912   205A      0.706091  
     206A      0.720744   207A      0.722028   208A      0.726401  
     209A      0.729250   210A      0.731735   211A      0.740716  
     212A      0.745465   213A      0.746785   214A      0.751096  
     215A      0.767479   216A      0.769366   217A      0.773864  
     218A      0.777906   219A      0.786008   220A      0.793845  
     221A      0.796658   222A      0.808341   223A      0.812634  
     224A      0.816849   225A      0.823689   226A      0.831257  
     227A      0.837769   228A      0.845278   229A      0.852687  
     230A      0.857023   231A      0.866280   232A      0.868713  
     233A      0.872181   234A      0.873718   235A      0.878415  
     236A      0.890781   237A      0.891705   238A      0.894537  
     239A      0.898410   240A      0.902168   241A      0.911088  
     242A      0.916237   243A      0.917227   244A      0.920127  
     245A      0.924924   246A      0.930761   247A      0.936519  
     248A      0.941789   249A      0.947661   250A      0.952572  
     251A      0.955180   252A      0.961437   253A      0.965497  
     254A      0.967182   255A      0.974418   256A      0.978017  
     257A      0.983557   258A      0.990052   259A      0.992653  
     260A      0.998383   261A      1.003616   262A      1.008106  
[...]
	 B(7,12,22)       =         2.091387	     119.827668
	 B(8,1,15)        =         2.063139	     118.209149
	 B(8,11,14)       =         2.052955	     117.625653
	 B(9,3,17)        =         2.099360	     120.284444
	 B(9,4,18)        =         2.103532	     120.523496
	 B(9,8,11)        =         2.172979	     124.502531
	 B(10,2,16)       =         2.044096	     117.118046
	 B(10,5,11)       =         2.114923	     121.176151
	 B(10,5,19)       =         2.072306	     118.734394
	 B(11,5,19)       =         2.095852	     120.083477
	 B(12,6,20)       =         2.035136	     116.604722
	 B(12,7,21)       =         2.032220	     116.437623
	 D(1,2,10,5)      =         0.024093	       1.380407
	 D(1,2,10,13)     =        -3.123194	    -178.945827
	 D(1,8,9,3)       =        -0.514951	     -29.504517
	 D(1,8,9,4)       =         2.701209	     154.767890
	 D(1,8,11,5)      =         0.047506	       2.721897
	 D(1,8,11,14)     =         3.115964	     178.531603
	 D(2,1,8,9)       =        -3.030245	    -173.620266
	 D(2,1,8,11)      =        -0.014669	      -0.840466
	 D(2,10,5,11)     =         0.006998	       0.400961
	 D(2,10,5,19)     =        -3.119080	    -178.710136
	 D(3,6,12,7)      =         0.019185	       1.099198
	 D(3,6,12,22)     =         3.135242	     179.636127
	 D(3,9,4,7)       =         0.051979	       2.978194
	 D(3,9,4,18)      =        -3.131048	    -179.395859
	 D(3,9,8,11)      =         2.765846	     158.471308
	 D(4,7,12,6)      =        -0.008103	      -0.464271
	 D(4,7,12,22)     =        -3.124171	    -179.001824
	 D(4,9,3,6)       =        -0.041165	      -2.358601
	 D(4,9,3,17)      =         3.062861	     175.489012
	 D(4,9,8,11)      =        -0.301179	     -17.256286
	 D(5,10,2,16)     =        -3.093074	    -177.220109
	 D(5,11,8,9)      =         3.057372	     175.174485
	 D(6,3,9,8)       =        -3.115377	    -178.497940
	 D(6,12,7,21)     =        -3.141473	    -179.993138
	 D(7,4,9,8)       =         3.123407	     178.958060
	 D(7,12,6,20)     =        -3.094480	    -177.300641
	 D(8,1,2,10)      =        -0.019905	      -1.140485
	 D(8,1,2,16)      =         3.096356	     177.408106
	 D(8,9,3,17)      =        -0.011350	      -0.650327
	 D(8,9,4,18)      =        -0.059620	      -3.415993
	 D(8,11,5,10)     =        -0.044475	      -2.548247
	 D(8,11,5,19)     =         3.081396	     176.550972
	 D(9,3,6,12)      =         0.007338	       0.420429
	 D(9,3,6,20)      =         3.119204	     178.717199
	 D(9,4,7,12)      =        -0.029568	      -1.694132
	 D(9,4,7,21)      =         3.103289	     177.805340
	 D(9,8,1,15)      =         0.048408	       2.773601
	 D(9,8,11,14)     =        -0.157356	      -9.015809
	 D(10,2,1,15)     =        -3.098269	    -177.517709
	 D(10,5,11,14)    =        -3.112756	    -178.347759
	 D(11,5,10,13)    =        -3.128919	    -179.273881
	 D(11,8,1,15)     =         3.063985	     175.553401
	 D(12,6,3,17)     =        -3.097675	    -177.483691
	 D(12,7,4,18)     =        -3.130811	    -179.382243
	 D(13,10,2,16)    =         0.042824	       2.453657
	 D(13,10,5,19)    =         0.028187	       1.615021
	 D(14,11,5,19)    =         0.013115	       0.751460
	 D(15,1,2,16)     =         0.017992	       1.030882
	 D(17,3,6,20)     =         0.014191	       0.813079
	 D(18,4,7,21)     =         0.002046	       0.117229
	 D(20,6,12,22)    =         0.021577	       1.236288
	 D(21,7,12,22)    =         0.025644	       1.469310
	 R(4,14)          =         5.187651	       2.745187

	Current energy   :      -652.8331111329

	Energy change for the previous step:
		Projected    :         0.0000102757
		Actual       :        -0.0000320977

	Performing BFGS update.
	Previous computed or guess Hessian on step 1.
	Steps to be used in Hessian update: 14 13
	Adding user-defined constraint: Fragment 1; Coordinate 62:
		Value =    -0.514951; Fixed value    =    -0.523600
		Force =    -0.007352; Force constant =     0.850000
	Removing off-diagonal coupling between coordinate 62 and others.
	Taking RFO optimization step.
	Going to follow RFO solution 1.
	Using RFO vector 1.
	Norm of target step-size    0.00328
	Projected energy change by RFO approximation:        -0.0000013326

	Back-transformation to cartesian coordinates...
	Could not converge backtransformation.
	Using first guess instead.

	--- Internal Coordinate Step in ANG or DEG, aJ/ANG or AJ/DEG ---
	 ---------------------------------------------------------------------------
	   Coordinate                Previous        Force       Change         New 
	   ----------                --------       ------       ------       ------
	    1 R(1,2)          =      1.355102    -0.000165    -0.000021     1.355081
	    2 R(1,8)          =      1.429038    -0.000126    -0.000010     1.429027
	    3 R(1,15)         =      1.080183     0.000080     0.000011     1.080194
	    4 R(2,10)         =      1.450862    -0.000335    -0.000055     1.450807
	    5 R(2,16)         =      1.079306    -0.000029    -0.000005     1.079301
	    6 R(3,6)          =      1.357498    -0.000170    -0.000022     1.357476
	    7 R(3,9)          =      1.427620    -0.000207    -0.000023     1.427596
	    8 R(3,17)         =      1.077086     0.000101     0.000016     1.077102
	    9 R(4,7)          =      1.358380    -0.000201    -0.000026     1.358354
	   10 R(4,9)          =      1.427369    -0.000245    -0.000029     1.427340
	   11 R(4,18)         =      1.074418     0.000025    -0.000003     1.074415
	   12 R(5,10)         =      1.447184     0.000062     0.000001     1.447185
	   13 R(5,11)         =      1.349718    -0.000248    -0.000036     1.349681
	   14 R(5,19)         =      1.077965    -0.000044    -0.000006     1.077958
	   15 R(6,12)         =      1.358272     0.000086     0.000009     1.358281
	   16 R(6,20)         =      1.077330    -0.000045    -0.000008     1.077322
	   17 R(7,12)         =      1.358332    -0.000148    -0.000020     1.358311
	   18 R(7,21)         =      1.077401    -0.000028    -0.000005     1.077397
	   19 R(8,9)          =      1.396773    -0.000333    -0.000038     1.396735
	   20 R(8,11)         =      1.421284    -0.000180    -0.000023     1.421261
	   21 R(10,13)        =      1.238430    -0.000156    -0.000011     1.238419
	   22 R(11,14)        =      1.357913    -0.000064    -0.000014     1.357899
	   23 R(12,22)        =      1.004968    -0.000049    -0.000006     1.004961
	   24 B(1,2,10)       =    121.985651     0.000000     0.000891   121.986542
	   25 B(1,2,16)       =    120.881268     0.000000     0.000093   120.881361
	   26 B(1,8,9)        =    120.544247    -0.000003    -0.010438   120.533810
	   27 B(1,8,11)       =    114.520109     0.000002     0.003764   114.523873
	   28 B(2,1,8)        =    122.999856    -0.000001    -0.002029   122.997827
	   29 B(2,1,15)       =    118.695370     0.000001     0.002497   118.697867
	   30 B(2,10,5)       =    114.897676     0.000000     0.000390   114.898066
	   31 B(2,10,13)      =    122.699069     0.000000     0.001609   122.700677
	   32 B(3,6,12)       =    120.517529    -0.000000    -0.000864   120.516665
	   33 B(3,6,20)       =    122.857258     0.000000     0.000023   122.857281
	   34 B(3,9,4)        =    114.337879     0.000002     0.003512   114.341391
	   35 B(3,9,8)        =    120.971593    -0.000003    -0.007061   120.964532
	   36 B(4,7,12)       =    121.001368    -0.000001    -0.001719   120.999649
	   37 B(4,7,21)       =    122.559246     0.000000     0.001563   122.560809
	   38 B(4,9,8)        =    124.567086     0.000001     0.004253   124.571339
	   39 B(5,10,13)      =    122.402416    -0.000001    -0.001676   122.400740
	   40 B(5,11,8)       =    124.357816    -0.000002    -0.003316   124.354500
	   41 B(5,11,14)      =    117.889712     0.000002     0.005245   117.894958
	   42 B(6,3,9)        =    122.156490    -0.000001    -0.002433   122.154057
	   43 B(6,3,17)       =    117.525736     0.000001     0.002923   117.528660
	   44 B(6,12,7)       =    120.285990     0.000001     0.002151   120.288142
	   45 B(6,12,22)      =    119.870218    -0.000000    -0.000339   119.869879
	   46 B(7,4,9)        =    121.634458    -0.000000    -0.000414   121.634044
	   47 B(7,4,18)       =    117.801264     0.000000     0.000825   117.802090
	   48 B(7,12,22)      =    119.827668    -0.000001    -0.001859   119.825809
	   49 B(8,1,15)       =    118.209149    -0.000000    -0.001870   118.207278
	   50 B(8,11,14)      =    117.625653     0.000001     0.002661   117.628314
	   51 B(9,3,17)       =    120.284444    -0.000000    -0.000623   120.283821
	   52 B(9,4,18)       =    120.523496    -0.000000    -0.000395   120.523101
	   53 B(9,8,11)       =    124.502531     0.000001     0.003942   124.506473
	   54 B(10,2,16)      =    117.118046    -0.000000    -0.001381   117.116665
	   55 B(10,5,11)      =    121.176151     0.000001     0.001804   121.177956
	   56 B(10,5,19)      =    118.734394    -0.000000     0.000081   118.734474
	   57 B(11,5,19)      =    120.083477    -0.000000    -0.001857   120.081620
	   58 B(12,6,20)      =    116.604722     0.000000     0.000499   116.605221
	   59 B(12,7,21)      =    116.437623     0.000000     0.000089   116.437711
	   60 D(1,2,10,5)     =      1.380407    -0.000001    -0.040000     1.340407
	   61 D(1,2,10,13)    =   -178.945827     0.000001     0.030421  -178.915406
	   62 D(1,8,9,3)      =    -29.504517     0.000003     0.006672   -29.497844
	   63 D(1,8,9,4)      =    154.767890     0.000002    -0.005628   154.762262
	   64 D(1,8,11,5)     =      2.721897    -0.000001    -0.035595     2.686301
	   65 D(1,8,11,14)    =    178.531603    -0.000000     0.041060   178.572662
	   66 D(2,1,8,9)      =   -173.620266    -0.000000     0.046738  -173.573528
	   67 D(2,1,8,11)     =     -0.840466     0.000001     0.024487    -0.815979
	   68 D(2,10,5,11)    =      0.400961     0.000001     0.029640     0.430601
	   69 D(2,10,5,19)    =   -178.710136     0.000001     0.027588  -178.682548
	   70 D(3,6,12,7)     =      1.099198    -0.000000    -0.005233     1.093966
	   71 D(3,6,12,22)    =    179.636127    -0.000000    -0.007354   179.628773
	   72 D(3,9,4,7)      =      2.978194    -0.000001    -0.006849     2.971345
	   73 D(3,9,4,18)     =   -179.395859    -0.000000    -0.006356  -179.402215
	   74 D(3,9,8,11)     =    158.471308     0.000002     0.031421   158.502729
	   75 D(4,7,12,6)     =     -0.464271     0.000000    -0.004281    -0.468552
	   76 D(4,7,12,22)    =   -179.001824    -0.000000    -0.002182  -179.004006
	   77 D(4,9,3,6)      =     -2.358601     0.000000    -0.002545    -2.361146
	   78 D(4,9,3,17)     =    175.489012     0.000000    -0.006781   175.482231
	   79 D(4,9,8,11)     =    -17.256286     0.000001     0.019121   -17.237165
	   80 D(5,10,2,16)    =   -177.220109    -0.000001    -0.021644  -177.241753
	   81 D(5,11,8,9)     =    175.174485     0.000000    -0.060045   175.114440
	   82 D(6,3,9,8)      =   -178.497940    -0.000001    -0.013746  -178.511686
	   83 D(6,12,7,21)    =   -179.993138     0.000000     0.004562  -179.988575
	   84 D(7,4,9,8)      =    178.958060     0.000001     0.004315   178.962375
	   85 D(7,12,6,20)    =   -177.300641    -0.000000     0.008079  -177.292562
	   86 D(8,1,2,10)     =     -1.140485     0.000000     0.013107    -1.127378
	   87 D(8,1,2,16)     =    177.408106    -0.000000    -0.005950   177.402156
	   88 D(8,9,3,17)     =     -0.650327    -0.000001    -0.017982    -0.668309
	   89 D(8,9,4,18)     =     -3.415993     0.000001     0.004807    -3.411186
	   90 D(8,11,5,10)    =     -2.548247     0.000000     0.008269    -2.539979
	   91 D(8,11,5,19)    =    176.550972     0.000000     0.010365   176.561337
	   92 D(9,3,6,12)     =      0.420429    -0.000000     0.008579     0.429008
	   93 D(9,3,6,20)     =    178.717199    -0.000000    -0.005583   178.711615
	   94 D(9,4,7,12)     =     -1.694132     0.000000     0.010543    -1.683588
	   95 D(9,4,7,21)     =    177.805340     0.000000     0.001140   177.806480
	   96 D(9,8,1,15)     =      2.773601    -0.000001     0.020512     2.794113
	   97 D(9,8,11,14)    =     -9.015809     0.000001     0.016610    -8.999199
	   98 D(10,2,1,15)    =   -177.517709     0.000000     0.039606  -177.478103
	   99 D(10,5,11,14)   =   -178.347759    -0.000001    -0.068474  -178.416233
	  100 D(11,5,10,13)   =   -179.273881    -0.000001    -0.040558  -179.314439
	  101 D(11,8,1,15)    =    175.553401     0.000000    -0.001739   175.551662
	  102 D(12,6,3,17)    =   -177.483691    -0.000000     0.012773  -177.470917
	  103 D(12,7,4,18)    =   -179.382243     0.000000     0.010091  -179.372152
	  104 D(13,10,2,16)   =      2.453657     0.000001     0.048777     2.502434
	  105 D(13,10,5,19)   =      1.615021    -0.000001    -0.042610     1.572411
	  106 D(14,11,5,19)   =      0.751460    -0.000001    -0.066377     0.685083
	  107 D(15,1,2,16)    =      1.030882     0.000000     0.020548     1.051430
	  108 D(17,3,6,20)    =      0.813079    -0.000000    -0.001389     0.811690
	  109 D(18,4,7,21)    =      0.117229     0.000000     0.000688     0.117916
	  110 D(20,6,12,22)   =      1.236288     0.000000     0.005957     1.242245
	  111 D(21,7,12,22)   =      1.469310     0.000000     0.006661     1.475971
	  112 R(4,14)         =      2.745187     0.000003     0.000018     2.745205
	 ---------------------------------------------------------------------------
	Successfully symmetrized geometry.
	 Forces used to impose fixed constraints are not included.
	  Forces zeroed: 62 

  ==> Convergence Check <==

  Measures of convergence in internal coordinates in au.
  Criteria marked as inactive (o), active & met (*), and active & unmet ( ).
  ---------------------------------------------------------------------------------------------
   Step     Total Energy     Delta E     MAX Force     RMS Force      MAX Disp      RMS Disp   
  ---------------------------------------------------------------------------------------------
    Convergence Criteria    1.00e-06 *    3.00e-04 *             o    1.20e-03 *             o
  ---------------------------------------------------------------------------------------------
     15    -652.83311113   -3.21e-05      1.10e-04 *    2.70e-05 o    1.20e-03 *    3.10e-04 o  ~
  ---------------------------------------------------------------------------------------------


  **** Optimization is complete! (in 15 steps) ****

  ==> Optimization Summary <==

  Measures of convergence in internal coordinates in au.
  --------------------------------------------------------------------------------------------------------------- ~
   Step         Total Energy             Delta E       MAX Force       RMS Force        MAX Disp        RMS Disp  ~
  --------------------------------------------------------------------------------------------------------------- ~
      1    -652.812943931094   -652.812943931094      0.03363138      0.00952753      0.03223269      0.00944518  ~
      2    -652.821460032580     -0.008516101485      0.02195311      0.00668243      0.02793372      0.00944548  ~
      3    -652.827168593467     -0.005708560887      0.01305043      0.00413413      0.02469447      0.00945279  ~
      4    -652.830437084599     -0.003268491131      0.00610361      0.00210030      0.03627781      0.00948436  ~
      5    -652.831955503631     -0.001518419032      0.00377522      0.00091167      0.04448313      0.00950844  ~
      6    -652.832643920226     -0.000688416595      0.00243733      0.00050063      0.04930101      0.00951002  ~
      7    -652.833035986038     -0.000392065812      0.00146783      0.00034040      0.05036351      0.00950159  ~
      8    -652.833213606219     -0.000177620181      0.00196179      0.00030465      0.01614166      0.00365367  ~
      9    -652.833198314672      0.000015291548      0.00133732      0.00019862      0.00664018      0.00147337  ~
     10    -652.833182693036      0.000015621636      0.00107599      0.00015833      0.00325404      0.00089387  ~
     11    -652.833164205532      0.000018487504      0.00076960      0.00011442      0.00414724      0.00115464  ~
     12    -652.833152927220      0.000011278313      0.00063606      0.00009864      0.00907602      0.00237207  ~
     13    -652.833138292901      0.000014634318      0.00052772      0.00010963      0.01914462      0.00584593  ~
     14    -652.833079035122      0.000059257779      0.00061376      0.00016744      0.01472262      0.00449375  ~
     15    -652.833111132863     -0.000032097741      0.00017539      0.00003169      0.00119509      0.00030993  ~
  --------------------------------------------------------------------------------------------------------------- ~

	Writing optimization data to binary file.
	Final energy is   -652.8331111328632
	Final (previous) structure:
	Cartesian Geometry (in Angstrom)
	    C    -1.4075765415   0.6745499497  -0.7481727756
	    C    -2.4455990504   1.2920530377  -0.1337629115
	    C     0.6587969949  -0.9434059431  -2.0402560959
	    C     2.0967295829  -0.5463977359  -0.1614824661
	    C    -1.4331174397   0.7911103233   2.0321532532
	    C     1.7125378869  -1.4683355718  -2.7161847882
	    C     3.1280123750  -1.0671003921  -0.8759893395
	    C    -0.3186806466   0.0862148581  -0.0338084124
	    C     0.7886175319  -0.4198741882  -0.7184544738
	    C    -2.5406065841   1.3811088965   1.3112434258
	    C    -0.4009989765   0.2166862955   1.3790785909
	    N     2.9428377026  -1.5204052966  -2.1429895353
	    O    -3.4924757459   1.9254670668   1.8868542483
	    F     0.5861644349  -0.3467617116   2.1220209889
	    H    -1.3694454253   0.6745747753  -1.8276826442
	    H    -3.2296549020   1.7612845038  -0.7082009460
	    H    -0.3031663007  -0.9638666546  -2.5243238424
	    H     2.3031498132  -0.1938810803   0.8322461176
	    H    -1.4506404850   0.8039487678   3.1098989049
	    H     1.6233494419  -1.8846011361  -3.7058353375
	    H     4.1285644152  -1.1377692160  -0.4826763282
	    H     3.7149616682  -1.9160677006  -2.6501741439
	Saving final (previous) structure.
			--------------------------
			 OPTKING Finished Execution 
			--------------------------

    Final optimized geometry and variables:
    Molecular point group: c1
    Full point group: C1

    Geometry (in Angstrom), charge = 0, multiplicity = 1:

    C           -1.407576541468     0.674549949739    -0.748172775557
    C           -2.445599050421     1.292053037694    -0.133762911463
    C            0.658796994873    -0.943405943127    -2.040256095942
    C            2.096729582915    -0.546397735861    -0.161482466119
    C           -1.433117439699     0.791110323327     2.032153253178
    C            1.712537886930    -1.468335571812    -2.716184788192
    C            3.128012374951    -1.067100392110    -0.875989339489
    C           -0.318680646607     0.086214858076    -0.033808412375
    C            0.788617531910    -0.419874188159    -0.718454473756
    C           -2.540606584113     1.381108896499     1.311243425843
    C           -0.400998976451     0.216686295508     1.379078590937
    N            2.942837702578    -1.520405296588    -2.142989535273
    O           -3.492475745858     1.925467066784     1.886854248340
    F            0.586164434881    -0.346761711603     2.122020988913
    H           -1.369445425304     0.674574775313    -1.827682644229
    H           -3.229654902042     1.761284503778    -0.708200946042
    H           -0.303166300682    -0.963866654573    -2.524323842394
    H            2.303149813225    -0.193881080327     0.832246117561
    H           -1.450640484996     0.803948767810     3.109898904886
    H            1.623349441868    -1.884601136125    -3.705835337541
    H            4.128564415192    -1.137769216038    -0.482676328178
    H            3.714961668227    -1.916067700596    -2.650174143869

	Cleaning optimization helper files.

*** Psi4 exiting successfully. Buy a developer a beer!
