
    -----------------------------------------------------------------------
          Psi4: An Open-Source Ab Initio Electronic Structure Package
                               Psi4 1.1 release

                         Git: Rev {HEAD} add49b9 


    R. M. Parrish, L. A. Burns, D. G. A. Smith, A. C. Simmonett,
    A. E. DePrince III, E. G. Hohenstein, U. Bozkaya, A. Yu. Sokolov,
    R. Di Remigio, R. M. Richard, J. F. Gonthier, A. M. James,
    H. R. McAlexander, A. Kumar, M. Saitow, X. Wang, B. P. Pritchard,
    P. Verma, H. F. Schaefer III, K. Patkowski, R. A. King, E. F. Valeev,
    F. A. Evangelista, J. M. Turney, T. D. Crawford, and C. D. Sherrill,
    J. Chem. Theory Comput. in press (2017).
    (doi: 10.1021/acs.jctc.7b00174)

    -----------------------------------------------------------------------


    Psi4 started on: Saturday, 11 November 2017 10:21PM

    Process ID:   9055
    PSIDATADIR: /cbio/jclab/home/chayas/anaconda/envs/py35/share/psi4
    Memory:     500.0 MiB
    Threads:    8
    
  ==> Input File <==

--------------------------------------------------------------------------

memory 5 Gb

molecule phepyrFOH_neutral {
  symmetry C1
  0 1 
  C      1.885   -1.036   -0.112
  C      0.807   -0.463   0.561
  C      3.855   -2.771   -1.361
  C      5.298   -2.250   0.492
  C      1.800   -1.079   2.676
  C      4.956   -3.326   -1.992
  C      6.334   -2.829   -0.222
  C      2.921   -1.631   0.608
  C      4.038   -2.225   -0.095
  C      0.764   -0.484   1.955
  C      2.878   -1.652   2.002
  N      6.196   -3.369   -1.454
  O      -0.289   0.076   2.612
  F      3.866   -2.220   2.709
  H      1.904   -1.012   -1.199
  H      0.002   -0.002   -0.006
  H      2.887   -2.768   -1.852
  H      5.478   -1.835   1.479
  H      1.772   -1.099   3.762
  H      4.867   -3.763   -2.981
  H      7.336   -2.875   0.192
  H      -0.175   -0.018   3.571
  units Angstrom
}

dih_string = "1 8 9 3 330"
set optking fixed_dihedral = $dih_string

optimize('MP2/aug-cc-PVTZ')
--------------------------------------------------------------------------

  Memory set to   4.657 GiB by Python driver.
gradient() will perform analytic gradient computation.

*** tstart() called on gpu-2-10.local
*** at Sat Nov 11 22:21:13 2017

    SCF Algorithm Type (re)set to DF.

*** tstart() called on gpu-2-10.local
*** at Sat Nov 11 22:21:13 2017

   => Loading Basis Set <=

    Name: AUG-CC-PVTZ
    Role: ORBITAL
    Keyword: BASIS
    atoms 1-11  entry C          line   221 file /cbio/jclab/home/chayas/anaconda/envs/py35/share/psi4/basis/aug-cc-pvtz.gbs 
    atoms 12    entry N          line   267 file /cbio/jclab/home/chayas/anaconda/envs/py35/share/psi4/basis/aug-cc-pvtz.gbs 
    atoms 13    entry O          line   313 file /cbio/jclab/home/chayas/anaconda/envs/py35/share/psi4/basis/aug-cc-pvtz.gbs 
    atoms 14    entry F          line   359 file /cbio/jclab/home/chayas/anaconda/envs/py35/share/psi4/basis/aug-cc-pvtz.gbs 
    atoms 15-22 entry H          line    34 file /cbio/jclab/home/chayas/anaconda/envs/py35/share/psi4/basis/aug-cc-pvtz.gbs 


         ---------------------------------------------------------
                                   SCF
            by Justin Turney, Rob Parrish, and Andy Simmonett
                              RHF Reference
                        8 Threads,   4768 MiB Core
         ---------------------------------------------------------

  ==> Geometry <==

    Molecular point group: c1
    Full point group: C1

    Geometry (in Angstrom), charge = 0, multiplicity = 1:

       Center              X                  Y                   Z               Mass       
    ------------   -----------------  -----------------  -----------------  -----------------
           C         -1.321828158076     0.754794664288    -0.799711963947    12.000000000000
           C         -2.399828158076     1.327794664288    -0.126711963947    12.000000000000
           C          0.648171841924    -0.980205335712    -2.048711963947    12.000000000000
           C          2.091171841924    -0.459205335712    -0.195711963947    12.000000000000
           C         -1.406828158076     0.711794664288     1.988288036053    12.000000000000
           C          1.749171841924    -1.535205335712    -2.679711963947    12.000000000000
           C          3.127171841924    -1.038205335712    -0.909711963947    12.000000000000
           C         -0.285828158076     0.159794664288    -0.079711963947    12.000000000000
           C          0.831171841924    -0.434205335712    -0.782711963947    12.000000000000
           C         -2.442828158076     1.306794664288     1.267288036053    12.000000000000
           C         -0.328828158076     0.138794664288     1.314288036053    12.000000000000
           N          2.989171841924    -1.578205335712    -2.141711963947    14.003074004780
           O         -3.495828158076     1.866794664288     1.924288036053    15.994914619560
           F          0.659171841924    -0.429205335712     2.021288036053    18.998403224000
           H         -1.302828158076     0.778794664288    -1.886711963947     1.007825032070
           H         -3.204828158076     1.788794664288    -0.693711963947     1.007825032070
           H         -0.319828158076    -0.977205335712    -2.539711963947     1.007825032070
           H          2.271171841924    -0.044205335712     0.791288036053     1.007825032070
           H         -1.434828158076     0.691794664288     3.074288036053     1.007825032070
           H          1.660171841924    -1.972205335712    -3.668711963947     1.007825032070
           H          4.129171841924    -1.084205335712    -0.495711963947     1.007825032070
           H         -3.381828158076     1.772794664288     2.883288036053     1.007825032070

  Running in c1 symmetry.

  Rotational constants: A =      0.06326  B =      0.01348  C =      0.01134 [cm^-1]
  Rotational constants: A =   1896.57263  B =    404.23770  C =    340.09392 [MHz]
  Nuclear repulsion =  816.512120527478146

  Charge       = 0
  Multiplicity = 1
  Electrons    = 98
  Nalpha       = 49
  Nbeta        = 49

  ==> Algorithm <==

  SCF Algorithm Type is DF.
  DIIS enabled.
  MOM disabled.
  Fractional occupation disabled.
  Guess Type is SAD.
  Energy threshold   = 1.00e-10
  Density threshold  = 1.00e-10
  Integral threshold = 0.00e+00

  ==> Primary Basis <==

  Basis Set: AUG-CC-PVTZ
    Blend: AUG-CC-PVTZ
    Number of shells: 268
    Number of basis function: 828
    Number of Cartesian functions: 970
    Spherical Harmonics?: true
    Max angular momentum: 3

   => Loading Basis Set <=

    Name: (AUG-CC-PVTZ AUX)
    Role: JKFIT
    Keyword: DF_BASIS_SCF
    atoms 1-11  entry C          line   161 file /cbio/jclab/home/chayas/anaconda/envs/py35/share/psi4/basis/aug-cc-pvtz-jkfit.gbs 
    atoms 12    entry N          line   223 file /cbio/jclab/home/chayas/anaconda/envs/py35/share/psi4/basis/aug-cc-pvtz-jkfit.gbs 
    atoms 13    entry O          line   285 file /cbio/jclab/home/chayas/anaconda/envs/py35/share/psi4/basis/aug-cc-pvtz-jkfit.gbs 
    atoms 14    entry F          line   347 file /cbio/jclab/home/chayas/anaconda/envs/py35/share/psi4/basis/aug-cc-pvtz-jkfit.gbs 
    atoms 15-22 entry H          line    69 file /cbio/jclab/home/chayas/anaconda/envs/py35/share/psi4/basis/aug-cc-pvtz-jkfit.gbs 

  ==> Pre-Iterations <==

   -------------------------------------------------------
    Irrep   Nso     Nmo     Nalpha   Nbeta   Ndocc  Nsocc
   -------------------------------------------------------
     A        828     828       0       0       0       0
   -------------------------------------------------------
    Total     828     828      49      49      49       0
   -------------------------------------------------------

  ==> Integral Setup <==

  ==> DFJK: Density-Fitted J/K Matrices <==

    J tasked:                  Yes
    K tasked:                  Yes
    wK tasked:                  No
    OpenMP threads:              8
    Integrals threads:           8
    Memory (MB):              3576
    Algorithm:                Disk
    Integral Cache:           NONE
    Schwarz Cutoff:          1E-12
    Fitting Condition:       1E-12

   => Auxiliary Basis Set <=

  Basis Set: (AUG-CC-PVTZ AUX)
    Blend: AUG-CC-PVTZ-JKFIT
    Number of shells: 532
    Number of basis function: 1824
    Number of Cartesian functions: 2274
    Spherical Harmonics?: true
    Max angular momentum: 4

  Minimum eigenvalue in the overlap matrix is 6.6097608340E-07.
  Using Symmetric Orthogonalization.

  SCF Guess: Superposition of Atomic Densities via on-the-fly atomic UHF.

  ==> Iterations <==

                           Total Energy        Delta E     RMS |[F,P]|

   @DF-RHF iter   0:  -656.03047449973758   -6.56030e+02   2.20800e-02 
   @DF-RHF iter   1:  -649.73708047085313    6.29339e+00   2.43459e-03 
   @DF-RHF iter   2:  -650.08697729357596   -3.49897e-01   1.12441e-03 DIIS
   @DF-RHF iter   3:  -650.15165348764106   -6.46762e-02   4.59900e-04 DIIS
   @DF-RHF iter   4:  -650.16753945985579   -1.58860e-02   1.02976e-04 DIIS
   @DF-RHF iter   5:  -650.16902777883229   -1.48832e-03   3.97744e-05 DIIS
   @DF-RHF iter   6:  -650.16927220990954   -2.44431e-04   1.47760e-05 DIIS
   @DF-RHF iter   7:  -650.16930254658848   -3.03367e-05   5.51194e-06 DIIS
   @DF-RHF iter   8:  -650.16930575063134   -3.20404e-06   2.55568e-06 DIIS
   @DF-RHF iter   9:  -650.16930650061101   -7.49980e-07   8.32479e-07 DIIS
   @DF-RHF iter  10:  -650.16930672932449   -2.28713e-07   5.23923e-07 DIIS
   @DF-RHF iter  11:  -650.16930679516122   -6.58367e-08   1.94170e-07 DIIS
   @DF-RHF iter  12:  -650.16930680560631   -1.04451e-08   9.22412e-08 DIIS
   @DF-RHF iter  13:  -650.16930680691814   -1.31183e-09   3.11410e-08 DIIS
   @DF-RHF iter  14:  -650.16930680711346   -1.95314e-10   9.11249e-09 DIIS
   @DF-RHF iter  15:  -650.16930680713892   -2.54659e-11   5.06903e-09 DIIS
   @DF-RHF iter  16:  -650.16930680713654    2.38742e-12   3.07829e-09 DIIS
   @DF-RHF iter  17:  -650.16930680715768   -2.11458e-11   1.04630e-09 DIIS
   @DF-RHF iter  18:  -650.16930680714768    1.00044e-11   4.52848e-10 DIIS
   @DF-RHF iter  19:  -650.16930680714745    2.27374e-13   1.42168e-10 DIIS
   @DF-RHF iter  20:  -650.16930680716257   -1.51203e-11   6.05268e-11 DIIS

  ==> Post-Iterations <==

    Orbital Energies (a.u.)
    -----------------------

    Doubly Occupied:                                                      

       1A    -26.332286     2A    -20.611673     3A    -15.561477  
       4A    -11.352689     5A    -11.330890     6A    -11.272780  
       7A    -11.271009     8A    -11.267093     9A    -11.264842  
      10A    -11.256738    11A    -11.254799    12A    -11.248218  
      13A    -11.237534    14A    -11.232397    15A     -1.653110  
      16A     -1.426187    17A     -1.247430    18A     -1.183916  
      19A     -1.110498    20A     -1.044563    21A     -1.032172  
      22A     -1.020081    23A     -0.895345    24A     -0.881239  
      25A     -0.850584    26A     -0.826276    27A     -0.774454  
      28A     -0.753049    29A     -0.724590    30A     -0.718748  
      31A     -0.702958    32A     -0.672100    33A     -0.655386  
      34A     -0.639609    35A     -0.632484    36A     -0.614174  
      37A     -0.610694    38A     -0.593962    39A     -0.578501  
      40A     -0.546007    41A     -0.540777    42A     -0.534448  
      43A     -0.512868    44A     -0.499459    45A     -0.416290  
      46A     -0.400590    47A     -0.361840    48A     -0.347306  
      49A     -0.313587  

    Virtual:                                                              

      50A      0.021241    51A      0.028154    52A      0.034812  
      53A      0.039046    54A      0.044700    55A      0.046461  
      56A      0.056449    57A      0.057428    58A      0.073860  
      59A      0.077873    60A      0.080856    61A      0.082366  
      62A      0.090269    63A      0.094148    64A      0.097053  
      65A      0.102794    66A      0.103843    67A      0.108969  
      68A      0.109960    69A      0.112249    70A      0.116309  
      71A      0.119119    72A      0.123062    73A      0.128560  
      74A      0.131983    75A      0.133613    76A      0.136579  
      77A      0.140455    78A      0.143344    79A      0.144977  
      80A      0.150733    81A      0.151962    82A      0.154640  
      83A      0.162419    84A      0.165516    85A      0.171980  
      86A      0.174832    87A      0.179480    88A      0.182830  
      89A      0.185133    90A      0.196029    91A      0.203221  
      92A      0.211611    93A      0.215298    94A      0.220558  
      95A      0.221915    96A      0.225516    97A      0.226959  
      98A      0.235343    99A      0.239832   100A      0.241303  
     101A      0.246228   102A      0.246627   103A      0.249395  
     104A      0.254556   105A      0.261624   106A      0.264977  
     107A      0.270202   108A      0.270690   109A      0.276887  
     110A      0.277347   111A      0.279600   112A      0.286859  
     113A      0.292900   114A      0.296420   115A      0.299262  
     116A      0.303174   117A      0.305641   118A      0.313197  
     119A      0.316798   120A      0.321081   121A      0.324693  
     122A      0.327564   123A      0.331893   124A      0.336155  
     125A      0.342538   126A      0.346632   127A      0.348924  
     128A      0.356888   129A      0.358940   130A      0.365378  
     131A      0.374179   132A      0.379178   133A      0.384684  
     134A      0.387947   135A      0.393656   136A      0.396922  
     137A      0.401039   138A      0.405300   139A      0.414533  
     140A      0.417216   141A      0.421500   142A      0.424334  
     143A      0.429129   144A      0.429946   145A      0.435046  
     146A      0.440581   147A      0.441956   148A      0.446337  
     149A      0.449883   150A      0.454591   151A      0.460101  
     152A      0.462258   153A      0.465240   154A      0.467102  
     155A      0.469124   156A      0.476692   157A      0.478759  
     158A      0.485421   159A      0.489028   160A      0.495478  
     161A      0.500011   162A      0.500377   163A      0.504259  
     164A      0.506755   165A      0.509671   166A      0.511246  
     167A      0.512635   168A      0.516351   169A      0.525892  
     170A      0.526680   171A      0.530672   172A      0.532496  
     173A      0.534141   174A      0.537824   175A      0.541106  
     176A      0.547449   177A      0.550797   178A      0.553467  
     179A      0.562313   180A      0.564782   181A      0.570981  
     182A      0.574997   183A      0.583918   184A      0.588999  
     185A      0.594162   186A      0.598342   187A      0.605716  
     188A      0.611706   189A      0.616864   190A      0.621181  
     191A      0.628556   192A      0.638988   193A      0.642169  
     194A      0.649981   195A      0.651597   196A      0.661050  
     197A      0.661549   198A      0.684253   199A      0.686112  
     200A      0.688775   201A      0.692176   202A      0.696385  
     203A      0.706660   204A      0.712619   205A      0.716445  
     206A      0.726033   207A      0.729213   208A      0.731680  
     209A      0.735292   210A      0.737046   211A      0.745577  
     212A      0.750486   213A      0.753158   214A      0.764530  
     215A      0.767535   216A      0.773583   217A      0.778436  
     218A      0.784036   219A      0.795339   220A      0.800995  
     221A      0.805618   222A      0.807820   223A      0.821158  
     224A      0.824716   225A      0.827099   226A      0.827249  
     227A      0.834315   228A      0.847004   229A      0.849192  
     230A      0.854711   231A      0.860524   232A      0.864455  
     233A      0.871048   234A      0.876596   235A      0.879756  
     236A      0.883936   237A      0.887152   238A      0.890472  
     239A      0.897795   240A      0.902540   241A      0.907589  
     242A      0.910234   243A      0.921710   244A      0.923831  
     245A      0.927303   246A      0.934255   247A      0.937403  
     248A      0.939122   249A      0.943869   250A      0.950542  
     251A      0.956062   252A      0.960439   253A      0.967508  
     254A      0.970211   255A      0.970951   256A      0.976491  
     257A      0.981967   258A      0.987175   259A      0.991038  
     260A      0.996047   261A      0.997646   262A      1.008266  
     263A      1.011184   264A      1.017227   265A      1.022555  
     266A      1.025430   267A      1.028180   268A      1.029995  
     269A      1.033754   270A      1.036362   271A      1.041295  
     272A      1.047919   273A      1.051431   274A      1.054744  
     275A      1.060499   276A      1.067110   277A      1.072286  
     278A      1.075468   279A      1.078058   280A      1.083800  
     281A      1.084911   282A      1.092849   283A      1.095118  
     284A      1.100919   285A      1.101699   286A      1.113204  
     287A      1.115660   288A      1.116665   289A      1.127230  
     290A      1.133568   291A      1.137059   292A      1.140161  
     293A      1.147469   294A      1.152666   295A      1.155911  
     296A      1.161529   297A      1.168287   298A      1.176704  
     299A      1.181636   300A      1.183122   301A      1.188107  
     302A      1.193808   303A      1.199434   304A      1.202486  
     305A      1.207494   306A      1.211189   307A      1.216464  
     308A      1.218901   309A      1.222665   310A      1.228087  
     311A      1.237827   312A      1.240013   313A      1.253875  
     314A      1.260227   315A      1.266150   316A      1.273474  
     317A      1.278475   318A      1.279863   319A      1.283239  
     320A      1.292588   321A      1.297999   322A      1.301326  
     323A      1.305695   324A      1.315716   325A      1.323246  
     326A      1.328116   327A      1.337221   328A      1.338705  
     329A      1.352664   330A      1.361059   331A      1.363359  
     332A      1.373573   333A      1.385512   334A      1.393439  
     335A      1.400897   336A      1.403854   337A      1.409551  
     338A      1.425040   339A      1.430865   340A      1.432783  
     341A      1.441293   342A      1.446287   343A      1.450358  
     344A      1.461650   345A      1.477368   346A      1.479694  
     347A      1.482605   348A      1.496073   349A      1.505458  
     350A      1.511123   351A      1.518570   352A      1.527500  
     353A      1.538122   354A      1.548461   355A      1.549895  
     356A      1.560514   357A      1.569815   358A      1.581903  
     359A      1.585060   360A      1.587528   361A      1.600068  
     362A      1.603905   363A      1.609703   364A      1.624868  
     365A      1.633626   366A      1.645501   367A      1.650040  
     368A      1.656910   369A      1.660260   370A      1.669503  
     371A      1.675908   372A      1.683091   373A      1.689051  
     374A      1.692124   375A      1.699564   376A      1.710633  
     377A      1.716265   378A      1.725008   379A      1.732138  
     380A      1.738994   381A      1.743053   382A      1.749908  
     383A      1.755230   384A      1.762325   385A      1.777222  
     386A      1.780231   387A      1.796014   388A      1.799467  
     389A      1.804210   390A      1.805932   391A      1.818024  
     392A      1.820658   393A      1.836045   394A      1.841757  
     395A      1.845575   396A      1.850262   397A      1.862645  
     398A      1.869768   399A      1.873260   400A      1.885776  
     401A      1.895002   402A      1.909535   403A      1.919666  
     404A      1.922414   405A      1.938099   406A      1.941305  
     407A      1.950155   408A      1.952149   409A      1.964582  
     410A      1.965138   411A      1.971344   412A      1.981351  
     413A      1.993002   414A      1.997217   415A      1.999952  
     416A      2.016619   417A      2.019641   418A      2.026071  
     419A      2.027098   420A      2.043570   421A      2.051095  
     422A      2.054485   423A      2.064691   424A      2.074218  
     425A      2.079422   426A      2.083755   427A      2.091899  
     428A      2.095355   429A      2.102386   430A      2.111049  
     431A      2.123168   432A      2.132844   433A      2.139096  
     434A      2.142592   435A      2.152318   436A      2.155935  
     437A      2.162660   438A      2.173214   439A      2.180389  
     440A      2.183499   441A      2.195736   442A      2.205293  
     443A      2.225469   444A      2.233289   445A      2.241446  
     446A      2.246359   447A      2.249829   448A      2.256118  
     449A      2.276646   450A      2.284038   451A      2.290717  
     452A      2.298233   453A      2.311610   454A      2.327109  
     455A      2.330551   456A      2.344154   457A      2.350297  
     458A      2.355257   459A      2.364257   460A      2.368264  
     461A      2.379925   462A      2.397088   463A      2.405601  
     464A      2.416047   465A      2.427823   466A      2.435394  
     467A      2.450425   468A      2.464611   469A      2.474369  
     470A      2.475908   471A      2.506935   472A      2.514224  
     473A      2.525347   474A      2.534160   475A      2.544882  
     476A      2.553225   477A      2.567167   478A      2.573547  
     479A      2.577696   480A      2.586592   481A      2.602579  
     482A      2.613037   483A      2.624960   484A      2.638936  
     485A      2.647910   486A      2.663447   487A      2.687422  
     488A      2.702200   489A      2.721930   490A      2.745978  
     491A      2.754791   492A      2.767101   493A      2.800024  
     494A      2.803585   495A      2.822389   496A      2.836181  
     497A      2.839868   498A      2.860482   499A      2.865487  
     500A      2.882108   501A      2.897350   502A      2.914259  
     503A      2.930147   504A      2.957247   505A      2.987147  
     506A      2.992229   507A      3.015287   508A      3.033509  
     509A      3.043160   510A      3.059204   511A      3.078787  
     512A      3.097441   513A      3.110860   514A      3.132064  
     515A      3.143132   516A      3.160225   517A      3.173422  
     518A      3.180617   519A      3.188275   520A      3.201065  
     521A      3.209532   522A      3.227067   523A      3.245093  
     524A      3.264718   525A      3.273182   526A      3.279720  
     527A      3.292748   528A      3.320004   529A      3.322940  
     530A      3.326545   531A      3.341117   532A      3.346487  
     533A      3.364951   534A      3.366081   535A      3.385056  
     536A      3.389048   537A      3.396965   538A      3.409444  
     539A      3.415565   540A      3.425790   541A      3.441139  
     542A      3.455104   543A      3.458296   544A      3.464833  
     545A      3.471922   546A      3.480173   547A      3.489652  
     548A      3.496965   549A      3.501434   550A      3.512860  
     551A      3.520664   552A      3.523624   553A      3.544589  
     554A      3.552080   555A      3.560658   556A      3.564195  
     557A      3.569205   558A      3.577345   559A      3.584125  
     560A      3.597454   561A      3.600788   562A      3.616731  
     563A      3.623236   564A      3.635221   565A      3.643910  
     566A      3.655004   567A      3.663325   568A      3.670924  
     569A      3.684387   570A      3.689560   571A      3.691849  
     572A      3.709149   573A      3.716362   574A      3.739718  
     575A      3.747731   576A      3.754168   577A      3.759628  
     578A      3.773100   579A      3.776813   580A      3.784895  
     581A      3.791356   582A      3.810422   583A      3.814327  
     584A      3.819459   585A      3.830496   586A      3.838474  
     587A      3.843385   588A      3.852304   589A      3.860469  
     590A      3.871287   591A      3.879009   592A      3.889817  
     593A      3.892419   594A      3.899537   595A      3.910081  
     596A      3.919598   597A      3.926312   598A      3.935015  
     599A      3.942867   600A      3.946576   601A      3.962452  
     602A      3.966179   603A      3.973828   604A      3.982261  
     605A      3.989155   606A      3.995590   607A      4.012049  
     608A      4.019044   609A      4.031244   610A      4.038862  
     611A      4.042355   612A      4.048892   613A      4.061156  
     614A      4.075859   615A      4.093671   616A      4.097077  
     617A      4.097368   618A      4.111601   619A      4.122053  
     620A      4.126958   621A      4.137082   622A      4.150202  
     623A      4.150747   624A      4.170480   625A      4.174539  
     626A      4.189510   627A      4.200258   628A      4.206069  
     629A      4.208716   630A      4.220229   631A      4.224043  
     632A      4.234318   633A      4.250513   634A      4.261460  
     635A      4.280347   636A      4.281571   637A      4.291279  
     638A      4.307279   639A      4.309787   640A      4.319542  
     641A      4.322298   642A      4.335613   643A      4.336403  
     644A      4.347564   645A      4.357691   646A      4.369154  
     647A      4.372033   648A      4.392687   649A      4.399041  
     650A      4.405474   651A      4.407236   652A      4.417389  
     653A      4.427114   654A      4.431011   655A      4.438922  
     656A      4.453796   657A      4.463482   658A      4.471434  
     659A      4.494935   660A      4.497611   661A      4.503266  
     662A      4.511698   663A      4.516810   664A      4.518304  
     665A      4.535771   666A      4.551916   667A      4.570851  
     668A      4.584145   669A      4.591969   670A      4.601061  
     671A      4.616889   672A      4.617567   673A      4.643722  
     674A      4.650228   675A      4.674472   676A      4.680436  
     677A      4.685254   678A      4.707578   679A      4.720876  
     680A      4.726194   681A      4.729883   682A      4.755244  
     683A      4.774534   684A      4.790421   685A      4.797311  
     686A      4.800986   687A      4.821027   688A      4.850408  
     689A      4.876186   690A      4.879302   691A      4.885019  
     692A      4.892223   693A      4.900764   694A      4.931841  
     695A      4.953283   696A      4.961047   697A      4.973313  
     698A      4.981107   699A      4.991976   700A      5.004013  
     701A      5.015675   702A      5.027419   703A      5.031962  
     704A      5.045858   705A      5.049743   706A      5.079676  
     707A      5.090603   708A      5.100977   709A      5.115887  
     710A      5.125031   711A      5.127216   712A      5.136275  
     713A      5.147029   714A      5.167359   715A      5.172244  
     716A      5.187818   717A      5.200210   718A      5.201972  
     719A      5.228343   720A      5.239896   721A      5.257886  
     722A      5.261367   723A      5.269960   724A      5.298910  
     725A      5.307119   726A      5.340045   727A      5.349042  
     728A      5.349523   729A      5.362218   730A      5.393934  
     731A      5.405423   732A      5.424129   733A      5.445671  
     734A      5.455148   735A      5.469634   736A      5.487399  
     737A      5.512348   738A      5.542210   739A      5.548978  
     740A      5.565668   741A      5.581623   742A      5.588793  
     743A      5.617537   744A      5.628959   745A      5.689846  
     746A      5.699141   747A      5.718485   748A      5.759067  
     749A      5.770568   750A      5.792175   751A      5.805830  
     752A      5.823809   753A      5.841262   754A      5.856376  
     755A      5.865764   756A      5.897557   757A      5.914299  
     758A      5.972827   759A      5.999741   760A      6.054354  
     761A      6.087366   762A      6.133707   763A      6.146499  
     764A      6.201094   765A      6.231998   766A      6.265926  
     767A      6.295317   768A      6.315163   769A      6.364956  
     770A      6.423025   771A      6.431755   772A      6.478963  
     773A      6.500382   774A      6.511457   775A      6.553789  
     776A      6.616276   777A      6.697576   778A      6.707268  
     779A      6.717024   780A      6.727502   781A      6.740067  
     782A      6.864496   783A      6.882040   784A      6.888264  
     785A      6.935310   786A      6.950632   787A      6.991681  
     788A      7.039854   789A      7.068312   790A      7.092023  
     791A      7.195745   792A      7.250122   793A      7.395657  
     794A      7.414513   795A      7.431793   796A      7.477037  
     797A      7.676412   798A      7.684690   799A      7.744212  
     800A      7.995025   801A      8.374421   802A      8.628257  
     803A      9.100740   804A      9.124073   805A      9.273824  
     806A      9.290815   807A      9.423631   808A      9.527546  
     809A      9.560873   810A      9.621411   811A      9.665472  
     812A      9.728706   813A     10.044273   814A     10.109457  
     815A     15.570420   816A     16.238669   817A     16.541773  
     818A     16.751027   819A     16.761881   820A     16.879587  
     821A     18.487667   822A     18.838532   823A     19.368268  
     824A     19.733334   825A     20.163700   826A     20.225121  
     827A     20.665406   828A     21.708268  

    Final Occupation by Irrep:
              A 
    DOCC [    49 ]

  Energy converged.

  @DF-RHF Final Energy:  -650.16930680716257

   => Energetics <=

    Nuclear Repulsion Energy =            816.5121205274781460
    One-Electron Energy =               -2507.7434416071828309
    Two-Electron Energy =                1041.0620142725420010
    DFT Exchange-Correlation Energy =       0.0000000000000000
    Empirical Dispersion Energy =           0.0000000000000000
    PCM Polarization Energy =               0.0000000000000000
    EFP Energy =                            0.0000000000000000
    Total Energy =                       -650.1693068071626840



Properties will be evaluated at   0.000000,   0.000000,   0.000000 Bohr

Properties computed using the SCF density matrix

  Nuclear Dipole Moment: (a.u.)
     X:    -2.1319      Y:     1.3131      Z:    -4.2685

  Electronic Dipole Moment: (a.u.)
     X:     1.0426      Y:    -0.7249      Z:     5.0139

  Dipole Moment: (a.u.)
     X:    -1.0893      Y:     0.5882      Z:     0.7454     Total:     1.4451

  Dipole Moment: (Debye)
     X:    -2.7687      Y:     1.4951      Z:     1.8947     Total:     3.6730


*** tstop() called on gpu-2-10.local at Sat Nov 11 22:30:02 2017
Module time:
	user time   =    1212.93 seconds =      20.22 minutes
	system time =      53.26 seconds =       0.89 minutes
	total time  =        529 seconds =       8.82 minutes
Total time:
	user time   =    1212.93 seconds =      20.22 minutes
	system time =      53.26 seconds =       0.89 minutes
	total time  =        529 seconds =       8.82 minutes

  //>>>>>>>>>>>>>>>>>>>>>>>>>>>>>>>>>>>//
  //               DFMP2               //
  //<<<<<<<<<<<<<<<<<<<<<<<<<<<<<<<<<<<//

   => Loading Basis Set <=

    Name: (AUG-CC-PVTZ AUX)
    Role: RIFIT
    Keyword: DF_BASIS_MP2
    atoms 1-11  entry C          line   147 file /cbio/jclab/home/chayas/anaconda/envs/py35/share/psi4/basis/aug-cc-pvtz-ri.gbs 
    atoms 12    entry N          line   205 file /cbio/jclab/home/chayas/anaconda/envs/py35/share/psi4/basis/aug-cc-pvtz-ri.gbs 
    atoms 13    entry O          line   263 file /cbio/jclab/home/chayas/anaconda/envs/py35/share/psi4/basis/aug-cc-pvtz-ri.gbs 
    atoms 14    entry F          line   321 file /cbio/jclab/home/chayas/anaconda/envs/py35/share/psi4/basis/aug-cc-pvtz-ri.gbs 
    atoms 15-22 entry H          line    29 file /cbio/jclab/home/chayas/anaconda/envs/py35/share/psi4/basis/aug-cc-pvtz-ri.gbs 

	 --------------------------------------------------------
	                          DF-MP2                         
	      2nd-Order Density-Fitted Moller-Plesset Theory     
	              RMP2 Wavefunction,   8 Threads             
	                                                         
	        Rob Parrish, Justin Turney, Andy Simmonett,      
	           Ed Hohenstein, and C. David Sherrill          
	 --------------------------------------------------------

   => Auxiliary Basis Set <=

  Basis Set: (AUG-CC-PVTZ AUX)
    Blend: AUG-CC-PVTZ-RI
    Number of shells: 504
    Number of basis function: 1852
    Number of Cartesian functions: 2344
    Spherical Harmonics?: true
    Max angular momentum: 4

	 --------------------------------------------------------
	                 NBF =   828, NAUX =  1852
	 --------------------------------------------------------
	   CLASS    FOCC     OCC    AOCC    AVIR     VIR    FVIR
	   PAIRS       0      49      49     779     779       0
	 --------------------------------------------------------


         ------------------------------------------------------------
                                     CPHF                           
                                  Rob Parrish                       
         ------------------------------------------------------------

  ==> Geometry <==

    Molecular point group: c1
    Full point group: C1

    Geometry (in Angstrom), charge = 0, multiplicity = 1:

       Center              X                  Y                   Z               Mass       
    ------------   -----------------  -----------------  -----------------  -----------------
           C         -1.321828158076     0.754794664288    -0.799711963947    12.000000000000
           C         -2.399828158076     1.327794664288    -0.126711963947    12.000000000000
           C          0.648171841924    -0.980205335712    -2.048711963947    12.000000000000
           C          2.091171841924    -0.459205335712    -0.195711963947    12.000000000000
           C         -1.406828158076     0.711794664288     1.988288036053    12.000000000000
           C          1.749171841924    -1.535205335712    -2.679711963947    12.000000000000
           C          3.127171841924    -1.038205335712    -0.909711963947    12.000000000000
           C         -0.285828158076     0.159794664288    -0.079711963947    12.000000000000
           C          0.831171841924    -0.434205335712    -0.782711963947    12.000000000000
           C         -2.442828158076     1.306794664288     1.267288036053    12.000000000000
           C         -0.328828158076     0.138794664288     1.314288036053    12.000000000000
           N          2.989171841924    -1.578205335712    -2.141711963947    14.003074004780
           O         -3.495828158076     1.866794664288     1.924288036053    15.994914619560
           F          0.659171841924    -0.429205335712     2.021288036053    18.998403224000
           H         -1.302828158076     0.778794664288    -1.886711963947     1.007825032070
           H         -3.204828158076     1.788794664288    -0.693711963947     1.007825032070
           H         -0.319828158076    -0.977205335712    -2.539711963947     1.007825032070
           H          2.271171841924    -0.044205335712     0.791288036053     1.007825032070
           H         -1.434828158076     0.691794664288     3.074288036053     1.007825032070
           H          1.660171841924    -1.972205335712    -3.668711963947     1.007825032070
           H          4.129171841924    -1.084205335712    -0.495711963947     1.007825032070
           H         -3.381828158076     1.772794664288     2.883288036053     1.007825032070

  Nuclear repulsion =  816.512120527478146
  Reference energy  = -650.169306807162570

  ==> Basis Set <==

  Basis Set: AUG-CC-PVTZ
    Blend: AUG-CC-PVTZ
    Number of shells: 268
    Number of basis function: 828
    Number of Cartesian functions: 970
    Spherical Harmonics?: true
    Max angular momentum: 3

  ==> CGRSolver (by Rob Parrish) <==

   Number of roots    =         1
   Preconditioning    =    JACOBI
   Convergence cutoff =     1E-06
   Maximum iterations =       100

  ==> CPHFRHamiltonian (by Rob Parrish) <== 

  ==> DFJK: Density-Fitted J/K Matrices <==

    J tasked:                  Yes
    K tasked:                  Yes
    wK tasked:                  No
    OpenMP threads:              8
    Integrals threads:           8
    Memory (MB):              3576
    Algorithm:                Disk
    Integral Cache:           NONE
    Schwarz Cutoff:          1E-12
    Fitting Condition:       1E-12

   => Auxiliary Basis Set <=

  Basis Set: (AUG-CC-PVTZ AUX)
    Blend: AUG-CC-PVTZ-JKFIT
    Number of shells: 532
    Number of basis function: 1824
    Number of Cartesian functions: 2274
    Spherical Harmonics?: true
    Max angular momentum: 4

  ==> CPHF Iterations <==

  => Iterations <=

             Iter  Converged  Remaining    Residual
  CGR           1          0          1   1.046E-01
  CGR           2          0          1   3.633E-02
  CGR           3          0          1   2.479E-02
  CGR           4          0          1   1.056E-02
  CGR           5          0          1   4.454E-03
  CGR           6          0          1   1.688E-03
  CGR           7          0          1   4.873E-04
  CGR           8          0          1   1.599E-04
  CGR           9          0          1   5.261E-05
  CGR          10          0          1   1.624E-05
  CGR          11          0          1   7.783E-06
  CGR          12          0          1   3.247E-06
  CGR          13          0          1   1.598E-06
  CGR          14          1          0   5.690E-07

    CGRSolver converged.

  ==> DFCorrGrad: Density-Fitted Correlated Gradients <==

    OpenMP threads:              8
    Integrals threads:           8
    Memory (MB):              3576
    Schwarz Cutoff:          0E+00
    Fitting Condition:       1E-12

   => Auxiliary Basis Set <=

  Basis Set: (AUG-CC-PVTZ AUX)
    Blend: AUG-CC-PVTZ-JKFIT
    Number of shells: 532
    Number of basis function: 1824
    Number of Cartesian functions: 2274
    Spherical Harmonics?: true
    Max angular momentum: 4

	-----------------------------------------------------------
	 ==================> DF-MP2 Energies <==================== 
	-----------------------------------------------------------
	 Reference Energy          =    -650.1693068071625703 [Eh]
	 Singles Energy            =      -0.0000000000000001 [Eh]
	 Same-Spin Energy          =      -0.6787378837133332 [Eh]
	 Opposite-Spin Energy      =      -2.0208231357623214 [Eh]
	 Correlation Energy        =      -2.6995610194756545 [Eh]
	 Total Energy              =    -652.8688678266382794 [Eh]
	-----------------------------------------------------------
	 ================> DF-SCS-MP2 Energies <================== 
	-----------------------------------------------------------
	 SCS Same-Spin Scale       =       0.3333333333333333 [-]
	 SCS Opposite-Spin Scale   =       1.2000000000000000 [-]
	 SCS Same-Spin Energy      =      -0.2262459612377777 [Eh]
	 SCS Opposite-Spin Energy  =      -2.4249877629147858 [Eh]
	 SCS Correlation Energy    =      -2.6512337241525636 [Eh]
	 SCS Total Energy          =    -652.8205405313151459 [Eh]
	-----------------------------------------------------------


  -Total Gradient:
     Atom            X                  Y                   Z
    ------   -----------------  -----------------  -----------------
       1        0.012636339950    -0.004418392159    -0.016072901174
       2        0.002994331692    -0.001402159336     0.004715747907
       3       -0.009483242929     0.001843275662     0.001958345257
       4       -0.009339806242     0.004033520607     0.006120098296
       5       -0.008606014278     0.004877970134     0.001115600200
       6       -0.013085595023     0.001685130102    -0.000202614746
       7       -0.003164154276     0.005926435413     0.012585490955
       8       -0.006624166443     0.003233996110     0.001234145471
       9        0.003766143977    -0.001250050522    -0.003332894995
      10       -0.008185781675     0.005143300848    -0.005407356852
      11        0.024452455796    -0.016414648674     0.004912604702
      12        0.013028037981    -0.006069003190    -0.008427230354
      13        0.002454577358    -0.001573215996     0.000662252283
      14        0.007614318440     0.000994966016    -0.005235938391
      15       -0.002136237381    -0.000534534908    -0.007392915641
      16       -0.003330590264     0.001602396878    -0.005417785710
      17       -0.004228160347     0.001480197709    -0.003627723819
      18       -0.000207371110     0.001718255486     0.010049229179
      19       -0.000937837584     0.000558395479     0.004346651311
      20        0.000610725450    -0.001057060201    -0.002496987801
      21        0.002912040662    -0.000727043947     0.000560621791
      22       -0.001140013771     0.000348268490     0.009353562145


*** tstop() called on gpu-2-10.local at Sat Nov 11 23:07:54 2017
Module time:
	user time   =    6092.97 seconds =     101.55 minutes
	system time =     116.86 seconds =       1.95 minutes
	total time  =       2801 seconds =      46.68 minutes
Total time:
	user time   =    6092.97 seconds =     101.55 minutes
	system time =     116.86 seconds =       1.95 minutes
	total time  =       2801 seconds =      46.68 minutes

			-----------------------------------------
			 OPTKING 2.0: for geometry optimizations 
			  - R.A. King,  Bethel University        
			-----------------------------------------

	Internal coordinates to be generated automatically.
	Detected frag 1 with atoms:  1 2 3 4 5 6 7 8 9 10 11 12 13 14 15 16 17 18 19 20
	 21 22
	---Fragment 1 Bond Connectivity---
	 1 : 2 8 15
	 2 : 1 10 16
	 3 : 6 9 17
	 4 : 7 9 18
	 5 : 10 11 19
	 6 : 3 12 20
	 7 : 4 12 21
	 8 : 1 9 11
	 9 : 3 4 8
	 10 : 2 5 13
	 11 : 5 8 14
	 12 : 6 7
	 13 : 10 22
	 14 : 11
	 15 : 1
	 16 : 2
	 17 : 3
	 18 : 4
	 19 : 5
	 20 : 6
	 21 : 7
	 22 : 13

	Assuming in current code that numbering for constraints corresponds to unified fragment.
	Fixed dihedral atom list: 
	     1     8     9     3
	---Fragment 1 Geometry and Gradient---
	 C          -2.4978932135        1.4263552021       -1.5112365971
	 C          -4.5350179848        2.5091682762       -0.2394509096
	 C           1.2248672683       -1.8523196385       -3.8715045370
	 C           3.9517420780       -0.8677723233       -0.3698420128
	 C          -2.6585199348        1.3450969784        3.7573198614
	 C           3.3054557406       -2.9011176422       -5.0639217269
	 C           5.9094983517       -1.9619237542       -1.7191064717
	 C          -0.5401369398        0.3019681530       -0.1506337814
	 C           1.5706871506       -0.8205291699       -1.4791112528
	 C          -4.6162762085        2.4694840274        2.3948273196
	 C          -0.6213951635        0.2622839042        2.4836444479
	 N           5.6487161454       -2.9823758660       -4.0472490674
	 O          -6.6061578264        3.5277306618        3.6363773889
	 F           1.2456542557       -0.8110805393        3.8196808238
	 H          -2.4619884170        1.4717086293       -3.5653689035
	 H          -6.0562475217        3.3803320235       -1.3109256270
	 H          -0.6043876283       -1.8466504601       -4.7993600683
	 H           4.2918927820       -0.0835359781        1.4953176804
	 H          -2.7114322665        1.3073024557        5.8095624417
	 H           3.1372701148       -3.7269279623       -6.9328608723
	 H           7.8030039369       -2.0488511563       -0.9367598527
	 H          -6.3907290472        3.3500964053        5.4486247504
	             0.0126363400       -0.0044183922       -0.0160729012
	             0.0029943317       -0.0014021593        0.0047157479
	            -0.0094832429        0.0018432757        0.0019583453
	            -0.0093398062        0.0040335206        0.0061200983
	            -0.0086060143        0.0048779701        0.0011156002
	            -0.0130855950        0.0016851301       -0.0002026147
	            -0.0031641543        0.0059264354        0.0125854910
	            -0.0066241664        0.0032339961        0.0012341455
	             0.0037661440       -0.0012500505       -0.0033328950
	            -0.0081857817        0.0051433008       -0.0054073569
	             0.0244524558       -0.0164146487        0.0049126047
	             0.0130280380       -0.0060690032       -0.0084272304
	             0.0024545774       -0.0015732160        0.0006622523
	             0.0076143184        0.0009949660       -0.0052359384
	            -0.0021362374       -0.0005345349       -0.0073929156
	            -0.0033305903        0.0016023969       -0.0054177857
	            -0.0042281603        0.0014801977       -0.0036277238
	            -0.0002073711        0.0017182555        0.0100492292
	            -0.0009378376        0.0005583955        0.0043466513
	             0.0006107254       -0.0010570602       -0.0024969878
	             0.0029120407       -0.0007270439        0.0005606218
	            -0.0011400138        0.0003482685        0.0093535621

	Previous optimization step data not found.  Starting new optimization.

	---Fragment 1 Intrafragment Coordinates---
	 - Coordinate -           - BOHR/RAD -       - ANG/DEG -
	 R(1,2)           =         2.634350	       1.394038
	 R(1,8)           =         2.635962	       1.394891
	 R(1,15)          =         2.054947	       1.087431
	 R(2,10)          =         2.635830	       1.394821
	 R(2,16)          =         2.054537	       1.087214
	 R(3,6)           =         2.617381	       1.385058
	 R(3,9)           =         2.628256	       1.390813
	 R(3,17)          =         2.051127	       1.085410
	 R(4,7)           =         2.617344	       1.385039
	 R(4,9)           =         2.627191	       1.390250
	 R(4,18)          =         2.051719	       1.085723
	 R(5,10)          =         2.636938	       1.395407
	 R(5,11)          =         2.635263	       1.394521
	 R(5,19)          =         2.053272	       1.086545
	 R(6,12)          =         2.555601	       1.352366
	 R(6,20)          =         2.050166	       1.084901
	 R(7,12)          =         2.555304	       1.352209
	 R(7,21)          =         2.050606	       1.085134
	 R(8,9)           =         2.735038	       1.447320
	 R(8,11)          =         2.635830	       1.394821
	 R(10,13)         =         2.573123	       1.361638
	 R(11,14)         =         2.534359	       1.341125
	 R(13,22)         =         1.833631	       0.970316
	 B(1,2,10)        =         2.094553	     120.009056
	 B(1,2,16)        =         2.088723	     119.675016
	 B(1,8,9)         =         2.091569	     119.838095
	 B(1,8,11)        =         2.093692	     119.959722
	 B(2,1,8)         =         2.094940	     120.031219
	 B(2,1,15)        =         2.079469	     119.144799
	 B(2,10,5)        =         2.094306	     119.994870
	 B(2,10,13)       =         2.094247	     119.991510
	 B(3,6,12)        =         2.165625	     124.081198
	 B(3,6,20)        =         2.107725	     120.763733
	 B(3,9,4)         =         2.090389	     119.770447
	 B(3,9,8)         =         2.096367	     120.112979
	 B(4,7,12)        =         2.165529	     124.075648
	 B(4,7,21)        =         2.107997	     120.779304
	 B(4,9,8)         =         2.096429	     120.116505
	 B(5,10,13)       =         2.094633	     120.013619
	 B(5,11,8)        =         2.095181	     120.045019
	 B(5,11,14)       =         2.081414	     119.256220
	 B(6,3,9)         =         2.057152	     117.866112
	 B(6,3,17)        =         2.098959	     120.261493
	 B(6,12,7)        =         2.030111	     116.316790
	 B(7,4,9)         =         2.057564	     117.889724
	 B(7,4,18)        =         2.099500	     120.292511
	 B(8,1,15)        =         2.108776	     120.823969
	 B(8,11,14)       =         2.106591	     120.698759
	 B(9,3,17)        =         2.127073	     121.872309
	 B(9,4,18)        =         2.126118	     121.817571
	 B(9,8,11)        =         2.097924	     120.202184
	 B(10,2,16)       =         2.099909	     120.315896
	 B(10,5,11)       =         2.093699	     119.960108
	 B(10,5,19)       =         2.100355	     120.341451
	 B(10,13,22)      =         1.924294	     110.253909
	 B(11,5,19)       =         2.089132	     119.698439
	 B(12,6,20)       =         2.009832	     115.154893
	 B(12,7,21)       =         2.009660	     115.145046
	 D(1,2,10,5)      =        -0.000325	      -0.018609
	 D(1,2,10,13)     =         3.141388	     179.988267
	 D(1,8,9,3)       =        -0.523848	     -30.014307
	 D(1,8,9,4)       =         2.616067	     149.889624
	 D(1,8,11,5)      =         0.000325	       0.018608
	 D(1,8,11,14)     =        -3.141528	    -179.996269
	 D(2,1,8,9)       =         3.141277	     179.981897
	 D(2,1,8,11)      =        -0.000348	      -0.019945
	 D(2,10,5,11)     =         0.000301	       0.017261
	 D(2,10,5,19)     =        -3.141029	    -179.967685
	 D(2,10,13,22)    =         3.141285	     179.982383
	 D(3,6,12,7)      =         0.001173	       0.067215
	 D(3,9,4,7)       =        -0.001023	      -0.058601
	 D(3,9,4,18)      =        -3.139828	    -179.898872
	 D(3,9,8,11)      =         2.617776	     149.987539
	 D(4,7,12,6)      =        -0.001780	      -0.101958
	 D(4,9,3,6)       =         0.000480	       0.027495
	 D(4,9,3,17)      =        -3.139256	    -179.866127
	 D(4,9,8,11)      =        -0.525493	     -30.108530
	 D(5,10,2,16)     =         3.140149	     179.917291
	 D(5,10,13,22)    =        -0.000187	      -0.010740
	 D(5,11,8,9)      =        -3.141300	    -179.983240
	 D(6,3,9,8)       =         3.140402	     179.931760
	 D(6,12,7,21)     =         3.140136	     179.916514
	 D(7,4,9,8)       =        -3.140944	    -179.962862
	 D(7,12,6,20)     =         3.140114	     179.915268
	 D(8,1,2,10)      =         0.000348	       0.019955
	 D(8,1,2,16)      =        -3.140133	    -179.916358
	 D(8,9,3,17)      =         0.000666	       0.038138
	 D(8,9,4,18)      =         0.003436	       0.196866
	 D(8,11,5,10)     =        -0.000301	      -0.017270
	 D(8,11,5,19)     =         3.141030	     179.967774
	 D(9,3,6,12)      =        -0.000571	      -0.032707
	 D(9,3,6,20)      =        -3.139370	    -179.872647
	 D(9,4,7,12)      =         0.001743	       0.099847
	 D(9,4,7,21)      =        -3.140190	    -179.919616
	 D(9,8,1,15)      =         0.000403	       0.023110
	 D(9,8,11,14)     =         0.000033	       0.001883
	 D(10,2,1,15)     =         3.141234	     179.979432
	 D(10,5,11,14)    =         3.141547	     179.997392
	 D(11,5,10,13)    =        -3.141411	    -179.989616
	 D(11,8,1,15)     =        -3.141221	    -179.978731
	 D(12,6,3,17)     =         3.139196	     179.862702
	 D(12,7,4,18)     =         3.140592	     179.942659
	 D(13,10,2,16)    =        -0.001324	      -0.075833
	 D(13,10,5,19)    =         0.000444	       0.025437
	 D(14,11,5,19)    =        -0.000307	      -0.017564
	 D(15,1,2,16)     =         0.000753	       0.043120
	 D(17,3,6,20)     =         0.000397	       0.022762
	 D(18,4,7,21)     =        -0.001340	      -0.076804
	 R(4,14)          =         4.987808	       2.639434

	Current energy   :      -652.8688678266

	Generating empirical Hessian (Schlegel '84) for each fragment.
	Adding user-defined constraint: Fragment 1; Coordinate 61:
		Value =    -0.523848; Fixed value    =    -0.523599
		Force =     0.000125; Force constant =     0.500000
	Removing off-diagonal coupling between coordinate 61 and others.
	Taking RFO optimization step.
	Going to follow RFO solution 1.
	Using RFO vector 1.

	Determining step-restricting scale parameter for RS-RFO.
	Maximum step size allowed    0.10000

	 Iter      |step|        alpha        rfo_root  
	------------------------------------------------
	    0     0.33811       1.00000           1
	    1     0.22890       3.95851           1
	    2     0.16527      11.12110           1
	    3     0.12715      24.91743           1
	    4     0.10735      40.81997           1
	    5     0.10078      48.76192           1
	    6     0.10001      49.80972           1
	    7     0.10000      49.82392           1
	------------------------------------------------
	Norm of target step-size    0.10000
	Projected energy change by RFO approximation:        -0.0051039058

	Back-transformation to cartesian coordinates...
	Could not converge backtransformation.
	Using first guess instead.

	--- Internal Coordinate Step in ANG or DEG, aJ/ANG or AJ/DEG ---
	 ---------------------------------------------------------------------------
	   Coordinate                Previous        Force       Change         New 
	   ----------                --------       ------       ------       ------
	    1 R(1,2)          =      1.394038    -0.064754    -0.005644     1.388394
	    2 R(1,8)          =      1.394891    -0.007149    -0.000267     1.394624
	    3 R(1,15)         =      1.087431    -0.060479    -0.006230     1.081201
	    4 R(2,10)         =      1.394821    -0.081506    -0.007194     1.387627
	    5 R(2,16)         =      1.087214    -0.049193    -0.005032     1.082182
	    6 R(3,6)          =      1.385058    -0.003386    -0.000340     1.384719
	    7 R(3,9)          =      1.390813     0.005907     0.001013     1.391826
	    8 R(3,17)         =      1.085410    -0.044621    -0.004569     1.080840
	    9 R(4,7)          =      1.385039     0.007136     0.000636     1.385675
	   10 R(4,9)          =      1.390250     0.019530     0.002171     1.392421
	   11 R(4,18)         =      1.085723    -0.080392    -0.008231     1.077492
	   12 R(5,10)         =      1.395407    -0.052959    -0.004700     1.390708
	   13 R(5,11)         =      1.394521    -0.111551    -0.009650     1.384871
	   14 R(5,19)         =      1.086545    -0.035907    -0.003620     1.082925
	   15 R(6,12)         =      1.352366    -0.127750    -0.010402     1.341964
	   16 R(6,20)         =      1.084901    -0.021849    -0.002240     1.082661
	   17 R(7,12)         =      1.352209    -0.123012    -0.009976     1.342233
	   18 R(7,21)         =      1.085134    -0.024169    -0.002483     1.082651
	   19 R(8,9)          =      1.447320     0.128255     0.012884     1.460204
	   20 R(8,11)         =      1.394821    -0.069853    -0.005669     1.389152
	   21 R(10,13)        =      1.361638    -0.027289    -0.002089     1.359549
	   22 R(11,14)        =      1.341125    -0.023327    -0.001731     1.339394
	   23 R(13,22)        =      0.970316    -0.074782    -0.005983     0.964333
	   24 B(1,2,10)       =    120.009056    -0.000133    -0.205339   119.803718
	   25 B(1,2,16)       =    119.675016     0.000277     0.473271   120.148287
	   26 B(1,8,9)        =    119.838095     0.000997     1.365743   121.203837
	   27 B(1,8,11)       =    119.959722    -0.001193    -1.751516   118.208206
	   28 B(2,1,8)        =    120.031219     0.000626     0.994167   121.025386
	   29 B(2,1,15)       =    119.144799    -0.000184    -0.273276   118.871524
	   30 B(2,10,5)       =    119.994870    -0.000053    -0.092328   119.902543
	   31 B(2,10,13)      =    119.991510    -0.000737    -1.064529   118.926981
	   32 B(3,6,12)       =    124.081198     0.000007    -0.055030   124.026168
	   33 B(3,6,20)       =    120.763733    -0.000066    -0.082791   120.680942
	   34 B(3,9,4)        =    119.770447    -0.001072    -1.481766   118.288681
	   35 B(3,9,8)        =    120.112979     0.000545     0.700380   120.813358
	   36 B(4,7,12)       =    124.075648     0.000125     0.147245   124.222894
	   37 B(4,7,21)       =    120.779304    -0.000125    -0.184322   120.594982
	   38 B(4,9,8)        =    120.116505     0.000527     0.781181   120.897687
	   39 B(5,10,13)      =    120.013619     0.000790     1.156857   121.170476
	   40 B(5,11,8)       =    120.045019     0.000963     1.389417   121.434436
	   41 B(5,11,14)      =    119.256220    -0.000247    -0.414844   118.841376
	   42 B(6,3,9)        =    117.866112     0.000514     0.840052   118.706164
	   43 B(6,3,17)       =    120.261493    -0.000219    -0.355084   119.906409
	   44 B(6,12,7)       =    116.316790     0.000103    -0.012016   116.304774
	   45 B(7,4,9)        =    117.889724     0.000321     0.561567   118.451291
	   46 B(7,4,18)       =    120.292511    -0.000263    -0.465067   119.827444
	   47 B(8,1,15)       =    120.823969    -0.000442    -0.721067   120.102902
	   48 B(8,11,14)      =    120.698759    -0.000716    -0.975257   119.723502
	   49 B(9,3,17)       =    121.872309    -0.000296    -0.484940   121.387369
	   50 B(9,4,18)       =    121.817571    -0.000058    -0.096499   121.721072
	   51 B(9,8,11)       =    120.202184     0.000196     0.385627   120.587811
	   52 B(10,2,16)      =    120.315896    -0.000144    -0.267908   120.047988
	   53 B(10,5,11)      =    119.960108    -0.000211    -0.334449   119.625659
	   54 B(10,5,19)      =    120.341451     0.000186     0.307876   120.649327
	   55 B(10,13,22)     =    110.253909    -0.000356    -0.625906   109.628003
	   56 B(11,5,19)      =    119.698439     0.000025     0.026551   119.724990
	   57 B(12,6,20)      =    115.154893     0.000059     0.137965   115.292858
	   58 B(12,7,21)      =    115.145046     0.000000     0.037045   115.182090
	   59 D(1,2,10,5)     =     -0.018609     0.000002     0.018609     0.000000
	   60 D(1,2,10,13)    =    179.988267     0.000001     0.019332   180.007599
	   61 D(1,8,9,3)      =    -30.014307    -0.000019    -0.141679   -30.155986
	   62 D(1,8,9,4)      =    149.889624    -0.000023    -0.239423   149.650201
	   63 D(1,8,11,5)     =      0.018608     0.000001    -0.011458     0.007149
	   64 D(1,8,11,14)    =   -179.996269    -0.000024    -0.301375  -180.297644
	   65 D(2,1,8,9)      =    179.981897    -0.000004    -0.066223   179.915673
	   66 D(2,1,8,11)     =     -0.019945     0.000005     0.073892     0.053947
	   67 D(2,10,5,11)    =      0.017261     0.000003     0.042756     0.060018
	   68 D(2,10,5,19)    =   -179.967685     0.000006     0.083930  -179.883755
	   69 D(2,10,13,22)   =    179.982383     0.000000    -0.003397   179.978987
	   70 D(3,6,12,7)     =      0.067215    -0.000003    -0.042610     0.024605
	   71 D(3,9,4,7)      =     -0.058601     0.000003     0.012423    -0.046177
	   72 D(3,9,4,18)     =   -179.898872    -0.000025    -0.307119  -180.205992
	   73 D(3,9,8,11)     =    149.987539    -0.000028    -0.285073   149.702465
	   74 D(4,7,12,6)     =     -0.101958     0.000008     0.095392    -0.006566
	   75 D(4,9,3,6)      =      0.027495     0.000001     0.035076     0.062571
	   76 D(4,9,3,17)     =   -179.866127    -0.000016    -0.159204  -180.025331
	   77 D(4,9,8,11)     =    -30.108530    -0.000032    -0.382818   -30.491348
	   78 D(5,10,2,16)    =    179.917291     0.000005     0.052468   179.969760
	   79 D(5,10,13,22)   =     -0.010740    -0.000001    -0.002348    -0.013088
	   80 D(5,11,8,9)     =   -179.983240     0.000009     0.127777  -179.855463
	   81 D(6,3,9,8)      =    179.931760    -0.000003    -0.058054   179.873706
	   82 D(6,12,7,21)    =    179.916514     0.000012     0.143940   180.060454
	   83 D(7,4,9,8)      =   -179.962862     0.000007     0.105716  -179.857147
	   84 D(7,12,6,20)    =    179.915268     0.000005     0.044774   179.960042
	   85 D(8,1,2,10)     =      0.019955    -0.000006    -0.077622    -0.057668
	   86 D(8,1,2,16)     =   -179.916358    -0.000009    -0.111263  -180.027621
	   87 D(8,9,3,17)     =      0.038138    -0.000020    -0.252333    -0.214195
	   88 D(8,9,4,18)     =      0.196866    -0.000021    -0.213827    -0.016961
	   89 D(8,11,5,10)    =     -0.017270    -0.000005    -0.046640    -0.063910
	   90 D(8,11,5,19)    =    179.967774    -0.000008    -0.087386   179.880388
	   91 D(9,3,6,12)     =     -0.032707    -0.000001    -0.021087    -0.053794
	   92 D(9,3,6,20)     =   -179.872647    -0.000009    -0.113273  -179.985919
	   93 D(9,4,7,12)     =      0.099847    -0.000008    -0.081357     0.018490
	   94 D(9,4,7,21)     =   -179.919616    -0.000012    -0.132353  -180.051969
	   95 D(9,8,1,15)     =      0.023110    -0.000021    -0.266897    -0.243787
	   96 D(9,8,11,14)    =      0.001883    -0.000016    -0.162140    -0.160257
	   97 D(10,2,1,15)    =    179.979432     0.000011     0.120433   180.099866
	   98 D(10,5,11,14)   =    179.997392     0.000020     0.240871   180.238263
	   99 D(11,5,10,13)   =   -179.989616     0.000004     0.041631  -179.947984
	  100 D(11,8,1,15)    =   -179.978731    -0.000013    -0.126781  -180.105512
	  101 D(12,6,3,17)    =    179.862702     0.000016     0.170069   180.032772
	  102 D(12,7,4,18)    =    179.942659     0.000020     0.232531   180.175190
	  103 D(13,10,2,16)   =     -0.075833     0.000004     0.053415    -0.022418
	  104 D(13,10,5,19)   =      0.025437     0.000007     0.082805     0.108243
	  105 D(14,11,5,19)   =     -0.017564     0.000017     0.200125     0.182561
	  106 D(15,1,2,16)    =      0.043120     0.000008     0.086793     0.129912
	  107 D(17,3,6,20)    =      0.022762     0.000007     0.077884     0.100646
	  108 D(18,4,7,21)    =     -0.076804     0.000016     0.181535     0.104730
	  109 R(4,14)         =      2.639434     0.086824     0.018141     2.657575
	 ---------------------------------------------------------------------------
	Successfully symmetrized geometry.
	 Forces used to impose fixed constraints are not included.
	  Forces zeroed: 61 

  ==> Convergence Check <==

  Measures of convergence in internal coordinates in au.
  Criteria marked as inactive (o), active & met (*), and active & unmet ( ).
  --------------------------------------------------------------------------------------------- ~
   Step     Total Energy     Delta E     MAX Force     RMS Force      MAX Disp      RMS Disp    ~
  --------------------------------------------------------------------------------------------- ~
    Convergence Criteria    1.00e-06 *    3.00e-04 *             o    1.20e-03 *             o  ~
  --------------------------------------------------------------------------------------------- ~
      1    -652.86886783   -6.53e+02      1.57e-02      5.34e-03 o    3.43e-02      9.59e-03 o  ~
  ---------------------------------------------------------------------------------------------

	Writing optimization data to binary file.
	Structure for next step:
	Cartesian Geometry (in Angstrom)
	    C    -1.3409597727   0.7689307049  -0.7786659933
	    C    -2.4134747236   1.3388682688  -0.1059685430
	    C     0.6723737192  -0.9910535263  -2.0514307194
	    C     2.1027994067  -0.4657715395  -0.2099975630
	    C    -1.4154271362   0.7134000481   1.9907818080
	    C     1.7732376219  -1.5482274067  -2.6800020191
	    C     3.1384246071  -1.0471269509  -0.9238605413
	    C    -0.2936657594   0.1664985021  -0.0820830460
	    C     0.8352983851  -0.4356914284  -0.7856469830
	    C    -2.4511206050   1.3112597572   1.2808727704
	    C    -0.3517386353   0.1502132535   1.3057588434
	    N     3.0030965868  -1.5885555168  -2.1445695315
	    O    -3.5098602485   1.8745210990   1.9213250837
	    F     0.6348491485  -0.4257035858   2.0050021527
	    H    -1.3262178837   0.8004044984  -1.8593080449
	    H    -3.2183758307   1.8030439982  -0.6607598443
	    H    -0.2892905291  -0.9952536865  -2.5447868100
	    H     2.2920183629  -0.0491271924   0.7654987277
	    H    -1.4333721992   0.6833642669   3.0731410290
	    H     1.6828347822  -1.9887314781  -3.6648565943
	    H     4.1378834562  -1.0886014366  -0.5097412387
	    H    -3.3995322308   1.7798219654   2.8746338500
			--------------------------
			 OPTKING Finished Execution 
			--------------------------

    Structure for next step:
    Molecular point group: c1
    Full point group: C1

    Geometry (in Angstrom), charge = 0, multiplicity = 1:

    C           -1.338191015597     0.768198831451    -0.777416933371
    C           -2.410705966461     1.338136395312    -0.104719483059
    C            0.675142476344    -0.991785399788    -2.050181659422
    C            2.105568163771    -0.466503412967    -0.208748502991
    C           -1.412658379098     0.712668174614     1.992030867970
    C            1.776006378983    -1.548959280138    -2.678752959170
    C            3.141193364256    -1.047858824393    -0.922611481372
    C           -0.290897002270     0.165766628605    -0.080833985993
    C            0.838067142204    -0.436423301875    -0.784397923072
    C           -2.448351847934     1.310527883764     1.282121830411
    C           -0.348969878199     0.149481380069     1.307007903362
    N            3.005865343881    -1.589287390203    -2.143320471510
    O           -3.507091491374     1.873789225585     1.922574143663
    F            0.637617905655    -0.426435459206     2.006251212655
    H           -1.323449126586     0.799672624952    -1.858058984924
    H           -3.215607073560     1.802312124705    -0.659510784321
    H           -0.286521771966    -0.995985559997    -2.543537750014
    H            2.294787119973    -0.049859065843     0.766747787703
    H           -1.430603442107     0.682632393480     3.074390088927
    H            1.685603539329    -1.989463351551    -3.663607534286
    H            4.140652213333    -1.089333310099    -0.508492178744
    H           -3.396763473735     1.779090091938     2.875882909974

gradient() will perform analytic gradient computation.

*** tstart() called on gpu-2-10.local
*** at Sat Nov 11 23:07:56 2017

    SCF Algorithm Type (re)set to DF.

*** tstart() called on gpu-2-10.local
*** at Sat Nov 11 23:07:56 2017

   => Loading Basis Set <=

    Name: AUG-CC-PVTZ
    Role: ORBITAL
    Keyword: BASIS
    atoms 1-11  entry C          line   221 file /cbio/jclab/home/chayas/anaconda/envs/py35/share/psi4/basis/aug-cc-pvtz.gbs 
    atoms 12    entry N          line   267 file /cbio/jclab/home/chayas/anaconda/envs/py35/share/psi4/basis/aug-cc-pvtz.gbs 
    atoms 13    entry O          line   313 file /cbio/jclab/home/chayas/anaconda/envs/py35/share/psi4/basis/aug-cc-pvtz.gbs 
    atoms 14    entry F          line   359 file /cbio/jclab/home/chayas/anaconda/envs/py35/share/psi4/basis/aug-cc-pvtz.gbs 
    atoms 15-22 entry H          line    34 file /cbio/jclab/home/chayas/anaconda/envs/py35/share/psi4/basis/aug-cc-pvtz.gbs 


         ---------------------------------------------------------
                                   SCF
            by Justin Turney, Rob Parrish, and Andy Simmonett
                              RHF Reference
                        8 Threads,   4768 MiB Core
         ---------------------------------------------------------

  ==> Geometry <==

    Molecular point group: c1
    Full point group: C1

    Geometry (in Angstrom), charge = 0, multiplicity = 1:

       Center              X                  Y                   Z               Mass       
    ------------   -----------------  -----------------  -----------------  -----------------
           C         -1.338191015597     0.768198831451    -0.777416933371    12.000000000000
           C         -2.410705966461     1.338136395312    -0.104719483059    12.000000000000
           C          0.675142476344    -0.991785399788    -2.050181659422    12.000000000000
           C          2.105568163771    -0.466503412967    -0.208748502991    12.000000000000
           C         -1.412658379098     0.712668174614     1.992030867970    12.000000000000
           C          1.776006378983    -1.548959280138    -2.678752959170    12.000000000000
           C          3.141193364256    -1.047858824393    -0.922611481372    12.000000000000
           C         -0.290897002270     0.165766628605    -0.080833985993    12.000000000000
           C          0.838067142204    -0.436423301875    -0.784397923072    12.000000000000
           C         -2.448351847934     1.310527883764     1.282121830411    12.000000000000
           C         -0.348969878199     0.149481380069     1.307007903362    12.000000000000
           N          3.005865343881    -1.589287390203    -2.143320471510    14.003074004780
           O         -3.507091491374     1.873789225585     1.922574143663    15.994914619560
           F          0.637617905655    -0.426435459206     2.006251212655    18.998403224000
           H         -1.323449126586     0.799672624952    -1.858058984924     1.007825032070
           H         -3.215607073560     1.802312124705    -0.659510784321     1.007825032070
           H         -0.286521771966    -0.995985559997    -2.543537750014     1.007825032070
           H          2.294787119973    -0.049859065843     0.766747787703     1.007825032070
           H         -1.430603442107     0.682632393480     3.074390088927     1.007825032070
           H          1.685603539329    -1.989463351551    -3.663607534286     1.007825032070
           H          4.140652213333    -1.089333310099    -0.508492178744     1.007825032070
           H         -3.396763473735     1.779090091938     2.875882909974     1.007825032070

  Running in c1 symmetry.

  Rotational constants: A =      0.06431  B =      0.01333  C =      0.01127 [cm^-1]
  Rotational constants: A =   1927.94718  B =    399.66006  C =    337.88378 [MHz]
  Nuclear repulsion =  816.516924047877524

  Charge       = 0
  Multiplicity = 1
  Electrons    = 98
  Nalpha       = 49
  Nbeta        = 49

  ==> Algorithm <==

  SCF Algorithm Type is DF.
  DIIS enabled.
  MOM disabled.
  Fractional occupation disabled.
  Guess Type is READ.
  Energy threshold   = 1.00e-10
  Density threshold  = 1.00e-10
  Integral threshold = 0.00e+00

  ==> Primary Basis <==

  Basis Set: AUG-CC-PVTZ
    Blend: AUG-CC-PVTZ
    Number of shells: 268
    Number of basis function: 828
    Number of Cartesian functions: 970
    Spherical Harmonics?: true
    Max angular momentum: 3

   => Loading Basis Set <=

    Name: (AUG-CC-PVTZ AUX)
    Role: JKFIT
    Keyword: DF_BASIS_SCF
    atoms 1-11  entry C          line   161 file /cbio/jclab/home/chayas/anaconda/envs/py35/share/psi4/basis/aug-cc-pvtz-jkfit.gbs 
    atoms 12    entry N          line   223 file /cbio/jclab/home/chayas/anaconda/envs/py35/share/psi4/basis/aug-cc-pvtz-jkfit.gbs 
    atoms 13    entry O          line   285 file /cbio/jclab/home/chayas/anaconda/envs/py35/share/psi4/basis/aug-cc-pvtz-jkfit.gbs 
    atoms 14    entry F          line   347 file /cbio/jclab/home/chayas/anaconda/envs/py35/share/psi4/basis/aug-cc-pvtz-jkfit.gbs 
    atoms 15-22 entry H          line    69 file /cbio/jclab/home/chayas/anaconda/envs/py35/share/psi4/basis/aug-cc-pvtz-jkfit.gbs 

  Reading orbitals from file 180, no projection.

  ==> Pre-Iterations <==

   -------------------------------------------------------
    Irrep   Nso     Nmo     Nalpha   Nbeta   Ndocc  Nsocc
   -------------------------------------------------------
     A        828     828       0       0       0       0
   -------------------------------------------------------
    Total     828     828      49      49      49       0
   -------------------------------------------------------

  ==> Integral Setup <==

  ==> DFJK: Density-Fitted J/K Matrices <==

    J tasked:                  Yes
    K tasked:                  Yes
    wK tasked:                  No
    OpenMP threads:              8
    Integrals threads:           8
    Memory (MB):              3576
    Algorithm:                Disk
    Integral Cache:           NONE
    Schwarz Cutoff:          1E-12
    Fitting Condition:       1E-12

   => Auxiliary Basis Set <=

  Basis Set: (AUG-CC-PVTZ AUX)
    Blend: AUG-CC-PVTZ-JKFIT
    Number of shells: 532
    Number of basis function: 1824
    Number of Cartesian functions: 2274
    Spherical Harmonics?: true
    Max angular momentum: 4

  Minimum eigenvalue in the overlap matrix is 6.4517588731E-07.
  Using Symmetric Orthogonalization.

  SCF Guess: Orbitals guess was supplied from a previous computation.

  ==> Iterations <==

                           Total Energy        Delta E     RMS |[F,P]|

   @DF-RHF iter   0:  -650.27629008181032   -6.50276e+02   5.45911e-04 
   @DF-RHF iter   1:  -650.17547655321857    1.00814e-01   1.29038e-04 
   @DF-RHF iter   2:  -650.17600425142314   -5.27698e-04   8.44900e-05 DIIS
   @DF-RHF iter   3:  -650.17642212277815   -4.17871e-04   1.33008e-05 DIIS
   @DF-RHF iter   4:  -650.17643095307994   -8.83030e-06   3.90200e-06 DIIS
   @DF-RHF iter   5:  -650.17643278072273   -1.82764e-06   1.53985e-06 DIIS
   @DF-RHF iter   6:  -650.17643307232242   -2.91600e-07   7.13788e-07 DIIS
   @DF-RHF iter   7:  -650.17643318145485   -1.09132e-07   3.43788e-07 DIIS
   @DF-RHF iter   8:  -650.17643321160131   -3.01465e-08   1.35597e-07 DIIS
   @DF-RHF iter   9:  -650.17643321512946   -3.52816e-09   4.26901e-08 DIIS
   @DF-RHF iter  10:  -650.17643321545813   -3.28669e-10   1.24247e-08 DIIS
   @DF-RHF iter  11:  -650.17643321550725   -4.91127e-11   4.51175e-09 DIIS
   @DF-RHF iter  12:  -650.17643321550486    2.38742e-12   1.80017e-09 DIIS
   @DF-RHF iter  13:  -650.17643321550963   -4.77485e-12   7.08663e-10 DIIS
   @DF-RHF iter  14:  -650.17643321550986   -2.27374e-13   3.65568e-10 DIIS
   @DF-RHF iter  15:  -650.17643321550383    6.02540e-12   1.40434e-10 DIIS
   @DF-RHF iter  16:  -650.17643321551293   -9.09495e-12   7.17645e-11 DIIS

  ==> Post-Iterations <==

    Orbital Energies (a.u.)
    -----------------------

    Doubly Occupied:                                                      

       1A    -26.329679     2A    -20.611830     3A    -15.560109  
       4A    -11.350006     5A    -11.329032     6A    -11.271071  
       7A    -11.269323     8A    -11.267204     9A    -11.265400  
      10A    -11.255118    11A    -11.254157    12A    -11.244779  
      13A    -11.237130    14A    -11.232276    15A     -1.651909  
      16A     -1.429124    17A     -1.252801    18A     -1.185578  
      19A     -1.111106    20A     -1.045722    21A     -1.032414  
      22A     -1.023058    23A     -0.896305    24A     -0.880485  
      25A     -0.852786    26A     -0.828060    27A     -0.775354  
      28A     -0.753580    29A     -0.725063    30A     -0.717820  
      31A     -0.701972    32A     -0.671907    33A     -0.656713  
      34A     -0.639338    35A     -0.634426    36A     -0.615606  
      37A     -0.612289    38A     -0.594037    39A     -0.580561  
      40A     -0.547424    41A     -0.540250    42A     -0.538540  
      43A     -0.513818    44A     -0.500772    45A     -0.416363  
      46A     -0.401854    47A     -0.362587    48A     -0.346589  
      49A     -0.315630  

    Virtual:                                                              

      50A      0.021255    51A      0.028335    52A      0.034798  
      53A      0.039060    54A      0.044610    55A      0.046819  
      56A      0.056380    57A      0.057369    58A      0.074617  
      59A      0.078023    60A      0.081018    61A      0.082576  
      62A      0.090919    63A      0.094648    64A      0.097092  
      65A      0.102765    66A      0.103921    67A      0.109101  
      68A      0.110039    69A      0.112355    70A      0.116432  
      71A      0.119002    72A      0.123157    73A      0.128667  
      74A      0.131917    75A      0.133902    76A      0.136616  
      77A      0.140159    78A      0.143414    79A      0.144934  
      80A      0.150566    81A      0.152090    82A      0.154464  
      83A      0.162259    84A      0.165542    85A      0.171922  
      86A      0.174611    87A      0.179200    88A      0.182782  
      89A      0.184774    90A      0.196514    91A      0.203157  
      92A      0.211368    93A      0.215474    94A      0.220115  
      95A      0.221329    96A      0.225499    97A      0.227903  
      98A      0.235241    99A      0.240402   100A      0.241182  
     101A      0.246138   102A      0.246357   103A      0.249352  
     104A      0.254142   105A      0.261544   106A      0.265248  
     107A      0.270167   108A      0.271201   109A      0.276984  
     110A      0.277793   111A      0.279883   112A      0.287125  
     113A      0.293369   114A      0.297143   115A      0.299475  
     116A      0.304306   117A      0.305719   118A      0.313654  
     119A      0.317087   120A      0.320783   121A      0.324997  
     122A      0.327090   123A      0.331892   124A      0.336299  
     125A      0.342376   126A      0.347293   127A      0.349611  
     128A      0.356566   129A      0.359390   130A      0.365653  
     131A      0.375023   132A      0.379756   133A      0.384927  
     134A      0.388154   135A      0.393903   136A      0.397104  
     137A      0.400378   138A      0.405652   139A      0.415048  
     140A      0.418124   141A      0.421772   142A      0.425119  
     143A      0.428477   144A      0.430083   145A      0.434559  
     146A      0.440586   147A      0.442872   148A      0.446268  
     149A      0.449617   150A      0.455602   151A      0.460653  
     152A      0.462979   153A      0.465677   154A      0.467049  
     155A      0.469694   156A      0.476396   157A      0.479229  
     158A      0.486220   159A      0.489282   160A      0.495769  
     161A      0.499986   162A      0.500702   163A      0.505118  
     164A      0.507246   165A      0.510356   166A      0.511690  
     167A      0.512979   168A      0.517394   169A      0.526359  
     170A      0.527457   171A      0.531159   172A      0.533077  
     173A      0.533512   174A      0.538286   175A      0.541258  
     176A      0.546811   177A      0.550805   178A      0.552556  
     179A      0.561979   180A      0.564399   181A      0.570608  
     182A      0.574786   183A      0.583459   184A      0.587240  
     185A      0.592660   186A      0.598798   187A      0.605551  
     188A      0.610778   189A      0.617008   190A      0.621772  
     191A      0.629291   192A      0.639039   193A      0.641580  
     194A      0.648805   195A      0.652687   196A      0.661457  
     197A      0.663176   198A      0.684480   199A      0.686828  
     200A      0.688899   201A      0.691127   202A      0.697187  
     203A      0.706837   204A      0.713253   205A      0.718210  
     206A      0.724950   207A      0.729171   208A      0.732034  
     209A      0.735965   210A      0.736647   211A      0.744774  
     212A      0.751189   213A      0.753996   214A      0.764079  
     215A      0.766131   216A      0.773722   217A      0.778347  
     218A      0.783659   219A      0.794875   220A      0.800289  
     221A      0.805883   222A      0.809691   223A      0.820083  
     224A      0.823975   225A      0.826821   226A      0.828311  
     227A      0.835420   228A      0.848302   229A      0.849504  
     230A      0.855860   231A      0.861490   232A      0.865148  
     233A      0.872233   234A      0.876615   235A      0.880176  
     236A      0.882645   237A      0.886366   238A      0.891277  
     239A      0.898298   240A      0.902255   241A      0.906627  
     242A      0.909527   243A      0.920626   244A      0.923634  
     245A      0.929787   246A      0.933481   247A      0.938492  
     248A      0.939707   249A      0.945045   250A      0.951081  
     251A      0.957085   252A      0.961139   253A      0.966845  
     254A      0.969086   255A      0.969557   256A      0.975606  
     257A      0.981289   258A      0.986759   259A      0.991101  
     260A      0.996028   261A      0.997865   262A      1.006839  
     263A      1.012224   264A      1.018254   265A      1.022140  
     266A      1.026309   267A      1.027196   268A      1.029452  
     269A      1.032764   270A      1.036879   271A      1.040333  
     272A      1.046804   273A      1.050735   274A      1.052486  
     275A      1.060092   276A      1.066496   277A      1.071740  
     278A      1.076135   279A      1.077644   280A      1.082620  
     281A      1.084606   282A      1.092829   283A      1.095456  
     284A      1.100695   285A      1.101590   286A      1.112605  
[...]
	 B(1,8,9)         =         2.112506	     121.037704
	 B(1,8,11)        =         2.017909	     115.617680
	 B(2,1,8)         =         2.139700	     122.595806
	 B(2,1,15)        =         2.074900	     118.883028
	 B(2,10,5)        =         2.087177	     119.586407
	 B(2,10,13)       =         2.052530	     117.601285
	 B(3,6,12)        =         2.158894	     123.695511
	 B(3,6,20)        =         2.094230	     119.990537
	 B(3,9,4)         =         2.033916	     116.534817
	 B(3,9,8)         =         2.105044	     120.610124
	 B(4,7,12)        =         2.163834	     123.978532
	 B(4,7,21)        =         2.091045	     119.808048
	 B(4,9,8)         =         2.143116	     122.791491
	 B(5,10,13)       =         2.143479	     122.812292
	 B(5,11,8)        =         2.153737	     123.400013
	 B(5,11,14)       =         2.038973	     116.824539
	 B(6,3,9)         =         2.091185	     119.816075
	 B(6,3,17)        =         2.086592	     119.552901
	 B(6,12,7)        =         2.032731	     116.466879
	 B(7,4,9)         =         2.085800	     119.507542
	 B(7,4,18)        =         2.088519	     119.663317
	 B(8,1,15)        =         2.068006	     118.487995
	 B(8,11,14)       =         2.090104	     119.754110
	 B(9,3,17)        =         2.104976	     120.606224
	 B(9,4,18)        =         2.108711	     120.820261
	 B(9,8,11)        =         2.152141	     123.308622
	 B(10,2,16)       =         2.081307	     119.250118
	 B(10,5,11)       =         2.079884	     119.168553
	 B(10,5,19)       =         2.128270	     121.940861
	 B(10,13,22)      =         1.907815	     109.309723
	 B(11,5,19)       =         2.074985	     118.887871
	 B(12,6,20)       =         2.030057	     116.313704
	 B(12,7,21)       =         2.028299	     116.212950
	 D(1,2,10,5)      =        -0.001505	      -0.086208
	 D(1,2,10,13)     =         3.139294	     179.868324
	 D(1,8,9,3)       =        -0.527487	     -30.222783
	 D(1,8,9,4)       =         2.561724	     146.776001
	 D(1,8,11,5)      =        -0.010579	      -0.606137
	 D(1,8,11,14)     =         3.100730	     177.658752
	 D(2,1,8,9)       =         3.118184	     178.658780
	 D(2,1,8,11)      =         0.013455	       0.770927
	 D(2,10,5,11)     =         0.004317	       0.247336
	 D(2,10,5,19)     =        -3.126693	    -179.146292
	 D(2,10,13,22)    =        -3.139544	    -179.882646
	 D(3,6,12,7)      =         0.000637	       0.036490
	 D(3,9,4,7)       =        -0.003854	      -0.220842
	 D(3,9,4,18)      =         3.118755	     178.691489
	 D(3,9,8,11)      =         2.574330	     147.498247
	 D(4,7,12,6)      =         0.000971	       0.055636
	 D(4,9,3,6)       =         0.005341	       0.306017
	 D(4,9,3,17)      =         3.115179	     178.486593
	 D(4,9,8,11)      =        -0.619644	     -35.502969
	 D(5,10,2,16)     =        -3.134196	    -179.576228
	 D(5,10,13,22)    =         0.001227	       0.070308
	 D(5,11,8,9)      =        -3.114377	    -178.440630
	 D(6,3,9,8)       =         3.097718	     177.486153
	 D(6,12,7,21)     =        -3.136245	    -179.693626
	 D(7,4,9,8)       =        -3.095059	    -177.333818
	 D(7,12,6,20)     =        -3.137787	    -179.781935
	 D(8,1,2,10)      =        -0.007830	      -0.448617
	 D(8,1,2,16)      =         3.124691	     179.031625
	 D(8,9,3,17)      =        -0.075630	      -4.333270
	 D(8,9,4,18)      =         0.027550	       1.578514
	 D(8,11,5,10)     =         0.002039	       0.116801
	 D(8,11,5,19)     =         3.133374	     179.529108
	 D(9,3,6,12)      =        -0.003927	      -0.225006
	 D(9,3,6,20)      =         3.134386	     179.587072
	 D(9,4,7,12)      =         0.000736	       0.042193
	 D(9,4,7,21)      =         3.137804	     179.782941
	 D(9,8,1,15)      =        -0.060410	      -3.461233
	 D(9,8,11,14)     =        -0.003067	      -0.175740
	 D(10,2,1,15)     =        -3.112281	    -178.320588
	 D(10,5,11,14)    =        -3.110093	    -178.195212
	 D(11,5,10,13)    =        -3.136439	    -179.704721
	 D(11,8,1,15)     =         3.118047	     178.650914
	 D(12,6,3,17)     =        -3.114101	    -178.424860
	 D(12,7,4,18)     =        -3.122095	    -178.882870
	 D(13,10,2,16)    =         0.006603	       0.378304
	 D(13,10,5,19)    =         0.015737	       0.901652
	 D(14,11,5,19)    =         0.021242	       1.217095
	 D(15,1,2,16)     =         0.020240	       1.159654
	 D(17,3,6,20)     =         0.024212	       1.387218
	 D(18,4,7,21)     =         0.014973	       0.857878
	 R(4,14)          =         5.365632	       2.839370

	Current energy   :      -652.8756610462

	Energy change for the previous step:
		Projected    :         0.0000019414
		Actual       :         0.0000001534

	Performing BFGS update.
	Previous computed or guess Hessian on step 1.
	Steps to be used in Hessian update: 7 6
	Adding user-defined constraint: Fragment 1; Coordinate 61:
		Value =    -0.527487; Fixed value    =    -0.523600
		Force =     0.002624; Force constant =     0.675000
	Removing off-diagonal coupling between coordinate 61 and others.
	Taking RFO optimization step.
	Going to follow RFO solution 1.
	Using RFO vector 1.
	Norm of target step-size    0.00601
	Projected energy change by RFO approximation:        -0.0000012989

	Back-transformation to cartesian coordinates...
	Could not converge backtransformation.
	Using first guess instead.

	--- Internal Coordinate Step in ANG or DEG, aJ/ANG or AJ/DEG ---
	 ---------------------------------------------------------------------------
	   Coordinate                Previous        Force       Change         New 
	   ----------                --------       ------       ------       ------
	    1 R(1,2)          =      1.381166     0.000088     0.000008     1.381174
	    2 R(1,8)          =      1.397610    -0.000233    -0.000023     1.397587
	    3 R(1,15)         =      1.079141     0.000082     0.000039     1.079180
	    4 R(2,10)         =      1.387781    -0.000198     0.000013     1.387795
	    5 R(2,16)         =      1.078017    -0.000002     0.000024     1.078041
	    6 R(3,6)          =      1.384817     0.000156     0.000006     1.384822
	    7 R(3,9)          =      1.393245    -0.000204    -0.000001     1.393244
	    8 R(3,17)         =      1.079223     0.000066     0.000035     1.079258
	    9 R(4,7)          =      1.385692    -0.000045     0.000002     1.385694
	   10 R(4,9)          =      1.393172     0.000056    -0.000005     1.393167
	   11 R(4,18)         =      1.077048     0.000022     0.000019     1.077067
	   12 R(5,10)         =      1.386059     0.000082     0.000018     1.386076
	   13 R(5,11)         =      1.379685    -0.000088     0.000028     1.379712
	   14 R(5,19)         =      1.079369     0.000049     0.000019     1.079388
	   15 R(6,12)         =      1.334908    -0.000187     0.000044     1.334952
	   16 R(6,20)         =      1.081091     0.000002     0.000007     1.081098
	   17 R(7,12)         =      1.334798     0.000048     0.000035     1.334833
	   18 R(7,21)         =      1.080965    -0.000004     0.000017     1.080981
	   19 R(8,9)          =      1.461724     0.000224    -0.000093     1.461631
	   20 R(8,11)         =      1.388992     0.000072    -0.000015     1.388977
	   21 R(10,13)        =      1.359067     0.000062     0.000017     1.359084
	   22 R(11,14)        =      1.347501    -0.000891     0.000006     1.347507
	   23 R(13,22)        =      0.962038     0.000012     0.000021     0.962059
	   24 B(1,2,10)       =    119.627321    -0.000001     0.000104   119.627425
	   25 B(1,2,16)       =    121.120551    -0.000001    -0.000820   121.119731
	   26 B(1,8,9)        =    121.037704    -0.000001     0.002499   121.040203
	   27 B(1,8,11)       =    115.617680     0.000001     0.009677   115.627357
	   28 B(2,1,8)        =    122.595806     0.000001    -0.004581   122.591225
	   29 B(2,1,15)       =    118.883028    -0.000001    -0.002019   118.881009
	   30 B(2,10,5)       =    119.586407    -0.000000     0.000659   119.587066
	   31 B(2,10,13)      =    117.601285     0.000001     0.004898   117.606183
	   32 B(3,6,12)       =    123.695511     0.000000     0.001996   123.697507
	   33 B(3,6,20)       =    119.990537    -0.000000    -0.001786   119.988751
	   34 B(3,9,4)        =    116.534817     0.000001     0.006567   116.541383
	   35 B(3,9,8)        =    120.610124    -0.000000    -0.001303   120.608821
	   36 B(4,7,12)       =    123.978532    -0.000000     0.001590   123.980122
	   37 B(4,7,21)       =    119.808048     0.000000    -0.000782   119.807266
	   38 B(4,9,8)        =    122.791491    -0.000000    -0.004973   122.786517
	   39 B(5,10,13)      =    122.812292    -0.000001    -0.005570   122.806722
	   40 B(5,11,8)       =    123.400013    -0.000003    -0.007244   123.392768
	   41 B(5,11,14)      =    116.824539     0.000002     0.005243   116.829782
	   42 B(6,3,9)        =    119.816075    -0.000000    -0.004388   119.811688
	   43 B(6,3,17)       =    119.552901    -0.000000    -0.001406   119.551496
	   44 B(6,12,7)       =    116.466879     0.000000    -0.002072   116.464807
	   45 B(7,4,9)        =    119.507542    -0.000000    -0.003596   119.503946
	   46 B(7,4,18)       =    119.663317    -0.000000    -0.002716   119.660601
	   47 B(8,1,15)       =    118.487995     0.000000     0.006771   118.494766
	   48 B(8,11,14)      =    119.754110     0.000001    -0.002403   119.751707
	   49 B(9,3,17)       =    120.606224     0.000001     0.006332   120.612556
	   50 B(9,4,18)       =    120.820261     0.000001     0.006322   120.826583
	   51 B(9,8,11)       =    123.308622    -0.000000    -0.012895   123.295727
	   52 B(10,2,16)      =    119.250118     0.000002     0.001117   119.251235
	   53 B(10,5,11)      =    119.168553     0.000002     0.001643   119.170196
	   54 B(10,5,19)      =    121.940861    -0.000003    -0.002295   121.938566
	   55 B(10,13,22)     =    109.309723     0.000000     0.003364   109.313087
	   56 B(11,5,19)      =    118.887871     0.000001     0.000635   118.888506
	   57 B(12,6,20)      =    116.313704     0.000000    -0.000663   116.313041
	   58 B(12,7,21)      =    116.212950    -0.000000    -0.001049   116.211901
	   59 D(1,2,10,5)     =     -0.086208     0.000000     0.050776    -0.035432
	   60 D(1,2,10,13)    =    179.868324     0.000000     0.035780   179.904104
	   61 D(1,8,9,3)      =    -30.222783     0.000002     0.029112   -30.193671
	   62 D(1,8,9,4)      =    146.776001     0.000001     0.036161   146.812163
	   63 D(1,8,11,5)     =     -0.606137    -0.000000     0.069574    -0.536563
	   64 D(1,8,11,14)    =    177.658752    -0.000001    -0.100931   177.557822
	   65 D(2,1,8,9)      =    178.658780    -0.000001    -0.035015   178.623765
	   66 D(2,1,8,11)     =      0.770927     0.000000    -0.013744     0.757183
	   67 D(2,10,5,11)    =      0.247336     0.000000     0.001857     0.249193
	   68 D(2,10,5,19)    =   -179.146292     0.000000     0.003704  -179.142588
	   69 D(2,10,13,22)   =   -179.882646    -0.000000    -0.000701  -179.883347
	   70 D(3,6,12,7)     =      0.036490    -0.000000    -0.084004    -0.047515
	   71 D(3,9,4,7)      =     -0.220842    -0.000000    -0.015030    -0.235872
	   72 D(3,9,4,18)     =    178.691489    -0.000000    -0.014481   178.677009
	   73 D(3,9,8,11)     =    147.498247     0.000001     0.006687   147.504934
	   74 D(4,7,12,6)     =      0.055636     0.000000     0.025115     0.080751
	   75 D(4,9,3,6)      =      0.306017     0.000000    -0.039084     0.266932
	   76 D(4,9,3,17)     =    178.486593     0.000000    -0.019260   178.467334
	   77 D(4,9,8,11)     =    -35.502969     0.000000     0.013736   -35.489233
	   78 D(5,10,2,16)    =   -179.576228    -0.000000    -0.002911  -179.579139
	   79 D(5,10,13,22)   =      0.070308    -0.000000    -0.016213     0.054095
	   80 D(5,11,8,9)     =   -178.440630     0.000001     0.091002  -178.349628
	   81 D(6,3,9,8)      =    177.486153    -0.000001    -0.032780   177.453373
	   82 D(6,12,7,21)    =   -179.693626     0.000001     0.082617  -179.611009
	   83 D(7,4,9,8)      =   -177.333818     0.000000    -0.021607  -177.355424
	   84 D(7,12,6,20)    =   -179.781935     0.000000     0.039673  -179.742262
	   85 D(8,1,2,10)     =     -0.448617    -0.000000    -0.044945    -0.493562
	   86 D(8,1,2,16)     =    179.031625    -0.000000     0.009781   179.041405
	   87 D(8,9,3,17)     =     -4.333270    -0.000001    -0.012956    -4.346226
	   88 D(8,9,4,18)     =      1.578514     0.000000    -0.021057     1.557457
	   89 D(8,11,5,10)    =      0.116801    -0.000000    -0.064958     0.051843
	   90 D(8,11,5,19)    =    179.529108    -0.000000    -0.066766   179.462342
	   91 D(9,3,6,12)     =     -0.225006     0.000000     0.093528    -0.131479
	   92 D(9,3,6,20)     =    179.587072    -0.000000    -0.034469   179.552604
	   93 D(9,4,7,12)     =      0.042193     0.000000     0.023357     0.065550
	   94 D(9,4,7,21)     =    179.782941    -0.000000    -0.036098   179.746843
	   95 D(9,8,1,15)     =     -3.461233    -0.000001    -0.029598    -3.490830
	   96 D(9,8,11,14)    =     -0.175740     0.000000    -0.079503    -0.255244
	   97 D(10,2,1,15)    =   -178.320588    -0.000000    -0.050560  -178.371148
	   98 D(10,5,11,14)   =   -178.195212     0.000001     0.101043  -178.094169
	   99 D(11,5,10,13)   =   -179.704721     0.000000     0.017663  -179.687059
	  100 D(11,8,1,15)    =    178.650914     0.000000    -0.008327   178.642587
	  101 D(12,6,3,17)    =   -178.424860     0.000000     0.073772  -178.351089
	  102 D(12,7,4,18)    =   -178.882870     0.000000     0.022714  -178.860156
	  103 D(13,10,2,16)   =      0.378304    -0.000000    -0.017907     0.360397
	  104 D(13,10,5,19)   =      0.901652     0.000000     0.019509     0.921161
	  105 D(14,11,5,19)   =      1.217095     0.000001     0.099235     1.316330
	  106 D(15,1,2,16)    =      1.159654    -0.000000     0.004166     1.163820
	  107 D(17,3,6,20)    =      1.387218    -0.000000    -0.054225     1.332994
	  108 D(18,4,7,21)    =      0.857878    -0.000000    -0.036741     0.821138
	  109 R(4,14)         =      2.839370     0.000052    -0.000417     2.838953
	 ---------------------------------------------------------------------------
	Successfully symmetrized geometry.
	 Forces used to impose fixed constraints are not included.
	  Forces zeroed: 61 

  ==> Convergence Check <==

  Measures of convergence in internal coordinates in au.
  Criteria marked as inactive (o), active & met (*), and active & unmet ( ).
  ---------------------------------------------------------------------------------------------
   Step     Total Energy     Delta E     MAX Force     RMS Force      MAX Disp      RMS Disp   
  ---------------------------------------------------------------------------------------------
    Convergence Criteria    1.00e-06 *    3.00e-04 *             o    1.20e-03 *             o
  ---------------------------------------------------------------------------------------------
      8    -652.87566105    1.53e-07 *    1.08e-04 *    2.31e-05 o    1.76e-03      5.76e-04 o  ~
  ---------------------------------------------------------------------------------------------


  **** Optimization is complete! (in 8 steps) ****

  ==> Optimization Summary <==

  Measures of convergence in internal coordinates in au.
  --------------------------------------------------------------------------------------------------------------- ~
   Step         Total Energy             Delta E       MAX Force       RMS Force        MAX Disp        RMS Disp  ~
  --------------------------------------------------------------------------------------------------------------- ~
      1    -652.868867826638   -652.868867826638      0.01567248      0.00534450      0.03428191      0.00958503  ~
      2    -652.872818847094     -0.003951020456      0.00891042      0.00246714      0.06604990      0.00958487  ~
      3    -652.874460780961     -0.001641933866      0.00648768      0.00100612      0.08233488      0.00958496  ~
      4    -652.875152481990     -0.000691701030      0.00409657      0.00050012      0.08440146      0.00958916  ~
      5    -652.875504467349     -0.000351985359      0.00212729      0.00025451      0.08023619      0.00959081  ~
      6    -652.875648520943     -0.000144053595      0.00067679      0.00012778      0.02563201      0.00307723  ~
      7    -652.875661199614     -0.000012678670      0.00033215      0.00005671      0.00488742      0.00078069  ~
      8    -652.875661046166      0.000000153447      0.00013214      0.00002632      0.00176354      0.00057556  ~
  --------------------------------------------------------------------------------------------------------------- ~

	Writing optimization data to binary file.
	Final energy is   -652.8756610461663
	Final (previous) structure:
	Cartesian Geometry (in Angstrom)
	    C    -1.2946330530   0.7786206492  -0.7431661155
	    C    -2.3794132000   1.3508303612  -0.1079911781
	    C     0.6842340038  -1.0148115083  -2.0160988784
	    C     2.1653805004  -0.4705042709  -0.2479717539
	    C    -1.4500022031   0.7091987995   2.0064935829
	    C     1.7654408164  -1.5520380267  -2.6944031154
	    C     3.1847989597  -1.0293841927  -1.0020154795
	    C    -0.2508526741   0.1650948821  -0.0450105533
	    C     0.8671201620  -0.4556157174  -0.7531716893
	    C    -2.4593134801   1.3178258127   1.2770948858
	    C    -0.3799621980   0.1510575033   1.3378962607
	    N     3.0094010316  -1.5685975976  -2.2103902981
	    O    -3.5429948744   1.8955737203   1.8592511026
	    F     0.5551985929  -0.4609593705   2.0906699118
	    H    -1.2310389756   0.8351758532  -1.8189460845
	    H    -3.1640054362   1.8316342468  -0.6695633353
	    H    -0.2984547521  -1.0600173405  -2.4599465547
	    H     2.3886619769  -0.0378086469   0.7127327829
	    H    -1.4801457830   0.6498555629   3.0838086340
	    H     1.6255490672  -1.9926584273  -3.6716656629
	    H     4.1945264607  -1.0403710396  -0.6162511234
	    H    -3.4762387312   1.8062756060   2.8148069389
	Saving final (previous) structure.
			--------------------------
			 OPTKING Finished Execution 
			--------------------------

    Final optimized geometry and variables:
    Molecular point group: c1
    Full point group: C1

    Geometry (in Angstrom), charge = 0, multiplicity = 1:

    C           -1.294633052952     0.778620649233    -0.743166115480
    C           -2.379413200002     1.350830361239    -0.107991178123
    C            0.684234003824    -1.014811508350    -2.016098878411
    C            2.165380500357    -0.470504270940    -0.247971753923
    C           -1.450002203073     0.709198799540     2.006493582939
    C            1.765440816365    -1.552038026708    -2.694403115380
    C            3.184798959748    -1.029384192733    -1.002015479480
    C           -0.250852674126     0.165094882129    -0.045010553260
    C            0.867120161990    -0.455615717358    -0.753171689311
    C           -2.459313480062     1.317825812700     1.277094885755
    C           -0.379962198043     0.151057503309     1.337896260703
    N            3.009401031607    -1.568597597588    -2.210390298059
    O           -3.542994874384     1.895573720263     1.859251102636
    F            0.555198592921    -0.460959370504     2.090669911818
    H           -1.231038975576     0.835175853227    -1.818946084498
    H           -3.164005436240     1.831634246837    -0.669563335277
    H           -0.298454752128    -1.060017340480    -2.459946554700
    H            2.388661976898    -0.037808646875     0.712732782875
    H           -1.480145783012     0.649855562911     3.083808633998
    H            1.625549067169    -1.992658427289    -3.671665662873
    H            4.194526460683    -1.040371039618    -0.616251123435
    H           -3.476238731154     1.806275606007     2.814806938901

	Cleaning optimization helper files.

*** Psi4 exiting successfully. Buy a developer a beer!
