
    -----------------------------------------------------------------------
          Psi4: An Open-Source Ab Initio Electronic Structure Package
                               Psi4 1.1 release

                         Git: Rev {HEAD} add49b9 


    R. M. Parrish, L. A. Burns, D. G. A. Smith, A. C. Simmonett,
    A. E. DePrince III, E. G. Hohenstein, U. Bozkaya, A. Yu. Sokolov,
    R. Di Remigio, R. M. Richard, J. F. Gonthier, A. M. James,
    H. R. McAlexander, A. Kumar, M. Saitow, X. Wang, B. P. Pritchard,
    P. Verma, H. F. Schaefer III, K. Patkowski, R. A. King, E. F. Valeev,
    F. A. Evangelista, J. M. Turney, T. D. Crawford, and C. D. Sherrill,
    J. Chem. Theory Comput. in press (2017).
    (doi: 10.1021/acs.jctc.7b00174)

    -----------------------------------------------------------------------


    Psi4 started on: Sunday, 12 November 2017 03:20PM

    Process ID:  13495
    PSIDATADIR: /cbio/jclab/home/chayas/anaconda/envs/py35/share/psi4
    Memory:     500.0 MiB
    Threads:    8
    
  ==> Input File <==

--------------------------------------------------------------------------

memory 5 Gb

molecule phepyrOH_zwitterion {
  symmetry C1
  0 1 
  C      1.885   -1.036   -0.112
  C      2.878   -1.652   2.002
  C      0.807   -0.463   0.561
  C      1.800   -1.079   2.676
  C      5.298   -2.251   0.504
  C      3.860   -2.774   -1.357
  C      6.353   -2.827   -0.189
  C      4.951   -3.337   -2.003
  C      2.921   -1.631   0.608
  C      4.040   -2.226   -0.090
  C      0.764   -0.484   1.955
  N      6.152   -3.348   -1.407
  O      -0.227   0.042   2.574
  H      1.904   -1.011   -1.199
  H      3.678   -2.112   2.577
  H      0.011   -0.006   -0.025
  H      1.791   -1.108   3.764
  H      5.467   -1.831   1.491
  H      2.889   -2.768   -1.844
  H      7.362   -2.892   0.194
  H      4.905   -3.785   -2.986
  H      6.941   -3.766   -1.900
  units Angstrom
}

dih_string = "1 9 10 5 150"
set optking fixed_dihedral = $dih_string

optimize('MP2/aug-cc-PVTZ')
--------------------------------------------------------------------------

  Memory set to   4.657 GiB by Python driver.
gradient() will perform analytic gradient computation.

*** tstart() called on gpu-2-9.local
*** at Sun Nov 12 15:20:37 2017

    SCF Algorithm Type (re)set to DF.

*** tstart() called on gpu-2-9.local
*** at Sun Nov 12 15:20:37 2017

   => Loading Basis Set <=

    Name: AUG-CC-PVTZ
    Role: ORBITAL
    Keyword: BASIS
    atoms 1-11  entry C          line   221 file /cbio/jclab/home/chayas/anaconda/envs/py35/share/psi4/basis/aug-cc-pvtz.gbs 
    atoms 12    entry N          line   267 file /cbio/jclab/home/chayas/anaconda/envs/py35/share/psi4/basis/aug-cc-pvtz.gbs 
    atoms 13    entry O          line   313 file /cbio/jclab/home/chayas/anaconda/envs/py35/share/psi4/basis/aug-cc-pvtz.gbs 
    atoms 14-22 entry H          line    34 file /cbio/jclab/home/chayas/anaconda/envs/py35/share/psi4/basis/aug-cc-pvtz.gbs 


         ---------------------------------------------------------
                                   SCF
            by Justin Turney, Rob Parrish, and Andy Simmonett
                              RHF Reference
                        8 Threads,   4768 MiB Core
         ---------------------------------------------------------

  ==> Geometry <==

    Molecular point group: c1
    Full point group: C1

    Geometry (in Angstrom), charge = 0, multiplicity = 1:

       Center              X                  Y                   Z               Mass       
    ------------   -----------------  -----------------  -----------------  -----------------
           C         -1.297478415662     0.733820373160    -0.557442538253    12.000000000000
           C         -0.304478415662     0.117820373160     1.556557461747    12.000000000000
           C         -2.375478415662     1.306820373160     0.115557461747    12.000000000000
           C         -1.382478415662     0.690820373160     2.230557461747    12.000000000000
           C          2.115521584338    -0.481179626840     0.058557461747    12.000000000000
           C          0.677521584338    -1.004179626840    -1.802442538253    12.000000000000
           C          3.170521584338    -1.057179626840    -0.634442538253    12.000000000000
           C          1.768521584338    -1.567179626840    -2.448442538253    12.000000000000
           C         -0.261478415662     0.138820373160     0.162557461747    12.000000000000
           C          0.857521584338    -0.456179626840    -0.535442538253    12.000000000000
           C         -2.418478415662     1.285820373160     1.509557461747    12.000000000000
           N          2.969521584338    -1.578179626840    -1.852442538253    14.003074004780
           O         -3.409478415662     1.811820373160     2.128557461747    15.994914619560
           H         -1.278478415662     0.758820373160    -1.644442538253     1.007825032070
           H          0.495521584338    -0.342179626840     2.131557461747     1.007825032070
           H         -3.171478415662     1.763820373160    -0.470442538253     1.007825032070
           H         -1.391478415662     0.661820373160     3.318557461747     1.007825032070
           H          2.284521584338    -0.061179626840     1.045557461747     1.007825032070
           H         -0.293478415662    -0.998179626840    -2.289442538253     1.007825032070
           H          4.179521584338    -1.122179626840    -0.251442538253     1.007825032070
           H          1.722521584338    -2.015179626840    -3.431442538253     1.007825032070
           H          3.758521584338    -1.996179626840    -2.345442538253     1.007825032070

  Running in c1 symmetry.

  Rotational constants: A =      0.09648  B =      0.01373  C =      0.01223 [cm^-1]
  Rotational constants: A =   2892.41434  B =    411.70872  C =    366.52423 [MHz]
  Nuclear repulsion =  701.548712402007482

  Charge       = 0
  Multiplicity = 1
  Electrons    = 90
  Nalpha       = 45
  Nbeta        = 45

  ==> Algorithm <==

  SCF Algorithm Type is DF.
  DIIS enabled.
  MOM disabled.
  Fractional occupation disabled.
  Guess Type is SAD.
  Energy threshold   = 1.00e-10
  Density threshold  = 1.00e-10
  Integral threshold = 0.00e+00

  ==> Primary Basis <==

  Basis Set: AUG-CC-PVTZ
    Blend: AUG-CC-PVTZ
    Number of shells: 263
    Number of basis function: 805
    Number of Cartesian functions: 940
    Spherical Harmonics?: true
    Max angular momentum: 3

   => Loading Basis Set <=

    Name: (AUG-CC-PVTZ AUX)
    Role: JKFIT
    Keyword: DF_BASIS_SCF
    atoms 1-11  entry C          line   161 file /cbio/jclab/home/chayas/anaconda/envs/py35/share/psi4/basis/aug-cc-pvtz-jkfit.gbs 
    atoms 12    entry N          line   223 file /cbio/jclab/home/chayas/anaconda/envs/py35/share/psi4/basis/aug-cc-pvtz-jkfit.gbs 
    atoms 13    entry O          line   285 file /cbio/jclab/home/chayas/anaconda/envs/py35/share/psi4/basis/aug-cc-pvtz-jkfit.gbs 
    atoms 14-22 entry H          line    69 file /cbio/jclab/home/chayas/anaconda/envs/py35/share/psi4/basis/aug-cc-pvtz-jkfit.gbs 

  ==> Pre-Iterations <==

   -------------------------------------------------------
    Irrep   Nso     Nmo     Nalpha   Nbeta   Ndocc  Nsocc
   -------------------------------------------------------
     A        805     805       0       0       0       0
   -------------------------------------------------------
    Total     805     805      45      45      45       0
   -------------------------------------------------------

  ==> Integral Setup <==

  ==> DFJK: Density-Fitted J/K Matrices <==

    J tasked:                  Yes
    K tasked:                  Yes
    wK tasked:                  No
    OpenMP threads:              8
    Integrals threads:           8
    Memory (MB):              3576
    Algorithm:                Disk
    Integral Cache:           NONE
    Schwarz Cutoff:          1E-12
    Fitting Condition:       1E-12

   => Auxiliary Basis Set <=

  Basis Set: (AUG-CC-PVTZ AUX)
    Blend: AUG-CC-PVTZ-JKFIT
    Number of shells: 516
    Number of basis function: 1766
    Number of Cartesian functions: 2198
    Spherical Harmonics?: true
    Max angular momentum: 4

  Minimum eigenvalue in the overlap matrix is 6.4102176597E-07.
  Using Symmetric Orthogonalization.

  SCF Guess: Superposition of Atomic Densities via on-the-fly atomic UHF.

  ==> Iterations <==

                           Total Energy        Delta E     RMS |[F,P]|

   @DF-RHF iter   0:  -556.58240432907587   -5.56582e+02   2.29920e-02 
   @DF-RHF iter   1:  -550.78242412501083    5.79998e+00   2.32509e-03 
   @DF-RHF iter   2:  -551.04513255351253   -2.62708e-01   1.72679e-03 DIIS
   @DF-RHF iter   3:  -551.18660594136929   -1.41473e-01   6.36466e-04 DIIS
   @DF-RHF iter   4:  -551.21140514983540   -2.47992e-02   1.47604e-04 DIIS
   @DF-RHF iter   5:  -551.21389773990404   -2.49259e-03   7.02190e-05 DIIS
   @DF-RHF iter   6:  -551.21458849140424   -6.90752e-04   3.33821e-05 DIIS
   @DF-RHF iter   7:  -551.21478304361585   -1.94552e-04   1.55198e-05 DIIS
   @DF-RHF iter   8:  -551.21482518653704   -4.21429e-05   4.71669e-06 DIIS
   @DF-RHF iter   9:  -551.21483353933979   -8.35280e-06   2.62786e-06 DIIS
   @DF-RHF iter  10:  -551.21483500486966   -1.46553e-06   1.16113e-06 DIIS
   @DF-RHF iter  11:  -551.21483535356538   -3.48696e-07   6.27162e-07 DIIS
   @DF-RHF iter  12:  -551.21483542008298   -6.65176e-08   3.03677e-07 DIIS
   @DF-RHF iter  13:  -551.21483543611077   -1.60278e-08   8.79817e-08 DIIS
   @DF-RHF iter  14:  -551.21483543843726   -2.32649e-09   4.53659e-08 DIIS
   @DF-RHF iter  15:  -551.21483543878685   -3.49587e-10   1.18771e-08 DIIS
   @DF-RHF iter  16:  -551.21483543884131   -5.44560e-11   3.56673e-09 DIIS
   @DF-RHF iter  17:  -551.21483543882221    1.90994e-11   1.90128e-09 DIIS
   @DF-RHF iter  18:  -551.21483543882857   -6.36646e-12   6.04843e-10 DIIS
   @DF-RHF iter  19:  -551.21483543882607    2.50111e-12   2.72971e-10 DIIS
   @DF-RHF iter  20:  -551.21483543881197    1.40972e-11   1.62354e-10 DIIS
   @DF-RHF iter  21:  -551.21483543882562   -1.36424e-11   7.45312e-11 DIIS

  ==> Post-Iterations <==

    Orbital Energies (a.u.)
    -----------------------

    Doubly Occupied:                                                      

       1A    -20.431276     2A    -15.697271     3A    -11.355737  
       4A    -11.355709     5A    -11.305216     6A    -11.284590  
       7A    -11.284377     8A    -11.244757     9A    -11.228648  
      10A    -11.228605    11A    -11.214438    12A    -11.188419  
      13A    -11.188375    14A     -1.382354    15A     -1.256010  
      16A     -1.179650    17A     -1.109451    18A     -1.107998  
      19A     -0.996082    20A     -0.990825    21A     -0.937632  
      22A     -0.902068    23A     -0.835841    24A     -0.813775  
      25A     -0.783100    26A     -0.733086    27A     -0.718564  
      28A     -0.695812    29A     -0.671153    30A     -0.653427  
      31A     -0.616604    32A     -0.610593    33A     -0.608549  
      34A     -0.585698    35A     -0.560953    36A     -0.534060  
      37A     -0.515792    38A     -0.484071    39A     -0.477683  
      40A     -0.465009    41A     -0.418465    42A     -0.391171  
      43A     -0.342634    44A     -0.323758    45A     -0.231922  

    Virtual:                                                              

      46A     -0.008093    47A      0.011100    48A      0.019947  
      49A      0.023499    50A      0.037634    51A      0.040552  
      52A      0.042441    53A      0.053587    54A      0.056369  
      55A      0.057240    56A      0.061765    57A      0.068129  
      58A      0.068912    59A      0.070944    60A      0.082465  
      61A      0.093911    62A      0.095138    63A      0.102112  
      64A      0.106755    65A      0.107007    66A      0.118627  
      67A      0.120052    68A      0.120609    69A      0.126784  
      70A      0.127212    71A      0.132115    72A      0.134706  
      73A      0.136891    74A      0.148646    75A      0.149022  
      76A      0.151529    77A      0.156297    78A      0.161831  
      79A      0.165781    80A      0.165894    81A      0.170971  
      82A      0.172558    83A      0.179815    84A      0.183436  
      85A      0.183942    86A      0.188258    87A      0.195717  
      88A      0.197997    89A      0.205501    90A      0.210212  
      91A      0.213328    92A      0.214612    93A      0.223761  
      94A      0.225486    95A      0.228773    96A      0.232271  
      97A      0.236778    98A      0.248119    99A      0.250375  
     100A      0.253603   101A      0.256396   102A      0.259959  
     103A      0.268462   104A      0.270614   105A      0.271159  
     106A      0.283248   107A      0.289634   108A      0.292709  
     109A      0.293665   110A      0.296592   111A      0.299793  
     112A      0.301556   113A      0.306749   114A      0.311086  
     115A      0.318682   116A      0.322767   117A      0.327024  
     118A      0.329524   119A      0.332587   120A      0.337260  
     121A      0.340538   122A      0.344285   123A      0.347146  
     124A      0.350495   125A      0.357089   126A      0.358691  
     127A      0.360993   128A      0.371590   129A      0.374163  
     130A      0.374451   131A      0.384291   132A      0.390085  
     133A      0.394488   134A      0.398719   135A      0.399328  
     136A      0.400532   137A      0.416528   138A      0.416636  
     139A      0.418847   140A      0.427782   141A      0.433145  
     142A      0.433383   143A      0.440152   144A      0.444027  
     145A      0.449199   146A      0.454835   147A      0.455083  
     148A      0.459595   149A      0.462657   150A      0.467857  
     151A      0.467917   152A      0.475497   153A      0.480177  
     154A      0.480238   155A      0.484974   156A      0.485114  
     157A      0.491732   158A      0.493791   159A      0.496508  
     160A      0.499703   161A      0.502972   162A      0.510061  
     163A      0.513939   164A      0.514029   165A      0.519182  
     166A      0.522441   167A      0.524129   168A      0.526226  
     169A      0.532967   170A      0.538026   171A      0.544736  
     172A      0.547759   173A      0.553061   174A      0.554764  
     175A      0.563776   176A      0.566267   177A      0.569504  
     178A      0.573662   179A      0.582827   180A      0.587830  
     181A      0.595373   182A      0.600081   183A      0.609340  
     184A      0.613451   185A      0.620177   186A      0.625258  
     187A      0.631618   188A      0.639710   189A      0.644075  
     190A      0.653910   191A      0.654233   192A      0.663687  
     193A      0.671368   194A      0.674317   195A      0.680405  
     196A      0.680444   197A      0.691346   198A      0.694620  
     199A      0.702264   200A      0.705110   201A      0.705503  
     202A      0.712828   203A      0.725668   204A      0.727199  
     205A      0.728271   206A      0.735808   207A      0.737320  
     208A      0.748051   209A      0.748213   210A      0.758211  
     211A      0.767690   212A      0.770206   213A      0.774949  
     214A      0.777181   215A      0.784176   216A      0.788925  
     217A      0.794786   218A      0.803043   219A      0.814868  
     220A      0.817913   221A      0.824364   222A      0.830406  
     223A      0.837568   224A      0.843533   225A      0.844669  
     226A      0.855187   227A      0.858298   228A      0.868966  
     229A      0.869221   230A      0.873476   231A      0.877736  
     232A      0.883382   233A      0.889896   234A      0.890198  
     235A      0.901051   236A      0.910272   237A      0.910857  
     238A      0.914018   239A      0.918943   240A      0.921876  
     241A      0.928167   242A      0.929116   243A      0.931720  
     244A      0.940150   245A      0.943235   246A      0.953166  
     247A      0.958966   248A      0.965850   249A      0.968532  
     250A      0.968597   251A      0.974606   252A      0.978916  
     253A      0.979646   254A      0.987973   255A      0.991845  
     256A      0.996384   257A      0.997832   258A      1.007939  
     259A      1.012015   260A      1.012254   261A      1.018214  
     262A      1.026995   263A      1.027477   264A      1.034018  
     265A      1.036749   266A      1.039609   267A      1.043338  
     268A      1.044449   269A      1.054123   270A      1.060546  
     271A      1.061761   272A      1.067844   273A      1.074827  
     274A      1.078673   275A      1.080588   276A      1.090182  
     277A      1.091444   278A      1.094040   279A      1.095886  
     280A      1.106126   281A      1.114517   282A      1.115020  
     283A      1.121496   284A      1.126157   285A      1.129010  
     286A      1.130830   287A      1.140279   288A      1.150068  
     289A      1.150227   290A      1.158795   291A      1.161087  
     292A      1.169327   293A      1.174521   294A      1.179177  
     295A      1.181919   296A      1.186548   297A      1.192874  
     298A      1.199277   299A      1.200646   300A      1.201633  
     301A      1.208179   302A      1.209127   303A      1.212874  
     304A      1.216029   305A      1.227278   306A      1.228924  
     307A      1.235800   308A      1.241947   309A      1.243330  
     310A      1.252025   311A      1.255283   312A      1.267738  
     313A      1.272836   314A      1.273234   315A      1.279285  
     316A      1.287416   317A      1.293992   318A      1.306843  
     319A      1.309010   320A      1.315874   321A      1.319211  
     322A      1.337007   323A      1.345966   324A      1.351714  
     325A      1.353311   326A      1.357070   327A      1.365611  
     328A      1.366551   329A      1.376264   330A      1.379610  
     331A      1.383978   332A      1.392609   333A      1.409180  
     334A      1.418507   335A      1.418668   336A      1.430618  
     337A      1.442747   338A      1.446873   339A      1.448509  
     340A      1.452878   341A      1.456673   342A      1.471727  
     343A      1.483889   344A      1.486302   345A      1.501099  
     346A      1.503509   347A      1.506744   348A      1.513125  
     349A      1.522121   350A      1.527404   351A      1.533650  
     352A      1.541425   353A      1.548135   354A      1.548466  
     355A      1.563676   356A      1.569071   357A      1.575750  
     358A      1.578816   359A      1.601666   360A      1.602844  
     361A      1.608452   362A      1.630775   363A      1.637986  
     364A      1.644229   365A      1.644686   366A      1.659946  
     367A      1.667912   368A      1.673078   369A      1.676752  
     370A      1.688997   371A      1.694276   372A      1.708298  
     373A      1.709115   374A      1.718225   375A      1.730042  
     376A      1.733383   377A      1.745896   378A      1.754844  
     379A      1.771980   380A      1.776877   381A      1.778124  
     382A      1.793915   383A      1.794796   384A      1.806142  
     385A      1.814055   386A      1.822277   387A      1.826737  
     388A      1.833043   389A      1.841030   390A      1.848568  
     391A      1.850650   392A      1.864095   393A      1.864833  
     394A      1.877184   395A      1.886329   396A      1.891856  
     397A      1.913484   398A      1.917890   399A      1.923975  
     400A      1.930083   401A      1.939505   402A      1.952333  
     403A      1.962519   404A      1.963562   405A      1.971904  
     406A      1.976104   407A      1.984017   408A      2.000498  
     409A      2.005679   410A      2.011089   411A      2.015833  
     412A      2.023258   413A      2.031038   414A      2.031599  
     415A      2.040392   416A      2.043963   417A      2.050442  
     418A      2.055288   419A      2.068001   420A      2.072025  
     421A      2.075933   422A      2.078050   423A      2.087072  
     424A      2.100613   425A      2.104630   426A      2.109024  
     427A      2.128427   428A      2.131048   429A      2.144402  
     430A      2.146519   431A      2.155085   432A      2.175871  
     433A      2.179896   434A      2.188432   435A      2.197060  
     436A      2.200023   437A      2.201117   438A      2.202749  
     439A      2.226523   440A      2.233377   441A      2.239938  
     442A      2.273558   443A      2.281889   444A      2.297757  
     445A      2.311288   446A      2.321578   447A      2.330427  
     448A      2.338899   449A      2.344722   450A      2.347493  
     451A      2.351278   452A      2.365786   453A      2.375383  
     454A      2.384528   455A      2.398015   456A      2.400159  
     457A      2.408002   458A      2.409887   459A      2.427833  
     460A      2.437350   461A      2.452131   462A      2.465085  
     463A      2.467554   464A      2.474593   465A      2.481722  
     466A      2.505131   467A      2.512267   468A      2.520557  
     469A      2.527404   470A      2.541119   471A      2.551092  
     472A      2.553386   473A      2.556560   474A      2.569431  
     475A      2.571815   476A      2.586057   477A      2.609290  
     478A      2.645777   479A      2.646703   480A      2.655143  
     481A      2.656997   482A      2.676399   483A      2.692960  
     484A      2.693935   485A      2.718042   486A      2.734518  
     487A      2.758104   488A      2.761470   489A      2.775895  
     490A      2.791960   491A      2.804236   492A      2.818255  
     493A      2.845521   494A      2.851615   495A      2.881904  
     496A      2.898463   497A      2.920127   498A      2.927492  
     499A      2.935189   500A      2.978632   501A      2.983263  
     502A      3.008475   503A      3.030113   504A      3.055606  
     505A      3.081165   506A      3.084216   507A      3.120287  
     508A      3.120738   509A      3.124872   510A      3.147786  
     511A      3.179972   512A      3.184816   513A      3.193460  
     514A      3.204431   515A      3.234945   516A      3.241092  
     517A      3.256558   518A      3.278663   519A      3.296234  
     520A      3.315637   521A      3.327631   522A      3.343720  
     523A      3.349109   524A      3.350154   525A      3.373839  
     526A      3.375122   527A      3.377848   528A      3.391086  
     529A      3.396152   530A      3.408542   531A      3.415584  
     532A      3.420380   533A      3.437323   534A      3.453589  
     535A      3.471996   536A      3.490960   537A      3.496261  
     538A      3.514544   539A      3.524632   540A      3.525547  
     541A      3.526996   542A      3.537916   543A      3.540885  
     544A      3.544453   545A      3.552754   546A      3.555303  
     547A      3.568006   548A      3.578239   549A      3.583175  
     550A      3.603433   551A      3.604363   552A      3.620770  
     553A      3.630458   554A      3.632655   555A      3.645873  
     556A      3.660114   557A      3.668453   558A      3.675617  
     559A      3.693643   560A      3.698050   561A      3.704966  
     562A      3.711878   563A      3.713817   564A      3.731969  
     565A      3.740425   566A      3.753596   567A      3.764420  
     568A      3.766869   569A      3.786102   570A      3.792308  
     571A      3.795059   572A      3.808576   573A      3.809415  
     574A      3.824030   575A      3.838878   576A      3.841766  
     577A      3.846364   578A      3.860174   579A      3.871446  
     580A      3.879454   581A      3.897535   582A      3.900882  
     583A      3.902047   584A      3.918635   585A      3.923635  
     586A      3.926124   587A      3.951645   588A      3.957506  
     589A      3.965109   590A      3.968478   591A      3.984079  
     592A      3.988995   593A      3.998974   594A      4.006313  
     595A      4.008407   596A      4.018117   597A      4.021901  
     598A      4.032584   599A      4.033211   600A      4.043792  
     601A      4.063525   602A      4.068223   603A      4.080986  
     604A      4.083784   605A      4.088752   606A      4.109361  
     607A      4.117779   608A      4.136378   609A      4.139549  
     610A      4.159028   611A      4.164966   612A      4.170582  
     613A      4.185912   614A      4.192019   615A      4.199134  
     616A      4.208876   617A      4.221119   618A      4.231737  
     619A      4.236575   620A      4.240249   621A      4.250782  
     622A      4.252758   623A      4.271116   624A      4.272508  
     625A      4.283076   626A      4.303814   627A      4.306138  
     628A      4.322453   629A      4.322868   630A      4.335506  
     631A      4.349082   632A      4.352173   633A      4.356154  
     634A      4.369415   635A      4.375262   636A      4.379783  
     637A      4.381382   638A      4.400607   639A      4.407630  
     640A      4.411344   641A      4.415050   642A      4.436394  
     643A      4.439543   644A      4.439810   645A      4.449029  
     646A      4.463123   647A      4.470781   648A      4.487812  
     649A      4.498826   650A      4.507023   651A      4.514502  
     652A      4.528683   653A      4.536126   654A      4.536622  
     655A      4.552444   656A      4.563268   657A      4.583185  
     658A      4.586838   659A      4.627371   660A      4.632840  
     661A      4.641149   662A      4.668160   663A      4.673182  
     664A      4.696731   665A      4.712438   666A      4.733034  
     667A      4.738395   668A      4.741509   669A      4.772129  
     670A      4.774907   671A      4.777705   672A      4.779537  
     673A      4.791245   674A      4.807495   675A      4.809222  
     676A      4.852915   677A      4.875598   678A      4.888317  
     679A      4.890425   680A      4.899120   681A      4.907556  
     682A      4.915504   683A      4.934605   684A      4.945221  
     685A      4.957561   686A      4.960771   687A      4.964806  
     688A      4.993196   689A      5.027543   690A      5.043648  
     691A      5.045954   692A      5.050369   693A      5.058460  
     694A      5.066104   695A      5.087951   696A      5.088619  
     697A      5.109487   698A      5.115545   699A      5.132474  
     700A      5.136733   701A      5.137692   702A      5.160609  
     703A      5.162384   704A      5.175097   705A      5.178054  
     706A      5.191512   707A      5.205711   708A      5.227994  
     709A      5.233960   710A      5.271595   711A      5.284744  
     712A      5.295228   713A      5.312063   714A      5.327825  
     715A      5.334826   716A      5.340803   717A      5.359986  
     718A      5.382135   719A      5.396616   720A      5.412787  
     721A      5.413378   722A      5.444545   723A      5.447983  
     724A      5.480852   725A      5.498933   726A      5.517668  
     727A      5.524175   728A      5.541601   729A      5.570155  
     730A      5.578586   731A      5.640076   732A      5.647927  
     733A      5.673435   734A      5.692274   735A      5.704133  
     736A      5.729288   737A      5.744566   738A      5.750675  
     739A      5.784693   740A      5.794642   741A      5.818903  
     742A      5.827458   743A      5.843999   744A      5.862253  
     745A      5.904573   746A      5.948325   747A      5.972561  
     748A      5.992725   749A      6.063366   750A      6.117506  
     751A      6.119628   752A      6.142259   753A      6.148341  
     754A      6.186872   755A      6.231277   756A      6.265477  
     757A      6.314232   758A      6.324113   759A      6.402746  
     760A      6.428347   761A      6.472899   762A      6.493098  
     763A      6.525604   764A      6.546541   765A      6.605347  
     766A      6.629702   767A      6.673513   768A      6.708269  
     769A      6.739930   770A      6.772709   771A      6.799472  
     772A      6.862053   773A      6.877175   774A      6.937071  
     775A      6.961549   776A      6.962267   777A      6.979258  
     778A      7.064210   779A      7.109305   780A      7.118039  
     781A      7.186519   782A      7.233547   783A      7.238408  
     784A      7.488305   785A      7.516505   786A      7.593456  
     787A      7.668650   788A      7.807300   789A      7.821944  
     790A      7.902301   791A      8.023577   792A      8.096473  
     793A     15.987009   794A     16.226014   795A     16.402433  
     796A     16.784296   797A     17.181405   798A     18.976564  
     799A     19.204879   800A     19.641713   801A     19.921514  
     802A     20.092109   803A     20.212216   804A     20.651883  
     805A     21.816385  

    Final Occupation by Irrep:
              A 
    DOCC [    45 ]

  Energy converged.

  @DF-RHF Final Energy:  -551.21483543882562

   => Energetics <=

    Nuclear Repulsion Energy =            701.5487124020074816
    One-Electron Energy =               -2139.6446828492244094
    Two-Electron Energy =                 886.8811350083914249
    DFT Exchange-Correlation Energy =       0.0000000000000000
    Empirical Dispersion Energy =           0.0000000000000000
    PCM Polarization Energy =               0.0000000000000000
    EFP Energy =                            0.0000000000000000
    Total Energy =                       -551.2148354388256166



Properties will be evaluated at   0.000000,   0.000000,   0.000000 Bohr

Properties computed using the SCF density matrix

  Nuclear Dipole Moment: (a.u.)
     X:     5.8864      Y:    -3.1278      Z:    -3.6752

  Electronic Dipole Moment: (a.u.)
     X:    -0.1461      Y:     0.0781      Z:     0.0914

  Dipole Moment: (a.u.)
     X:     5.7403      Y:    -3.0498      Z:    -3.5838     Total:     7.4226

  Dipole Moment: (Debye)
     X:    14.5903      Y:    -7.7517      Z:    -9.1090     Total:    18.8664


*** tstop() called on gpu-2-9.local at Sun Nov 12 15:28:39 2017
Module time:
	user time   =    1147.67 seconds =      19.13 minutes
	system time =      50.76 seconds =       0.85 minutes
	total time  =        482 seconds =       8.03 minutes
Total time:
	user time   =    1147.67 seconds =      19.13 minutes
	system time =      50.76 seconds =       0.85 minutes
	total time  =        482 seconds =       8.03 minutes

  //>>>>>>>>>>>>>>>>>>>>>>>>>>>>>>>>>>>//
  //               DFMP2               //
  //<<<<<<<<<<<<<<<<<<<<<<<<<<<<<<<<<<<//

   => Loading Basis Set <=

    Name: (AUG-CC-PVTZ AUX)
    Role: RIFIT
    Keyword: DF_BASIS_MP2
    atoms 1-11  entry C          line   147 file /cbio/jclab/home/chayas/anaconda/envs/py35/share/psi4/basis/aug-cc-pvtz-ri.gbs 
    atoms 12    entry N          line   205 file /cbio/jclab/home/chayas/anaconda/envs/py35/share/psi4/basis/aug-cc-pvtz-ri.gbs 
    atoms 13    entry O          line   263 file /cbio/jclab/home/chayas/anaconda/envs/py35/share/psi4/basis/aug-cc-pvtz-ri.gbs 
    atoms 14-22 entry H          line    29 file /cbio/jclab/home/chayas/anaconda/envs/py35/share/psi4/basis/aug-cc-pvtz-ri.gbs 

	 --------------------------------------------------------
	                          DF-MP2                         
	      2nd-Order Density-Fitted Moller-Plesset Theory     
	              RMP2 Wavefunction,   8 Threads             
	                                                         
	        Rob Parrish, Justin Turney, Andy Simmonett,      
	           Ed Hohenstein, and C. David Sherrill          
	 --------------------------------------------------------

   => Auxiliary Basis Set <=

  Basis Set: (AUG-CC-PVTZ AUX)
    Blend: AUG-CC-PVTZ-RI
    Number of shells: 490
    Number of basis function: 1792
    Number of Cartesian functions: 2263
    Spherical Harmonics?: true
    Max angular momentum: 4

	 --------------------------------------------------------
	                 NBF =   805, NAUX =  1792
	 --------------------------------------------------------
	   CLASS    FOCC     OCC    AOCC    AVIR     VIR    FVIR
	   PAIRS       0      45      45     760     760       0
	 --------------------------------------------------------


         ------------------------------------------------------------
                                     CPHF                           
                                  Rob Parrish                       
         ------------------------------------------------------------

  ==> Geometry <==

    Molecular point group: c1
    Full point group: C1

    Geometry (in Angstrom), charge = 0, multiplicity = 1:

       Center              X                  Y                   Z               Mass       
    ------------   -----------------  -----------------  -----------------  -----------------
           C         -1.297478415662     0.733820373160    -0.557442538253    12.000000000000
           C         -0.304478415662     0.117820373160     1.556557461747    12.000000000000
           C         -2.375478415662     1.306820373160     0.115557461747    12.000000000000
           C         -1.382478415662     0.690820373160     2.230557461747    12.000000000000
           C          2.115521584338    -0.481179626840     0.058557461747    12.000000000000
           C          0.677521584338    -1.004179626840    -1.802442538253    12.000000000000
           C          3.170521584338    -1.057179626840    -0.634442538253    12.000000000000
           C          1.768521584338    -1.567179626840    -2.448442538253    12.000000000000
           C         -0.261478415662     0.138820373160     0.162557461747    12.000000000000
           C          0.857521584338    -0.456179626840    -0.535442538253    12.000000000000
           C         -2.418478415662     1.285820373160     1.509557461747    12.000000000000
           N          2.969521584338    -1.578179626840    -1.852442538253    14.003074004780
           O         -3.409478415662     1.811820373160     2.128557461747    15.994914619560
           H         -1.278478415662     0.758820373160    -1.644442538253     1.007825032070
           H          0.495521584338    -0.342179626840     2.131557461747     1.007825032070
           H         -3.171478415662     1.763820373160    -0.470442538253     1.007825032070
           H         -1.391478415662     0.661820373160     3.318557461747     1.007825032070
           H          2.284521584338    -0.061179626840     1.045557461747     1.007825032070
           H         -0.293478415662    -0.998179626840    -2.289442538253     1.007825032070
           H          4.179521584338    -1.122179626840    -0.251442538253     1.007825032070
           H          1.722521584338    -2.015179626840    -3.431442538253     1.007825032070
           H          3.758521584338    -1.996179626840    -2.345442538253     1.007825032070

  Nuclear repulsion =  701.548712402007482
  Reference energy  = -551.214835438825617

  ==> Basis Set <==

  Basis Set: AUG-CC-PVTZ
    Blend: AUG-CC-PVTZ
    Number of shells: 263
    Number of basis function: 805
    Number of Cartesian functions: 940
    Spherical Harmonics?: true
    Max angular momentum: 3

  ==> CGRSolver (by Rob Parrish) <==

   Number of roots    =         1
   Preconditioning    =    JACOBI
   Convergence cutoff =     1E-06
   Maximum iterations =       100

  ==> CPHFRHamiltonian (by Rob Parrish) <== 

  ==> DFJK: Density-Fitted J/K Matrices <==

    J tasked:                  Yes
    K tasked:                  Yes
    wK tasked:                  No
    OpenMP threads:              8
    Integrals threads:           8
    Memory (MB):              3576
    Algorithm:                Disk
    Integral Cache:           NONE
    Schwarz Cutoff:          1E-12
    Fitting Condition:       1E-12

   => Auxiliary Basis Set <=

  Basis Set: (AUG-CC-PVTZ AUX)
    Blend: AUG-CC-PVTZ-JKFIT
    Number of shells: 516
    Number of basis function: 1766
    Number of Cartesian functions: 2198
    Spherical Harmonics?: true
    Max angular momentum: 4

  ==> CPHF Iterations <==

  => Iterations <=

             Iter  Converged  Remaining    Residual
  CGR           1          0          1   1.619E-01
  CGR           2          0          1   6.479E-02
  CGR           3          0          1   3.179E-02
  CGR           4          0          1   9.426E-03
  CGR           5          0          1   3.304E-03
  CGR           6          0          1   1.173E-03
  CGR           7          0          1   4.319E-04
  CGR           8          0          1   1.830E-04
  CGR           9          0          1   7.266E-05
  CGR          10          0          1   3.345E-05
  CGR          11          0          1   1.677E-05
  CGR          12          0          1   4.858E-06
  CGR          13          0          1   2.069E-06
  CGR          14          1          0   6.701E-07

    CGRSolver converged.

  ==> DFCorrGrad: Density-Fitted Correlated Gradients <==

    OpenMP threads:              8
    Integrals threads:           8
    Memory (MB):              3576
    Schwarz Cutoff:          0E+00
    Fitting Condition:       1E-12

   => Auxiliary Basis Set <=

  Basis Set: (AUG-CC-PVTZ AUX)
    Blend: AUG-CC-PVTZ-JKFIT
    Number of shells: 516
    Number of basis function: 1766
    Number of Cartesian functions: 2198
    Spherical Harmonics?: true
    Max angular momentum: 4

	-----------------------------------------------------------
	 ==================> DF-MP2 Energies <==================== 
	-----------------------------------------------------------
	 Reference Energy          =    -551.2148354388256166 [Eh]
	 Singles Energy            =      -0.0000000000000001 [Eh]
	 Same-Spin Energy          =      -0.6065225490798175 [Eh]
	 Opposite-Spin Energy      =      -1.8398933149670460 [Eh]
	 Correlation Energy        =      -2.4464158640468634 [Eh]
	 Total Energy              =    -553.6612513028725289 [Eh]
	-----------------------------------------------------------
	 ================> DF-SCS-MP2 Energies <================== 
	-----------------------------------------------------------
	 SCS Same-Spin Scale       =       0.3333333333333333 [-]
	 SCS Opposite-Spin Scale   =       1.2000000000000000 [-]
	 SCS Same-Spin Energy      =      -0.2021741830266058 [Eh]
	 SCS Opposite-Spin Energy  =      -2.2078719779604552 [Eh]
	 SCS Correlation Energy    =      -2.4100461609870609 [Eh]
	 SCS Total Energy          =    -553.6248815998126247 [Eh]
	-----------------------------------------------------------


  -Total Gradient:
     Atom            X                  Y                   Z
    ------   -----------------  -----------------  -----------------
       1        0.037904789454    -0.009978168679    -0.002963539174
       2        0.016358905681    -0.018825878290    -0.030947364905
       3       -0.028136564900     0.013838396009     0.053919734480
       4       -0.054612578544     0.029993887718    -0.001343175133
       5       -0.038410100136     0.020100417050     0.006561973440
       6       -0.024909322340     0.013328423117     0.032821279583
       7        0.008742720511    -0.014215872653    -0.030951138877
       8        0.033333918192    -0.008122945574     0.003838041720
       9       -0.040400294382     0.021486873573     0.025232384835
      10        0.053217652385    -0.028106096983    -0.032663424487
      11        0.065981714511    -0.034884882160    -0.041739301143
      12       -0.020893607518     0.011320994145     0.013925422951
      13       -0.020309037214     0.010720974633     0.012762386519
      14       -0.001189121737    -0.001083801861    -0.004663237151
      15        0.003932105160    -0.000324601748     0.002827897645
      16       -0.003327627613     0.000535546213    -0.009051378778
      17        0.005743114843    -0.001806173477     0.007192141485
      18       -0.000148696783     0.001327405212     0.007005447475
      19       -0.006339731444     0.001983870264    -0.003219123422
      20        0.002761691951    -0.001841961138    -0.000139526453
      21        0.001763550743    -0.000701239490    -0.002728415708
      22        0.008936519170    -0.004745165878    -0.005677084886


*** tstop() called on gpu-2-9.local at Sun Nov 12 16:00:12 2017
Module time:
	user time   =    5143.44 seconds =      85.72 minutes
	system time =     105.68 seconds =       1.76 minutes
	total time  =       2375 seconds =      39.58 minutes
Total time:
	user time   =    5143.44 seconds =      85.72 minutes
	system time =     105.68 seconds =       1.76 minutes
	total time  =       2375 seconds =      39.58 minutes

			-----------------------------------------
			 OPTKING 2.0: for geometry optimizations 
			  - R.A. King,  Bethel University        
			-----------------------------------------

	Internal coordinates to be generated automatically.
	Detected frag 1 with atoms:  1 2 3 4 5 6 7 8 9 10 11 12 13 14 15 16 17 18 19 20
	 21 22
	---Fragment 1 Bond Connectivity---
	 1 : 3 9 14
	 2 : 4 9 15
	 3 : 1 11 16
	 4 : 2 11 17
	 5 : 7 10 18
	 6 : 8 10 19
	 7 : 5 12 20
	 8 : 6 12 21
	 9 : 1 2 10
	 10 : 5 6 9
	 11 : 3 4 13
	 12 : 7 8 22
	 13 : 11
	 14 : 1
	 15 : 2
	 16 : 3
	 17 : 4
	 18 : 5
	 19 : 6
	 20 : 7
	 21 : 8
	 22 : 12

	Assuming in current code that numbering for constraints corresponds to unified fragment.
	Fixed dihedral atom list: 
	     1     9    10     5
	---Fragment 1 Geometry and Gradient---
	 C          -2.4518788689        1.3867195360       -1.0534137321
	 C          -0.5753808190        0.2226482381        2.9414673128
	 C          -4.4890036402        2.4695326101        0.2183719553
	 C          -2.6125055902        1.3054613123        4.2151427264
	 C           3.9977564226       -0.9092977155        0.1106575657
	 C           1.2803302435       -1.8976244830       -3.4061227676
	 C           5.9914174928       -1.9977799680       -1.1989226444
	 C           3.3420214545       -2.9615402958       -4.6268858494
	 C          -0.4941225953        0.2623324869        0.3071890836
	 C           1.6204809474       -0.8620545621       -1.0118397572
	 C          -4.5702618639        2.4298483614        2.8526501846
	 N           5.6115825401       -2.9823272832       -3.5006090742
	 O          -6.4429804616        3.4238443073        4.0223906608
	 H          -2.4159740724        1.4339626893       -3.1075460386
	 H           0.9364000873       -0.6466257830        4.0280598392
	 H          -5.9932256420        3.3331374529       -0.8890075586
	 H          -2.6295131254        1.2506592544        6.2711647589
	 H           4.3171201391       -0.1156127396        1.9758172589
	 H          -0.5545938315       -1.8862861262       -4.3264193943
	 H           7.8981511609       -2.1206121666       -0.4751575355
	 H           3.2550940524       -3.8081376033       -6.4844866380
	 H           7.1025764589       -3.7722328068       -4.4322440577
	             0.0379047895       -0.0099781687       -0.0029635392
	             0.0163589057       -0.0188258783       -0.0309473649
	            -0.0281365649        0.0138383960        0.0539197345
	            -0.0546125785        0.0299938877       -0.0013431751
	            -0.0384101001        0.0201004170        0.0065619734
	            -0.0249093223        0.0133284231        0.0328212796
	             0.0087427205       -0.0142158727       -0.0309511389
	             0.0333339182       -0.0081229456        0.0038380417
	            -0.0404002944        0.0214868736        0.0252323848
	             0.0532176524       -0.0281060970       -0.0326634245
	             0.0659817145       -0.0348848822       -0.0417393011
	            -0.0208936075        0.0113209941        0.0139254230
	            -0.0203090372        0.0107209746        0.0127623865
	            -0.0011891217       -0.0010838019       -0.0046632372
	             0.0039321052       -0.0003246017        0.0028278976
	            -0.0033276276        0.0005355462       -0.0090513788
	             0.0057431148       -0.0018061735        0.0071921415
	            -0.0001486968        0.0013274052        0.0070054475
	            -0.0063397314        0.0019838703       -0.0032191234
	             0.0027616920       -0.0018419611       -0.0001395265
	             0.0017635507       -0.0007012395       -0.0027284157
	             0.0089365192       -0.0047451659       -0.0056770849

	Previous optimization step data not found.  Starting new optimization.

	---Fragment 1 Intrafragment Coordinates---
	 - Coordinate -           - BOHR/RAD -       - ANG/DEG -
	 R(1,3)           =         2.634350	       1.394038
	 R(1,9)           =         2.635962	       1.394891
	 R(1,14)          =         2.054989	       1.087453
	 R(2,4)           =         2.635263	       1.394521
	 R(2,9)           =         2.635830	       1.394821
	 R(2,15)          =         2.054702	       1.087302
	 R(3,11)          =         2.635830	       1.394821
	 R(3,16)          =         2.057860	       1.088972
	 R(4,11)          =         2.636938	       1.395407
	 R(4,17)          =         2.056823	       1.088424
	 R(5,7)           =         2.621923	       1.387462
	 R(5,10)          =         2.629386	       1.391411
	 R(5,18)          =         2.052011	       1.085878
	 R(6,8)           =         2.621593	       1.387287
	 R(6,10)          =         2.630722	       1.392118
	 R(6,19)          =         2.052808	       1.086299
	 R(7,12)          =         2.532068	       1.339913
	 R(7,20)          =         2.043173	       1.081201
	 R(8,12)          =         2.533740	       1.340798
	 R(8,21)          =         2.043273	       1.081253
	 R(9,10)          =         2.734160	       1.446855
	 R(11,13)         =         2.421445	       1.281373
	 R(12,22)         =         1.927422	       1.019948
	 B(1,3,11)        =         2.094553	     120.009056
	 B(1,3,16)        =         2.069123	     118.552025
	 B(1,9,2)         =         2.093692	     119.959722
	 B(1,9,10)        =         2.095337	     120.053983
	 B(2,4,11)        =         2.093699	     119.960108
	 B(2,4,17)        =         2.069829	     118.592446
	 B(2,9,10)        =         2.094156	     119.986294
	 B(3,1,9)         =         2.094940	     120.031219
	 B(3,1,14)        =         2.079025	     119.119344
	 B(3,11,4)        =         2.094306	     119.994870
	 B(3,11,13)       =         2.094918	     120.029973
	 B(4,2,9)         =         2.095181	     120.045019
	 B(4,2,15)        =         2.079455	     119.143974
	 B(4,11,13)       =         2.093961	     119.975136
	 B(5,7,12)        =         2.095996	     120.091723
	 B(5,7,20)        =         2.162325	     123.892124
	 B(5,10,6)        =         2.092509	     119.891910
	 B(5,10,9)        =         2.095187	     120.045354
	 B(6,8,12)        =         2.095284	     120.050958
	 B(6,8,21)        =         2.162811	     123.919940
	 B(6,10,9)        =         2.095490	     120.062733
	 B(7,5,10)        =         2.073397	     118.796892
	 B(7,5,18)        =         2.090039	     119.750417
	 B(7,12,8)        =         2.135596	     122.360631
	 B(7,12,22)       =         2.074519	     118.861186
	 B(8,6,10)        =         2.073587	     118.807808
	 B(8,6,19)        =         2.090287	     119.764637
	 B(8,12,22)       =         2.073067	     118.777997
	 B(9,1,14)        =         2.109221	     120.849435
	 B(9,2,15)        =         2.108550	     120.811005
	 B(10,5,18)       =         2.119749	     121.452682
	 B(10,6,19)       =         2.119311	     121.427551
	 B(11,3,16)       =         2.119509	     121.438903
	 B(11,4,17)       =         2.119657	     121.447411
	 B(12,7,20)       =         2.024861	     116.015989
	 B(12,8,21)       =         2.025089	     116.029067
	 D(1,3,11,4)      =        -0.000325	      -0.018609
	 D(1,3,11,13)     =        -3.141004	    -179.966279
	 D(1,9,2,4)       =         0.000325	       0.018608
	 D(1,9,2,15)      =        -3.141527	    -179.996257
	 D(1,9,10,5)      =         2.617720	     149.984316
	 D(1,9,10,6)      =        -0.523529	     -29.995996
	 D(2,4,11,3)      =         0.000301	       0.017261
	 D(2,4,11,13)     =         3.140981	     179.964960
	 D(2,9,1,3)       =        -0.000348	      -0.019945
	 D(2,9,1,14)      =         3.141027	     179.967567
	 D(2,9,10,5)      =        -0.523655	     -30.003245
	 D(2,9,10,6)      =         2.618281	     150.016443
	 D(3,1,9,10)      =         3.141462	     179.992491
	 D(3,11,4,17)     =         3.140700	     179.948827
	 D(4,2,9,10)      =        -3.141485	    -179.993820
	 D(4,11,3,16)     =         3.140472	     179.935781
	 D(5,7,12,8)      =         0.001814	       0.103960
	 D(5,7,12,22)     =         3.140637	     179.945229
	 D(5,10,6,8)      =        -0.000381	      -0.021843
	 D(5,10,6,19)     =         3.141593	     180.000000
	 D(6,8,12,7)      =        -0.001598	      -0.091586
	 D(6,8,12,22)     =        -3.140423	    -179.932981
	 D(6,10,5,7)      =         0.000588	       0.033714
	 D(6,10,5,18)     =         3.141575	     179.999012
	 D(7,5,10,9)      =        -3.140661	    -179.946631
	 D(7,12,8,21)     =         3.141129	     179.973449
	 D(8,6,10,9)      =         3.140868	     179.958500
	 D(8,12,7,20)     =         3.140938	     179.962496
	 D(9,1,3,11)      =         0.000348	       0.019955
	 D(9,1,3,16)      =        -3.140471	    -179.935743
	 D(9,2,4,11)      =        -0.000301	      -0.017270
	 D(9,2,4,17)      =        -3.140734	    -179.950778
	 D(9,10,5,18)     =         0.000326	       0.018667
	 D(9,10,6,19)     =        -0.000334	      -0.019116
	 D(10,5,7,12)     =        -0.001277	      -0.073184
	 D(10,5,7,20)     =        -3.140197	    -179.920032
	 D(10,6,8,12)     =         0.000854	       0.048935
	 D(10,6,8,21)     =         3.141218	     179.978512
	 D(10,9,1,14)     =        -0.000349	      -0.019997
	 D(10,9,2,15)     =        -0.000152	      -0.008685
	 D(11,3,1,14)     =        -3.141030	    -179.967773
	 D(11,4,2,15)     =         3.141546	     179.997347
	 D(12,7,5,18)     =         3.140910	     179.960913
	 D(12,8,6,19)     =        -3.141123	    -179.973068
	 D(13,11,3,16)    =        -0.000207	      -0.011889
	 D(13,11,4,17)    =        -0.001806	      -0.103475
	 D(14,1,3,16)     =         0.001336	       0.076530
	 D(15,2,4,17)     =         0.001114	       0.063839
	 D(18,5,7,20)     =         0.001991	       0.114065
	 D(19,6,8,21)     =        -0.000759	      -0.043491
	 D(20,7,12,22)    =        -0.003425	      -0.196235
	 D(21,8,12,22)    =         0.002305	       0.132054

	Current energy   :      -553.6612513029

	Generating empirical Hessian (Schlegel '84) for each fragment.
	Adding user-defined constraint: Fragment 1; Coordinate 64:
		Value =     2.617720; Fixed value    =     2.617994
		Force =     0.000137; Force constant =     0.500000
	Removing off-diagonal coupling between coordinate 64 and others.
	Taking RFO optimization step.
	Going to follow RFO solution 1.
	Using RFO vector 1.

	Determining step-restricting scale parameter for RS-RFO.
	Maximum step size allowed    0.10000

	 Iter      |step|        alpha        rfo_root  
	------------------------------------------------
	    0     0.30339       1.00000           1
	    1     0.22275       3.67087           1
	    2     0.16432      12.53694           1
	    3     0.12553      30.13861           1
	    4     0.10636      48.43173           1
	    5     0.10057      56.41289           1
	    6     0.10001      57.27242           1
	------------------------------------------------
	Norm of target step-size    0.10001
	Projected energy change by RFO approximation:        -0.0095126288

	Back-transformation to cartesian coordinates...
	Could not converge backtransformation.
	Using first guess instead.

	--- Internal Coordinate Step in ANG or DEG, aJ/ANG or AJ/DEG ---
	 ---------------------------------------------------------------------------
	   Coordinate                Previous        Force       Change         New 
	   ----------                --------       ------       ------       ------
	    1 R(1,3)          =      1.394038    -0.183301    -0.011535     1.382503
	    2 R(1,9)          =      1.394891     0.149731     0.009312     1.404204
	    3 R(1,14)         =      1.087453    -0.038027    -0.002699     1.084754
	    4 R(2,4)          =      1.394521    -0.186289    -0.011744     1.382777
	    5 R(2,9)          =      1.394821     0.150820     0.009385     1.404206
	    6 R(2,15)         =      1.087302    -0.037288    -0.002646     1.084656
	    7 R(3,11)         =      1.394821     0.273611     0.017474     1.412295
	    8 R(3,16)         =      1.088972    -0.062020    -0.004409     1.084564
	    9 R(4,11)         =      1.395407     0.270221     0.017266     1.412673
	   10 R(4,17)         =      1.088424    -0.059236    -0.004206     1.084218
	   11 R(5,7)          =      1.387462    -0.185878    -0.011568     1.375894
	   12 R(5,10)         =      1.391411     0.188969     0.011888     1.403299
	   13 R(5,18)         =      1.085878    -0.056500    -0.003989     1.081889
	   14 R(6,8)          =      1.387287    -0.185137    -0.011530     1.375758
	   15 R(6,10)         =      1.392118     0.184454     0.011617     1.403735
	   16 R(6,19)         =      1.086299    -0.058668    -0.004145     1.082154
	   17 R(7,12)         =      1.339913     0.141484     0.008100     1.348013
	   18 R(7,20)         =      1.081201    -0.021739    -0.001523     1.079678
	   19 R(8,12)         =      1.340798     0.136058     0.007798     1.348595
	   20 R(8,21)         =      1.081253    -0.022212    -0.001554     1.079699
	   21 R(9,10)         =      1.446855    -0.192432    -0.013145     1.433710
	   22 R(11,13)        =      1.281373    -0.216455    -0.010860     1.270513
	   23 R(12,22)        =      1.019948    -0.095584    -0.006157     1.013791
	   24 B(1,3,11)       =    120.009056     0.000458     0.448540   120.457597
	   25 B(1,3,16)       =    118.552025     0.000232     0.259737   118.811762
	   26 B(1,9,2)        =    119.959722    -0.000423    -0.443119   119.516603
	   27 B(1,9,10)       =    120.053983     0.000199     0.209986   120.263969
	   28 B(2,4,11)       =    119.960108     0.000473     0.462111   120.422219
	   29 B(2,4,17)       =    118.592446     0.000222     0.250356   118.842802
	   30 B(2,9,10)       =    119.986294     0.000224     0.233044   120.219338
	   31 B(3,1,9)        =    120.031219     0.000372     0.331582   120.362801
	   32 B(3,1,14)       =    119.119344    -0.000144    -0.122805   118.996540
	   33 B(3,11,4)       =    119.994870    -0.001254    -1.130403   118.864467
	   34 B(3,11,13)      =    120.029973     0.000619     0.557767   120.587740
	   35 B(4,2,9)        =    120.045019     0.000374     0.331113   120.376132
	   36 B(4,2,15)       =    119.143974    -0.000151    -0.129361   119.014613
	   37 B(4,11,13)      =    119.975136     0.000635     0.572647   120.547783
	   38 B(5,7,12)       =    120.091723    -0.000050    -0.052318   120.039405
	   39 B(5,7,20)       =    123.892124    -0.000112    -0.118533   123.773591
	   40 B(5,10,6)       =    119.891910    -0.001116    -1.049935   118.841975
	   41 B(5,10,9)       =    120.045354     0.000568     0.534511   120.579865
	   42 B(6,8,12)       =    120.050958    -0.000036    -0.041380   120.009578
	   43 B(6,8,21)       =    123.919940    -0.000116    -0.121506   123.798434
	   44 B(6,10,9)       =    120.062733     0.000548     0.515325   120.578058
	   45 B(7,5,10)       =    118.796892     0.000656     0.625322   119.422214
	   46 B(7,5,18)       =    119.750417    -0.000396    -0.388507   119.361910
	   47 B(7,12,8)       =    122.360631    -0.000111    -0.107838   122.252794
	   48 B(7,12,22)      =    118.861186     0.000050     0.048368   118.909553
	   49 B(8,6,10)       =    118.807808     0.000659     0.626146   119.433954
	   50 B(8,6,19)       =    119.764637    -0.000397    -0.388678   119.375959
	   51 B(8,12,22)      =    118.777997     0.000061     0.059447   118.837445
	   52 B(9,1,14)       =    120.849435    -0.000228    -0.208999   120.640437
	   53 B(9,2,15)       =    120.811005    -0.000223    -0.202007   120.608998
	   54 B(10,5,18)      =    121.452682    -0.000260    -0.236914   121.215768
	   55 B(10,6,19)      =    121.427551    -0.000261    -0.237506   121.190045
	   56 B(11,3,16)      =    121.438903    -0.000690    -0.708268   120.730636
	   57 B(11,4,17)      =    121.447411    -0.000695    -0.712458   120.734954
	   58 B(12,7,20)      =    116.015989     0.000162     0.170978   116.186967
	   59 B(12,8,21)      =    116.029067     0.000153     0.162805   116.191873
	   60 D(1,3,11,4)     =     -0.018609     0.000012     0.071475     0.052866
	   61 D(1,3,11,13)    =   -179.966279     0.000009     0.053487  -179.912792
	   62 D(1,9,2,4)      =      0.018608     0.000016     0.101990     0.120598
	   63 D(1,9,2,15)     =   -179.996257    -0.000014    -0.069370  -180.065627
	   64 D(1,9,10,5)     =    149.984316     0.000050     0.212873   150.197188
	   65 D(1,9,10,6)     =    -29.995996     0.000062     0.310741   -29.685256
	   66 D(2,4,11,3)     =      0.017261     0.000009     0.045828     0.063090
	   67 D(2,4,11,13)    =    179.964960     0.000011     0.063802   180.028762
	   68 D(2,9,1,3)      =     -0.019945     0.000005     0.015525    -0.004420
	   69 D(2,9,1,14)     =    179.967567    -0.000024    -0.145221   179.822346
	   70 D(2,9,10,5)     =    -30.003245     0.000062     0.309830   -29.693415
	   71 D(2,9,10,6)     =    150.016443     0.000074     0.407698   150.424142
	   72 D(3,1,9,10)     =    179.992491     0.000017     0.111718   180.104209
	   73 D(3,11,4,17)    =    179.948827     0.000011     0.055606   180.004432
	   74 D(4,2,9,10)     =   -179.993820     0.000004     0.005837  -179.987983
	   75 D(4,11,3,16)    =    179.935781     0.000015     0.089586   180.025367
	   76 D(5,7,12,8)     =      0.103960    -0.000000     0.003288     0.107248
	   77 D(5,7,12,22)    =    179.945229    -0.000001    -0.006048   179.939180
	   78 D(5,10,6,8)     =     -0.021843     0.000006     0.042998     0.021155
	   79 D(5,10,6,19)    =    180.000000    -0.000011    -0.054138   179.945862
	   80 D(6,8,12,7)     =     -0.091586    -0.000001    -0.006944    -0.098530
	   81 D(6,8,12,22)    =   -179.932981     0.000000     0.002403  -179.930578
	   82 D(6,10,5,7)     =      0.033714    -0.000006    -0.046428    -0.012714
	   83 D(6,10,5,18)    =    179.999012    -0.000022    -0.132675   179.866337
	   84 D(7,5,10,9)     =   -179.946631     0.000006     0.049458  -179.897173
	   85 D(7,12,8,21)    =    179.973449     0.000009     0.046768   180.020217
	   86 D(8,6,10,9)     =    179.958500    -0.000007    -0.052883   179.905616
	   87 D(8,12,7,20)    =    179.962496     0.000013     0.078169   180.040665
	   88 D(9,1,3,11)     =      0.019955    -0.000018    -0.101596    -0.081642
	   89 D(9,1,3,16)     =   -179.935743    -0.000021    -0.118921  -180.054664
	   90 D(9,2,4,11)     =     -0.017270    -0.000022    -0.132517    -0.149787
	   91 D(9,2,4,17)     =   -179.950778    -0.000024    -0.141450  -180.092228
	   92 D(9,10,5,18)    =      0.018667    -0.000009    -0.036789    -0.018122
	   93 D(9,10,6,19)    =     -0.019116    -0.000023    -0.150561    -0.169677
	   94 D(10,5,7,12)    =     -0.073184     0.000003     0.023562    -0.049623
	   95 D(10,5,7,20)    =   -179.920032    -0.000011    -0.057711  -179.977744
	   96 D(10,6,8,12)    =      0.048935    -0.000002    -0.016405     0.032531
	   97 D(10,6,8,21)    =    179.978512    -0.000013    -0.074205   179.904307
	   98 D(10,9,1,14)    =     -0.019997    -0.000012    -0.049028    -0.069025
	   99 D(10,9,2,15)    =     -0.008685    -0.000026    -0.165523    -0.174207
	  100 D(11,3,1,14)    =   -179.967773     0.000010     0.056539  -179.911234
	  101 D(11,4,2,15)    =    179.997347     0.000007     0.036145   180.033492
	  102 D(12,7,5,18)    =    179.960913     0.000018     0.108149   180.069062
	  103 D(12,8,6,19)    =   -179.973068     0.000015     0.079513  -179.893555
	  104 D(13,11,3,16)   =     -0.011889     0.000013     0.071598     0.059709
	  105 D(13,11,4,17)   =     -0.103475     0.000013     0.073579    -0.029896
	  106 D(14,1,3,16)    =      0.076530     0.000006     0.039214     0.115744
	  107 D(15,2,4,17)    =      0.063839     0.000005     0.027212     0.091051
	  108 D(18,5,7,20)    =      0.114065     0.000004     0.026876     0.140941
	  109 D(19,6,8,21)    =     -0.043491     0.000004     0.021712    -0.021779
	  110 D(20,7,12,22)   =     -0.196235     0.000012     0.068833    -0.127403
	  111 D(21,8,12,22)   =      0.132054     0.000010     0.056115     0.188168
	 ---------------------------------------------------------------------------
	Successfully symmetrized geometry.
	 Forces used to impose fixed constraints are not included.
	  Forces zeroed: 64 

  ==> Convergence Check <==

  Measures of convergence in internal coordinates in au.
  Criteria marked as inactive (o), active & met (*), and active & unmet ( ).
  --------------------------------------------------------------------------------------------- ~
   Step     Total Energy     Delta E     MAX Force     RMS Force      MAX Disp      RMS Disp    ~
  --------------------------------------------------------------------------------------------- ~
    Convergence Criteria    1.00e-06 *    3.00e-04 *             o    1.20e-03 *             o  ~
  --------------------------------------------------------------------------------------------- ~
      1    -553.66125130   -5.54e+02      3.32e-02      9.26e-03 o    3.30e-02      9.49e-03 o  ~
  ---------------------------------------------------------------------------------------------

	Writing optimization data to binary file.
	Structure for next step:
	Cartesian Geometry (in Angstrom)
	    C    -1.3052581003   0.7332670681  -0.5596787263
	    C    -0.3050400381   0.1211409345   1.5643159744
	    C    -2.3745585682   1.3042350182   0.1050827809
	    C    -1.3731752565   0.6885472076   2.2345477510
	    C     2.1232436133  -0.4869670282   0.0589531592
	    C     0.6820052418  -1.0062258980  -1.8101175538
	    C     3.1711547122  -1.0566911807  -0.6268897630
	    C     1.7627435363  -1.5641794633  -2.4530809544
	    C    -0.2587816537   0.1354582422   0.1609454256
	    C     0.8501942575  -0.4540631657  -0.5305468824
	    C    -2.4292355173   1.2922499907   1.5162681714
	    N     2.9707472284  -1.5781146112  -1.8537123652
	    O    -3.4115350401   1.8147785872   2.1296645218
	    H    -1.2867519240   0.7571448835  -1.6440124508
	    H     0.4931233863  -0.3367373138   2.1385639873
	    H    -3.1685921681   1.7598587936  -0.4764635133
	    H    -1.3841992782   0.6621847042   3.3183891204
	    H     2.2966712500  -0.0707624508   1.0424062497
	    H    -0.2829832748  -1.0021308339  -2.2998505869
	    H     4.1774399291  -1.1201028566  -0.2407894203
	    H     1.7131025268  -2.0090037199  -3.4356374330
	    H     3.7551599930  -1.9928386981  -2.3440933337
			--------------------------
			 OPTKING Finished Execution 
			--------------------------

    Structure for next step:
    Molecular point group: c1
    Full point group: C1

    Geometry (in Angstrom), charge = 0, multiplicity = 1:

    C           -1.304756885440     0.733083436615    -0.559979154132
    C           -0.304538823160     0.120957303009     1.564015546568
    C           -2.374057353268     1.304051386787     0.104782353101
    C           -1.372674041612     0.688363576137     2.234247323223
    C            2.123744828203    -0.487150659641     0.058652731425
    C            0.682506456714    -1.006409529424    -1.810417981632
    C            3.171655927152    -1.056874812158    -0.627190190825
    C            1.763244751251    -1.564363094776    -2.453381382220
    C           -0.258280438759     0.135274610799     0.160644997840
    C            0.850695472365    -0.454246797127    -0.530847310206
    C           -2.428734302429     1.292066359283     1.515967743648
    N            2.971248443270    -1.578298242667    -1.854012792979
    O           -3.411033825202     1.814594955759     2.129364094026
    H           -1.286250709078     0.756961252027    -1.644312878536
    H            0.493624601185    -0.336920945203     2.138263559543
    H           -3.168090953230     1.759675162130    -0.476763941117
    H           -1.383698063342     0.662001072717     3.318088692598
    H            2.297172464877    -0.070946082264     1.042105821919
    H           -0.282482059870    -1.002314465311    -2.300151014709
    H            4.177941144053    -1.120286488061    -0.241089848083
    H            1.713603741741    -2.009187351385    -3.435937860734
    H            3.755661207932    -1.993022329547    -2.344393761521

gradient() will perform analytic gradient computation.

*** tstart() called on gpu-2-9.local
*** at Sun Nov 12 16:00:13 2017

    SCF Algorithm Type (re)set to DF.

*** tstart() called on gpu-2-9.local
*** at Sun Nov 12 16:00:13 2017

   => Loading Basis Set <=

    Name: AUG-CC-PVTZ
    Role: ORBITAL
    Keyword: BASIS
    atoms 1-11  entry C          line   221 file /cbio/jclab/home/chayas/anaconda/envs/py35/share/psi4/basis/aug-cc-pvtz.gbs 
    atoms 12    entry N          line   267 file /cbio/jclab/home/chayas/anaconda/envs/py35/share/psi4/basis/aug-cc-pvtz.gbs 
    atoms 13    entry O          line   313 file /cbio/jclab/home/chayas/anaconda/envs/py35/share/psi4/basis/aug-cc-pvtz.gbs 
    atoms 14-22 entry H          line    34 file /cbio/jclab/home/chayas/anaconda/envs/py35/share/psi4/basis/aug-cc-pvtz.gbs 


         ---------------------------------------------------------
                                   SCF
            by Justin Turney, Rob Parrish, and Andy Simmonett
                              RHF Reference
                        8 Threads,   4768 MiB Core
         ---------------------------------------------------------

  ==> Geometry <==

    Molecular point group: c1
    Full point group: C1

    Geometry (in Angstrom), charge = 0, multiplicity = 1:

       Center              X                  Y                   Z               Mass       
    ------------   -----------------  -----------------  -----------------  -----------------
           C         -1.304756885440     0.733083436615    -0.559979154132    12.000000000000
           C         -0.304538823160     0.120957303009     1.564015546568    12.000000000000
           C         -2.374057353268     1.304051386787     0.104782353101    12.000000000000
           C         -1.372674041612     0.688363576137     2.234247323223    12.000000000000
           C          2.123744828203    -0.487150659641     0.058652731425    12.000000000000
           C          0.682506456714    -1.006409529424    -1.810417981632    12.000000000000
           C          3.171655927152    -1.056874812158    -0.627190190825    12.000000000000
           C          1.763244751251    -1.564363094776    -2.453381382220    12.000000000000
           C         -0.258280438759     0.135274610799     0.160644997840    12.000000000000
           C          0.850695472365    -0.454246797127    -0.530847310206    12.000000000000
           C         -2.428734302429     1.292066359283     1.515967743648    12.000000000000
           N          2.971248443270    -1.578298242667    -1.854012792979    14.003074004780
           O         -3.411033825202     1.814594955759     2.129364094026    15.994914619560
           H         -1.286250709078     0.756961252027    -1.644312878536     1.007825032070
           H          0.493624601185    -0.336920945203     2.138263559543     1.007825032070
           H         -3.168090953230     1.759675162130    -0.476763941117     1.007825032070
           H         -1.383698063342     0.662001072717     3.318088692598     1.007825032070
           H          2.297172464877    -0.070946082264     1.042105821919     1.007825032070
           H         -0.282482059870    -1.002314465311    -2.300151014709     1.007825032070
           H          4.177941144053    -1.120286488061    -0.241089848083     1.007825032070
           H          1.713603741741    -2.009187351385    -3.435937860734     1.007825032070
           H          3.755661207932    -1.993022329547    -2.344393761521     1.007825032070

  Running in c1 symmetry.

  Rotational constants: A =      0.09567  B =      0.01372  C =      0.01220 [cm^-1]
  Rotational constants: A =   2867.96590  B =    411.42024  C =    365.84509 [MHz]
  Nuclear repulsion =  700.719233324871084

  Charge       = 0
  Multiplicity = 1
  Electrons    = 90
  Nalpha       = 45
  Nbeta        = 45

  ==> Algorithm <==

  SCF Algorithm Type is DF.
  DIIS enabled.
  MOM disabled.
  Fractional occupation disabled.
  Guess Type is READ.
  Energy threshold   = 1.00e-10
  Density threshold  = 1.00e-10
  Integral threshold = 0.00e+00

  ==> Primary Basis <==

  Basis Set: AUG-CC-PVTZ
    Blend: AUG-CC-PVTZ
    Number of shells: 263
    Number of basis function: 805
    Number of Cartesian functions: 940
    Spherical Harmonics?: true
    Max angular momentum: 3

   => Loading Basis Set <=

    Name: (AUG-CC-PVTZ AUX)
    Role: JKFIT
    Keyword: DF_BASIS_SCF
    atoms 1-11  entry C          line   161 file /cbio/jclab/home/chayas/anaconda/envs/py35/share/psi4/basis/aug-cc-pvtz-jkfit.gbs 
    atoms 12    entry N          line   223 file /cbio/jclab/home/chayas/anaconda/envs/py35/share/psi4/basis/aug-cc-pvtz-jkfit.gbs 
    atoms 13    entry O          line   285 file /cbio/jclab/home/chayas/anaconda/envs/py35/share/psi4/basis/aug-cc-pvtz-jkfit.gbs 
    atoms 14-22 entry H          line    69 file /cbio/jclab/home/chayas/anaconda/envs/py35/share/psi4/basis/aug-cc-pvtz-jkfit.gbs 

  Reading orbitals from file 180, no projection.

  ==> Pre-Iterations <==

   -------------------------------------------------------
    Irrep   Nso     Nmo     Nalpha   Nbeta   Ndocc  Nsocc
   -------------------------------------------------------
     A        805     805       0       0       0       0
   -------------------------------------------------------
    Total     805     805      45      45      45       0
   -------------------------------------------------------

  ==> Integral Setup <==

  ==> DFJK: Density-Fitted J/K Matrices <==

    J tasked:                  Yes
    K tasked:                  Yes
    wK tasked:                  No
    OpenMP threads:              8
    Integrals threads:           8
    Memory (MB):              3576
    Algorithm:                Disk
    Integral Cache:           NONE
    Schwarz Cutoff:          1E-12
    Fitting Condition:       1E-12

   => Auxiliary Basis Set <=

  Basis Set: (AUG-CC-PVTZ AUX)
    Blend: AUG-CC-PVTZ-JKFIT
    Number of shells: 516
    Number of basis function: 1766
    Number of Cartesian functions: 2198
    Spherical Harmonics?: true
    Max angular momentum: 4

  Minimum eigenvalue in the overlap matrix is 6.5090961599E-07.
  Using Symmetric Orthogonalization.

  SCF Guess: Orbitals guess was supplied from a previous computation.

  ==> Iterations <==

                           Total Energy        Delta E     RMS |[F,P]|

   @DF-RHF iter   0:  -551.28229300344537   -5.51282e+02   5.96395e-04 
   @DF-RHF iter   1:  -551.22546225907706    5.68307e-02   9.13048e-05 
   @DF-RHF iter   2:  -551.22581627557452   -3.54016e-04   7.24683e-05 DIIS
   @DF-RHF iter   3:  -551.22603015243521   -2.13877e-04   1.13094e-05 DIIS
   @DF-RHF iter   4:  -551.22606122207821   -3.10696e-05   7.44749e-06 DIIS
   @DF-RHF iter   5:  -551.22607879523275   -1.75732e-05   4.73242e-06 DIIS
   @DF-RHF iter   6:  -551.22608485791125   -6.06268e-06   1.80064e-06 DIIS
   @DF-RHF iter   7:  -551.22608594421877   -1.08631e-06   6.28134e-07 DIIS
   @DF-RHF iter   8:  -551.22608599521709   -5.09983e-08   1.65167e-07 DIIS
   @DF-RHF iter   9:  -551.22608599856392   -3.34683e-09   8.87808e-08 DIIS
   @DF-RHF iter  10:  -551.22608599926855   -7.04631e-10   2.68804e-08 DIIS
   @DF-RHF iter  11:  -551.22608599936461   -9.60654e-11   1.20185e-08 DIIS
   @DF-RHF iter  12:  -551.22608599936939   -4.77485e-12   4.75258e-09 DIIS
   @DF-RHF iter  13:  -551.22608599939076   -2.13731e-11   1.82805e-09 DIIS
   @DF-RHF iter  14:  -551.22608599936837    2.23963e-11   5.41323e-10 DIIS
   @DF-RHF iter  15:  -551.22608599938803   -1.96678e-11   2.26555e-10 DIIS
   @DF-RHF iter  16:  -551.22608599939235   -4.32010e-12   1.34141e-10 DIIS
   @DF-RHF iter  17:  -551.22608599939599   -3.63798e-12   6.33120e-11 DIIS

  ==> Post-Iterations <==

    Orbital Energies (a.u.)
    -----------------------

    Doubly Occupied:                                                      

       1A    -20.444411     2A    -15.686842     3A    -11.348853  
       4A    -11.348827     5A    -11.303194     6A    -11.278271  
       7A    -11.278154     8A    -11.255557     9A    -11.230835  
      10A    -11.230788    11A    -11.216383    12A    -11.191918  
      13A    -11.191888    14A     -1.370684    15A     -1.270685  
      16A     -1.174852    17A     -1.107634    18A     -1.104927  
      19A     -1.000836    20A     -0.991818    21A     -0.928890  
      22A     -0.898963    23A     -0.829020    24A     -0.813078  
      25A     -0.786467    26A     -0.726434    27A     -0.718280  
      28A     -0.691004    29A     -0.668611    30A     -0.644957  
      31A     -0.617325    32A     -0.614383    33A     -0.609915  
      34A     -0.582085    35A     -0.562805    36A     -0.539792  
      37A     -0.516339    38A     -0.489737    39A     -0.485438  
      40A     -0.465178    41A     -0.417025    42A     -0.393396  
      43A     -0.351711    44A     -0.330091    45A     -0.235069  

    Virtual:                                                              

      46A     -0.005304    47A      0.012820    48A      0.022604  
      49A      0.024930    50A      0.038336    51A      0.041919  
      52A      0.043198    53A      0.054435    54A      0.057942  
      55A      0.061619    56A      0.062600    57A      0.068127  
      58A      0.069985    59A      0.073534    60A      0.084402  
      61A      0.095212    62A      0.096200    63A      0.102890  
      64A      0.108365    65A      0.108709    66A      0.118783  
      67A      0.119751    68A      0.120677    69A      0.127291  
      70A      0.127910    71A      0.132727    72A      0.134844  
      73A      0.137487    74A      0.148623    75A      0.149608  
      76A      0.151192    77A      0.157107    78A      0.162325  
      79A      0.164674    80A      0.164738    81A      0.170618  
      82A      0.172511    83A      0.180186    84A      0.182779  
      85A      0.183940    86A      0.188956    87A      0.195498  
      88A      0.198032    89A      0.205476    90A      0.211081  
      91A      0.214066    92A      0.216327    93A      0.224336  
      94A      0.225529    95A      0.229098    96A      0.234023  
      97A      0.236506    98A      0.249156    99A      0.250124  
     100A      0.254765   101A      0.256218   102A      0.258436  
     103A      0.269698   104A      0.270796   105A      0.272497  
     106A      0.284595   107A      0.290056   108A      0.290452  
     109A      0.294358   110A      0.297642   111A      0.300509  
     112A      0.301981   113A      0.307090   114A      0.311188  
     115A      0.319095   116A      0.322770   117A      0.328108  
     118A      0.330558   119A      0.331914   120A      0.339948  
     121A      0.341433   122A      0.345389   123A      0.347226  
     124A      0.350786   125A      0.357167   126A      0.357878  
     127A      0.362596   128A      0.370594   129A      0.373613  
     130A      0.375999   131A      0.384343   132A      0.390757  
     133A      0.395297   134A      0.400070   135A      0.400815  
     136A      0.402662   137A      0.417622   138A      0.418715  
     139A      0.421032   140A      0.429464   141A      0.434561  
     142A      0.435153   143A      0.440481   144A      0.444366  
     145A      0.449729   146A      0.454205   147A      0.456594  
     148A      0.459546   149A      0.463196   150A      0.467033  
     151A      0.468796   152A      0.476101   153A      0.480652  
     154A      0.481904   155A      0.485362   156A      0.486247  
     157A      0.491686   158A      0.493342   159A      0.495442  
     160A      0.500478   161A      0.501772   162A      0.512991  
     163A      0.514153   164A      0.514987   165A      0.518765  
     166A      0.524303   167A      0.524508   168A      0.527399  
     169A      0.532527   170A      0.538009   171A      0.543487  
     172A      0.546584   173A      0.552156   174A      0.554486  
     175A      0.563326   176A      0.566191   177A      0.568437  
     178A      0.574174   179A      0.582502   180A      0.589543  
     181A      0.592796   182A      0.601343   183A      0.607548  
     184A      0.612894   185A      0.620961   186A      0.626180  
     187A      0.630929   188A      0.640802   189A      0.644347  
     190A      0.652835   191A      0.653826   192A      0.663456  
     193A      0.670052   194A      0.675307   195A      0.681463  
     196A      0.682621   197A      0.692552   198A      0.693159  
     199A      0.704183   200A      0.705078   201A      0.706403  
     202A      0.711618   203A      0.721235   204A      0.725783  
     205A      0.726175   206A      0.734912   207A      0.740417  
     208A      0.747053   209A      0.748579   210A      0.759111  
     211A      0.767951   212A      0.769899   213A      0.777674  
     214A      0.779708   215A      0.785269   216A      0.790205  
     217A      0.793756   218A      0.801123   219A      0.815392  
     220A      0.818207   221A      0.826464   222A      0.831439  
     223A      0.839940   224A      0.843924   225A      0.844163  
     226A      0.856785   227A      0.857966   228A      0.871054  
     229A      0.872110   230A      0.875753   231A      0.876689  
     232A      0.882570   233A      0.888399   234A      0.890890  
     235A      0.899244   236A      0.909706   237A      0.912218  
     238A      0.913067   239A      0.918233   240A      0.921940  
     241A      0.926574   242A      0.930621   243A      0.930912  
     244A      0.941639   245A      0.942826   246A      0.954527  
     247A      0.957874   248A      0.965442   249A      0.967913  
     250A      0.968400   251A      0.974471   252A      0.977799  
     253A      0.979190   254A      0.988230   255A      0.994099  
     256A      0.997483   257A      0.999553   258A      1.005237  
     259A      1.011659   260A      1.012270   261A      1.017465  
     262A      1.026402   263A      1.029223   264A      1.032116  
     265A      1.037931   266A      1.039370   267A      1.043314  
     268A      1.044680   269A      1.053979   270A      1.058324  
     271A      1.060762   272A      1.065506   273A      1.076097  
     274A      1.079329   275A      1.080611   276A      1.090674  
     277A      1.092576   278A      1.096044   279A      1.096453  
     280A      1.108007   281A      1.114807   282A      1.115263  
     283A      1.121232   284A      1.124603   285A      1.129981  
     286A      1.133261   287A      1.140667   288A      1.149235  
     289A      1.150954   290A      1.160348   291A      1.160676  
     292A      1.170763   293A      1.173746   294A      1.178720  
     295A      1.183222   296A      1.186922   297A      1.192477  
     298A      1.199891   299A      1.200443   300A      1.200970  
     301A      1.205901   302A      1.206595   303A      1.213874  
     304A      1.215289   305A      1.224772   306A      1.230892  
     307A      1.236136   308A      1.243822   309A      1.244306  
     310A      1.251452   311A      1.254217   312A      1.267442  
     313A      1.273736   314A      1.274635   315A      1.278750  
     316A      1.288424   317A      1.295418   318A      1.306518  
     319A      1.308480   320A      1.313362   321A      1.320993  
[...]
	 B(7,12,8)        =         2.099590	     120.297643
	 B(7,12,22)       =         2.091598	     119.839723
	 B(8,6,10)        =         2.128086	     121.930356
	 B(8,6,19)        =         2.053500	     117.656874
	 B(8,12,22)       =         2.091812	     119.851992
	 B(9,1,14)        =         2.081824	     119.279702
	 B(9,2,15)        =         2.079597	     119.152139
	 B(10,5,18)       =         2.100556	     120.352995
	 B(10,6,19)       =         2.100674	     120.359740
	 B(11,3,16)       =         2.040167	     116.892978
	 B(11,4,17)       =         2.040755	     116.926636
	 B(12,7,20)       =         2.032528	     116.455280
	 B(12,8,21)       =         2.032483	     116.452692
	 D(1,3,11,4)      =         0.032221	       1.846154
	 D(1,3,11,13)     =        -3.117379	    -178.612685
	 D(1,9,2,4)       =         0.050075	       2.869077
	 D(1,9,2,15)      =         3.123307	     178.952282
	 D(1,9,10,5)      =         2.629348	     150.650534
	 D(1,9,10,6)      =        -0.409016	     -23.434895
	 D(2,4,11,3)      =         0.002802	       0.160561
	 D(2,4,11,13)     =        -3.130783	    -179.380668
	 D(2,9,1,3)       =        -0.014888	      -0.853048
	 D(2,9,1,14)      =         3.068002	     175.783581
	 D(2,9,10,5)      =        -0.378201	     -21.669347
	 D(2,9,10,6)      =         2.866620	     164.245223
	 D(3,1,9,10)      =        -3.027728	    -173.476050
	 D(3,11,4,17)     =        -3.132899	    -179.501884
	 D(4,2,9,10)      =         3.063250	     175.511295
	 D(4,11,3,16)     =        -3.087461	    -176.898467
	 D(5,7,12,8)      =         0.017942	       1.028001
	 D(5,7,12,22)     =         3.138794	     179.839658
	 D(5,10,6,8)      =         0.045254	       2.592842
	 D(5,10,6,19)     =         3.139530	     179.881844
	 D(6,8,12,7)      =        -0.010596	      -0.607126
	 D(6,8,12,22)     =        -3.131446	    -179.418637
	 D(6,10,5,7)      =        -0.037930	      -2.173232
	 D(6,10,5,18)     =         3.067972	     175.781823
	 D(7,5,10,9)      =        -3.083996	    -176.699972
	 D(7,12,8,21)     =         3.140824	     179.955977
	 D(8,6,10,9)      =         3.091560	     177.133324
	 D(8,12,7,20)     =        -3.093857	    -177.264946
	 D(9,1,3,11)      =        -0.026108	      -1.495855
	 D(9,1,3,16)      =         3.092706	     177.198976
	 D(9,2,4,11)      =        -0.044224	      -2.533843
	 D(9,2,4,17)      =         3.091240	     177.114984
	 D(9,10,5,18)     =         0.021905	       1.255083
	 D(9,10,6,19)     =        -0.097349	      -5.577674
	 D(10,5,7,12)     =         0.008043	       0.460810
	 D(10,5,7,20)     =         3.117895	     178.642209
	 D(10,6,8,12)     =        -0.022797	      -1.306165
	 D(10,6,8,21)     =         3.108320	     178.093642
	 D(10,9,1,14)     =         0.055162	       3.160578
	 D(10,9,2,15)     =        -0.146704	      -8.405500
	 D(11,3,1,14)     =        -3.109241	    -178.146412
	 D(11,4,2,15)     =        -3.117650	    -178.628212
	 D(12,7,5,18)     =        -3.098765	    -177.546151
	 D(12,8,6,19)     =        -3.118296	    -178.665228
	 D(13,11,3,16)    =         0.046124	       2.642694
	 D(13,11,4,17)    =         0.016701	       0.956887
	 D(14,1,3,16)     =         0.009572	       0.548419
	 D(15,2,4,17)     =         0.017813	       1.020614
	 D(18,5,7,20)     =         0.011087	       0.635248
	 D(19,6,8,21)     =         0.012821	       0.734579
	 D(20,7,12,22)    =         0.026995	       1.546711
	 D(21,8,12,22)    =         0.019975	       1.144465

	Current energy   :      -553.6795216860

	Energy change for the previous step:
		Projected    :        -0.0000010807
		Actual       :        -0.0000013501

	Performing BFGS update.
	Previous computed or guess Hessian on step 1.
	Steps to be used in Hessian update: 13 12
	Adding user-defined constraint: Fragment 1; Coordinate 64:
		Value =     2.629348; Fixed value    =     2.617990
		Force =    -0.009370; Force constant =     0.825000
	Removing off-diagonal coupling between coordinate 64 and others.
	Taking RFO optimization step.
	Going to follow RFO solution 1.
	Rejecting RFO root 1 because normalization gives large value.
	Rejecting RFO root 2 because normalization gives large value.
	Rejecting RFO root 3 because normalization gives large value.
	Using RFO vector 4.
	Norm of target step-size    0.00315
	Projected energy change by RFO approximation:         0.0000001395

	Back-transformation to cartesian coordinates...
	Successfully converged to displaced geometry.

	--- Internal Coordinate Step in ANG or DEG, aJ/ANG or AJ/DEG ---
	 ---------------------------------------------------------------------------
	   Coordinate                Previous        Force       Change         New 
	   ----------                --------       ------       ------       ------
	    1 R(1,3)          =      1.357818     0.000244     0.000027     1.357845
	    2 R(1,9)          =      1.423821     0.000050    -0.000003     1.423818
	    3 R(1,14)         =      1.080913     0.000151     0.000018     1.080931
	    4 R(2,4)          =      1.357713     0.000276     0.000039     1.357753
	    5 R(2,9)          =      1.424044     0.000247    -0.000056     1.423988
	    6 R(2,15)         =      1.081254    -0.000019     0.000013     1.081268
	    7 R(3,11)         =      1.450010     0.000218    -0.000049     1.449961
	    8 R(3,16)         =      1.079971     0.000061    -0.000001     1.079970
	    9 R(4,11)         =      1.450257     0.000202    -0.000000     1.450257
	   10 R(4,17)         =      1.079961     0.000266    -0.000004     1.079957
	   11 R(5,7)          =      1.357104     0.000200     0.000018     1.357122
	   12 R(5,10)         =      1.427398     0.000204     0.000002     1.427400
	   13 R(5,18)         =      1.077222     0.000011     0.000000     1.077223
	   14 R(6,8)          =      1.356911     0.000200     0.000019     1.356930
	   15 R(6,10)         =      1.427802     0.000064    -0.000066     1.427736
	   16 R(6,19)         =      1.077408     0.000076     0.000010     1.077418
	   17 R(7,12)         =      1.360673     0.000223    -0.000023     1.360650
	   18 R(7,20)         =      1.077494     0.000043     0.000004     1.077498
	   19 R(8,12)         =      1.360640     0.000126     0.000001     1.360640
	   20 R(8,21)         =      1.077454     0.000178    -0.000005     1.077449
	   21 R(9,10)         =      1.396160     0.000402     0.000021     1.396181
	   22 R(11,13)        =      1.240137     0.000234     0.000020     1.240156
	   23 R(12,22)        =      1.004507     0.000129     0.000000     1.004507
	   24 B(1,3,11)       =    122.169385     0.000001     0.001349   122.170734
	   25 B(1,3,16)       =    120.925534    -0.000000    -0.002242   120.923292
	   26 B(1,9,2)        =    117.030640     0.000001     0.002238   117.032878
	   27 B(1,9,10)       =    121.395877    -0.000004    -0.006280   121.389597
	   28 B(2,4,11)       =    122.055349    -0.000001    -0.001058   122.054292
	   29 B(2,4,17)       =    121.017138     0.000001     0.001487   121.018626
	   30 B(2,9,10)       =    121.151189     0.000002     0.008374   121.159563
	   31 B(3,1,9)        =    121.784330    -0.000001    -0.001988   121.782342
	   32 B(3,1,14)       =    118.852391     0.000002     0.005945   118.858336
	   33 B(3,11,4)       =    115.006870    -0.000000     0.000775   115.007646
	   34 B(3,11,13)      =    122.502374     0.000001     0.001155   122.503529
	   35 B(4,2,9)        =    121.876867    -0.000000    -0.000372   121.876494
	   36 B(4,2,15)       =    118.857612     0.000000     0.002434   118.860046
	   37 B(4,11,13)      =    122.489091    -0.000001    -0.001743   122.487348
	   38 B(5,7,12)       =    120.702190     0.000001     0.001688   120.703879
	   39 B(5,7,20)       =    122.819235    -0.000001    -0.003710   122.815525
	   40 B(5,10,6)       =    114.418251     0.000001     0.000828   114.419078
	   41 B(5,10,9)       =    122.784046    -0.000000    -0.005938   122.778108
	   42 B(6,8,12)       =    120.682317    -0.000000    -0.000558   120.681758
	   43 B(6,8,21)       =    122.862455     0.000000    -0.000457   122.861998
	   44 B(6,10,9)       =    122.560128    -0.000001     0.002075   122.562203
	   45 B(7,5,10)       =    121.916729    -0.000001    -0.002227   121.914502
	   46 B(7,5,18)       =    117.700086     0.000001     0.001601   117.701687
	   47 B(7,12,8)       =    120.297643    -0.000000    -0.001233   120.296410
	   48 B(7,12,22)      =    119.839723     0.000000     0.000856   119.840578
	   49 B(8,6,10)       =    121.930356     0.000000     0.000689   121.931045
	   50 B(8,6,19)       =    117.656874    -0.000000    -0.001535   117.655338
	   51 B(8,12,22)      =    119.851992    -0.000000     0.000859   119.852851
	   52 B(9,1,14)       =    119.279702    -0.000000    -0.000908   119.278794
	   53 B(9,2,15)       =    119.152139     0.000000    -0.003497   119.148643
	   54 B(10,5,18)      =    120.352995     0.000001    -0.000002   120.352992
	   55 B(10,6,19)      =    120.359740     0.000000    -0.000182   120.359558
	   56 B(11,3,16)      =    116.892978    -0.000001     0.000806   116.893784
	   57 B(11,4,17)      =    116.926636    -0.000000    -0.000506   116.926130
	   58 B(12,7,20)      =    116.455280     0.000000     0.001813   116.457094
	   59 B(12,8,21)      =    116.452692     0.000000     0.001153   116.453844
	   60 D(1,3,11,4)     =      1.846154     0.000000    -0.032564     1.813590
	   61 D(1,3,11,13)    =   -178.612685    -0.000000    -0.005952  -178.618637
	   62 D(1,9,2,4)      =      2.869077     0.000001    -0.008570     2.860507
	   63 D(1,9,2,15)     =    178.952282     0.000000    -0.033153   178.919128
	   64 D(1,9,10,5)     =    150.650534    -0.000002     0.000177   150.650711
	   65 D(1,9,10,6)     =    -23.434895    -0.000001     0.037686   -23.397209
	   66 D(2,4,11,3)     =      0.160561    -0.000000     0.020741     0.181301
	   67 D(2,4,11,13)    =   -179.380668    -0.000000    -0.005881  -179.386549
	   68 D(2,9,1,3)      =     -0.853048    -0.000001    -0.003296    -0.856344
	   69 D(2,9,1,14)     =    175.783581    -0.000000     0.058751   175.842331
	   70 D(2,9,10,5)     =    -21.669347    -0.000001    -0.039298   -21.708646
	   71 D(2,9,10,6)     =    164.245223     0.000000    -0.001789   164.243434
	   72 D(3,1,9,10)     =   -173.476050     0.000000    -0.041701  -173.517751
	   73 D(3,11,4,17)    =   -179.501884    -0.000000     0.035148  -179.466736
	   74 D(4,2,9,10)     =    175.511295    -0.000001     0.028592   175.539887
	   75 D(4,11,3,16)    =   -176.898467     0.000000    -0.028032  -176.926499
	   76 D(5,7,12,8)     =      1.028001     0.000000    -0.021513     1.006488
	   77 D(5,7,12,22)    =    179.839658    -0.000000     0.005679   179.845337
	   78 D(5,10,6,8)     =      2.592842     0.000000     0.035528     2.628370
	   79 D(5,10,6,19)    =    179.881844     0.000000     0.009338   179.891182
	   80 D(6,8,12,7)     =     -0.607126    -0.000000     0.040253    -0.566872
	   81 D(6,8,12,22)    =   -179.418637    -0.000000     0.013058  -179.405579
	   82 D(6,10,5,7)     =     -2.173232    -0.000000    -0.016785    -2.190017
	   83 D(6,10,5,18)    =    175.781823    -0.000000    -0.037916   175.743907
	   84 D(7,5,10,9)     =   -176.699972     0.000001     0.017816  -176.682157
	   85 D(7,12,8,21)    =    179.955977    -0.000000     0.024789   179.980765
	   86 D(8,6,10,9)     =    177.133324    -0.000001     0.000519   177.133844
	   87 D(8,12,7,20)    =   -177.264946     0.000000    -0.013832  -177.278778
	   88 D(9,1,3,11)     =     -1.495855     0.000000     0.024738    -1.471117
	   89 D(9,1,3,16)     =    177.198976     0.000000     0.020066   177.219042
	   90 D(9,2,4,11)     =     -2.533843    -0.000000    -0.001084    -2.534927
	   91 D(9,2,4,17)     =    177.114984    -0.000000    -0.016081   177.098903
	   92 D(9,10,5,18)    =      1.255083     0.000001    -0.003316     1.251767
	   93 D(9,10,6,19)    =     -5.577674    -0.000001    -0.025671    -5.603345
	   94 D(10,5,7,12)    =      0.460810     0.000000     0.010630     0.471440
	   95 D(10,5,7,20)    =    178.642209     0.000000     0.002551   178.644760
	   96 D(10,6,8,12)    =     -1.306165    -0.000000    -0.048391    -1.354555
	   97 D(10,6,8,21)    =    178.093642    -0.000000    -0.031898   178.061743
	   98 D(10,9,1,14)    =      3.160578     0.000001     0.020346     3.180924
	   99 D(10,9,2,15)    =     -8.405500    -0.000001     0.004008    -8.401492
	  100 D(11,3,1,14)    =   -178.146412    -0.000000    -0.036834  -178.183246
	  101 D(11,4,2,15)    =   -178.628212     0.000000     0.023655  -178.604557
	  102 D(12,7,5,18)    =   -177.546151     0.000000     0.031254  -177.514897
	  103 D(12,8,6,19)    =   -178.665228    -0.000000    -0.022911  -178.688139
	  104 D(13,11,3,16)   =      2.642694    -0.000000    -0.001420     2.641274
	  105 D(13,11,4,17)   =      0.956887     0.000000     0.008527     0.965414
	  106 D(14,1,3,16)    =      0.548419    -0.000000    -0.041506     0.506913
	  107 D(15,2,4,17)    =      1.020614    -0.000000     0.008659     1.029274
	  108 D(18,5,7,20)    =      0.635248     0.000000     0.023175     0.658423
	  109 D(19,6,8,21)    =      0.734579    -0.000000    -0.006419     0.728160
	  110 D(20,7,12,22)   =      1.546711     0.000000     0.013360     1.560071
	  111 D(21,8,12,22)   =      1.144465    -0.000000    -0.002407     1.142058
	 ---------------------------------------------------------------------------
	Successfully symmetrized geometry.
	 Forces used to impose fixed constraints are not included.
	  Forces zeroed: 64 

  ==> Convergence Check <==

  Measures of convergence in internal coordinates in au.
  Criteria marked as inactive (o), active & met (*), and active & unmet ( ).
  ---------------------------------------------------------------------------------------------
   Step     Total Energy     Delta E     MAX Force     RMS Force      MAX Disp      RMS Disp   
  ---------------------------------------------------------------------------------------------
    Convergence Criteria    1.00e-06 *    3.00e-04 *             o    1.20e-03 *             o
  ---------------------------------------------------------------------------------------------
     14    -553.67952169   -1.35e-06      5.38e-05 *    1.84e-05 o    1.03e-03 *    2.99e-04 o  ~
  ---------------------------------------------------------------------------------------------


  **** Optimization is complete! (in 14 steps) ****

  ==> Optimization Summary <==

  Measures of convergence in internal coordinates in au.
  --------------------------------------------------------------------------------------------------------------- ~
   Step         Total Energy             Delta E       MAX Force       RMS Force        MAX Disp        RMS Disp  ~
  --------------------------------------------------------------------------------------------------------------- ~
      1    -553.661251302873   -553.661251302873      0.03321032      0.00926145      0.03302099      0.00948645  ~
      2    -553.669384782636     -0.008133479763      0.02073636      0.00628673      0.02855707      0.00948492  ~
      3    -553.674629886664     -0.005245104028      0.01185005      0.00368818      0.02422481      0.00948420  ~
      4    -553.677442197927     -0.002812311263      0.00505319      0.00172282      0.04485293      0.00949035  ~
      5    -553.678651566252     -0.001209368324      0.00316516      0.00075360      0.05480327      0.00948870  ~
      6    -553.679217634627     -0.000566068375      0.00198332      0.00043409      0.05596748      0.00948675  ~
      7    -553.679549306452     -0.000331671825      0.00167052      0.00031795      0.05149273      0.00948908  ~
      8    -553.679666702479     -0.000117396027      0.00216748      0.00032969      0.00609094      0.00143110  ~
      9    -553.679592469737      0.000074232742      0.00092551      0.00014200      0.00871868      0.00190878  ~
     10    -553.679581299493      0.000011170243      0.00080993      0.00011987      0.05431649      0.00948996  ~
     11    -553.679378640095      0.000202659398      0.00140507      0.00031018      0.04830350      0.00839974  ~
     12    -553.679515114282     -0.000136474187      0.00026594      0.00006892      0.00909459      0.00149247  ~
     13    -553.679520335945     -0.000005221662      0.00010679      0.00002283      0.00135043      0.00031517  ~
     14    -553.679521685999     -0.000001350055      0.00009630      0.00002056      0.00102540      0.00029894  ~
  --------------------------------------------------------------------------------------------------------------- ~

	Writing optimization data to binary file.
	Final energy is   -553.6795216859992
	Final (previous) structure:
	Cartesian Geometry (in Angstrom)
	    C    -1.3787336588   0.6108322819  -0.5445422911
	    C    -0.3131280587   0.1450915000   1.5875168269
	    C    -2.3811131371   1.2692296956   0.0921817982
	    C    -1.3283195185   0.7652205289   2.2418954529
	    C     2.0974204285  -0.5991711510   0.0757097660
	    C     0.7183238819  -0.9992941311  -1.8475972874
	    C     3.1617604067  -1.0852482289  -0.6117787363
	    C     1.8037722552  -1.4863774657  -2.5000988650
	    C    -0.3035802222   0.0101159559   0.1699164108
	    C     0.7901841423  -0.5472061637  -0.4951655165
	    C    -2.4389685923   1.3759340229   1.5371025119
	    N     3.0176342564  -1.5362764150  -1.8874087644
	    O    -3.3646125656   1.9540788375   2.1260597495
	    H    -1.3722131193   0.5901819104  -1.6252386521
	    H     0.4778679582  -0.3124604417   2.1655155411
	    H    -3.1660703790   1.7581927342  -0.4655759201
	    H    -1.3443316198   0.8193577626   3.3203797336
	    H     2.2738310973  -0.2176701121   1.0675484687
	    H    -0.2232156284  -1.0026906182  -2.3713333024
	    H     4.1583633965  -1.1116359153  -0.2030246211
	    H     1.7602411816  -1.8591069198  -3.5100908905
	    H     3.8147294294  -1.8911709763  -2.3851262865
	Saving final (previous) structure.
			--------------------------
			 OPTKING Finished Execution 
			--------------------------

    Final optimized geometry and variables:
    Molecular point group: c1
    Full point group: C1

    Geometry (in Angstrom), charge = 0, multiplicity = 1:

    C           -1.378733658807     0.610832281892    -0.544542291058
    C           -0.313128058658     0.145091500020     1.587516826926
    C           -2.381113137132     1.269229695638     0.092181798152
    C           -1.328319518451     0.765220528949     2.241895452919
    C            2.097420428547    -0.599171150974     0.075709766000
    C            0.718323881877    -0.999294131066    -1.847597287387
    C            3.161760406686    -1.085248228869    -0.611778736279
    C            1.803772255232    -1.486377465718    -2.500098865037
    C           -0.303580222241     0.010115955895     0.169916410790
    C            0.790184142252    -0.547206163675    -0.495165516530
    C           -2.438968592334     1.375934022867     1.537102511892
    N            3.017634256403    -1.536276414965    -1.887408764366
    O           -3.364612565603     1.954078837512     2.126059749525
    H           -1.372213119266     0.590181910365    -1.625238652101
    H            0.477867958181    -0.312460441722     2.165515541060
    H           -3.166070379003     1.758192734167    -0.465575920059
    H           -1.344331619755     0.819357762650     3.320379733581
    H            2.273831097347    -0.217670112075     1.067548468691
    H           -0.223215628364    -1.002690618181    -2.371333302443
    H            4.158363396520    -1.111635915304    -0.203024621079
    H            1.760241181578    -1.859106919822    -3.510090890460
    H            3.814729429354    -1.891170976264    -2.385126286512

	Cleaning optimization helper files.

*** Psi4 exiting successfully. Buy a developer a beer!
