
    -----------------------------------------------------------------------
          Psi4: An Open-Source Ab Initio Electronic Structure Package
                               Psi4 1.1 release

                         Git: Rev {HEAD} add49b9 


    R. M. Parrish, L. A. Burns, D. G. A. Smith, A. C. Simmonett,
    A. E. DePrince III, E. G. Hohenstein, U. Bozkaya, A. Yu. Sokolov,
    R. Di Remigio, R. M. Richard, J. F. Gonthier, A. M. James,
    H. R. McAlexander, A. Kumar, M. Saitow, X. Wang, B. P. Pritchard,
    P. Verma, H. F. Schaefer III, K. Patkowski, R. A. King, E. F. Valeev,
    F. A. Evangelista, J. M. Turney, T. D. Crawford, and C. D. Sherrill,
    J. Chem. Theory Comput. in press (2017).
    (doi: 10.1021/acs.jctc.7b00174)

    -----------------------------------------------------------------------


    Psi4 started on: Saturday, 11 November 2017 11:09PM

    Process ID:  11208
    PSIDATADIR: /cbio/jclab/home/chayas/anaconda/envs/py35/share/psi4
    Memory:     500.0 MiB
    Threads:    8
    
  ==> Input File <==

--------------------------------------------------------------------------

memory 5 Gb

molecule phepyrFOH_neutral {
  symmetry C1
  0 1 
  C      1.885   -1.036   -0.112
  C      0.807   -0.463   0.561
  C      3.825   -3.269   -0.988
  C      5.328   -1.753   0.119
  C      1.800   -1.079   2.676
  C      4.927   -3.802   -1.637
  C      6.363   -2.354   -0.579
  C      2.921   -1.631   0.608
  C      4.038   -2.225   -0.095
  C      0.764   -0.484   1.955
  C      2.878   -1.652   2.002
  N      6.195   -3.370   -1.455
  O      -0.289   0.076   2.612
  F      3.866   -2.220   2.709
  H      1.904   -1.012   -1.199
  H      0.002   -0.002   -0.006
  H      2.833   -3.663   -1.183
  H      5.532   -0.940   0.809
  H      1.772   -1.099   3.762
  H      4.814   -4.616   -2.345
  H      7.387   -2.023   -0.446
  H      -0.923   0.446   1.977
  units Angstrom
}

dih_string = "2 10 13 22 0.001"
set optking fixed_dihedral = $dih_string

optimize('MP2/aug-cc-PVTZ')
--------------------------------------------------------------------------

  Memory set to   4.657 GiB by Python driver.
gradient() will perform analytic gradient computation.

*** tstart() called on gpu-2-10.local
*** at Sat Nov 11 23:09:35 2017

    SCF Algorithm Type (re)set to DF.

*** tstart() called on gpu-2-10.local
*** at Sat Nov 11 23:09:35 2017

   => Loading Basis Set <=

    Name: AUG-CC-PVTZ
    Role: ORBITAL
    Keyword: BASIS
    atoms 1-11  entry C          line   221 file /cbio/jclab/home/chayas/anaconda/envs/py35/share/psi4/basis/aug-cc-pvtz.gbs 
    atoms 12    entry N          line   267 file /cbio/jclab/home/chayas/anaconda/envs/py35/share/psi4/basis/aug-cc-pvtz.gbs 
    atoms 13    entry O          line   313 file /cbio/jclab/home/chayas/anaconda/envs/py35/share/psi4/basis/aug-cc-pvtz.gbs 
    atoms 14    entry F          line   359 file /cbio/jclab/home/chayas/anaconda/envs/py35/share/psi4/basis/aug-cc-pvtz.gbs 
    atoms 15-22 entry H          line    34 file /cbio/jclab/home/chayas/anaconda/envs/py35/share/psi4/basis/aug-cc-pvtz.gbs 


         ---------------------------------------------------------
                                   SCF
            by Justin Turney, Rob Parrish, and Andy Simmonett
                              RHF Reference
                        8 Threads,   4768 MiB Core
         ---------------------------------------------------------

  ==> Geometry <==

    Molecular point group: c1
    Full point group: C1

    Geometry (in Angstrom), charge = 0, multiplicity = 1:

       Center              X                  Y                   Z               Mass       
    ------------   -----------------  -----------------  -----------------  -----------------
           C         -1.317756033077     0.752527541677    -0.790997754525    12.000000000000
           C         -2.395756033077     1.325527541677    -0.117997754525    12.000000000000
           C          0.622243966923    -1.480472458323    -1.666997754525    12.000000000000
           C          2.125243966923     0.035527541677    -0.559997754525    12.000000000000
           C         -1.402756033077     0.709527541677     1.997002245475    12.000000000000
           C          1.724243966923    -2.013472458323    -2.315997754525    12.000000000000
           C          3.160243966923    -0.565472458323    -1.257997754525    12.000000000000
           C         -0.281756033077     0.157527541677    -0.070997754525    12.000000000000
           C          0.835243966923    -0.436472458323    -0.773997754525    12.000000000000
           C         -2.438756033077     1.304527541677     1.276002245475    12.000000000000
           C         -0.324756033077     0.136527541677     1.323002245475    12.000000000000
           N          2.992243966923    -1.581472458323    -2.133997754525    14.003074004780
           O         -3.491756033077     1.864527541677     1.933002245475    15.994914619560
           F          0.663243966923    -0.431472458323     2.030002245475    18.998403224000
           H         -1.298756033077     0.776527541677    -1.877997754525     1.007825032070
           H         -3.200756033077     1.786527541677    -0.684997754525     1.007825032070
           H         -0.369756033077    -1.874472458323    -1.861997754525     1.007825032070
           H          2.329243966923     0.848527541677     0.130002245475     1.007825032070
           H         -1.430756033077     0.689527541677     3.083002245475     1.007825032070
           H          1.611243966923    -2.827472458323    -3.023997754525     1.007825032070
           H          4.184243966923    -0.234472458323    -1.124997754525     1.007825032070
           H         -4.125756033077     2.234527541677     1.298002245475     1.007825032070

  Running in c1 symmetry.

  Rotational constants: A =      0.06301  B =      0.01308  C =      0.01164 [cm^-1]
  Rotational constants: A =   1889.12321  B =    392.02069  C =    349.05381 [MHz]
  Nuclear repulsion =  813.885962441557240

  Charge       = 0
  Multiplicity = 1
  Electrons    = 98
  Nalpha       = 49
  Nbeta        = 49

  ==> Algorithm <==

  SCF Algorithm Type is DF.
  DIIS enabled.
  MOM disabled.
  Fractional occupation disabled.
  Guess Type is SAD.
  Energy threshold   = 1.00e-10
  Density threshold  = 1.00e-10
  Integral threshold = 0.00e+00

  ==> Primary Basis <==

  Basis Set: AUG-CC-PVTZ
    Blend: AUG-CC-PVTZ
    Number of shells: 268
    Number of basis function: 828
    Number of Cartesian functions: 970
    Spherical Harmonics?: true
    Max angular momentum: 3

   => Loading Basis Set <=

    Name: (AUG-CC-PVTZ AUX)
    Role: JKFIT
    Keyword: DF_BASIS_SCF
    atoms 1-11  entry C          line   161 file /cbio/jclab/home/chayas/anaconda/envs/py35/share/psi4/basis/aug-cc-pvtz-jkfit.gbs 
    atoms 12    entry N          line   223 file /cbio/jclab/home/chayas/anaconda/envs/py35/share/psi4/basis/aug-cc-pvtz-jkfit.gbs 
    atoms 13    entry O          line   285 file /cbio/jclab/home/chayas/anaconda/envs/py35/share/psi4/basis/aug-cc-pvtz-jkfit.gbs 
    atoms 14    entry F          line   347 file /cbio/jclab/home/chayas/anaconda/envs/py35/share/psi4/basis/aug-cc-pvtz-jkfit.gbs 
    atoms 15-22 entry H          line    69 file /cbio/jclab/home/chayas/anaconda/envs/py35/share/psi4/basis/aug-cc-pvtz-jkfit.gbs 

  ==> Pre-Iterations <==

   -------------------------------------------------------
    Irrep   Nso     Nmo     Nalpha   Nbeta   Ndocc  Nsocc
   -------------------------------------------------------
     A        828     828       0       0       0       0
   -------------------------------------------------------
    Total     828     828      49      49      49       0
   -------------------------------------------------------

  ==> Integral Setup <==

  ==> DFJK: Density-Fitted J/K Matrices <==

    J tasked:                  Yes
    K tasked:                  Yes
    wK tasked:                  No
    OpenMP threads:              8
    Integrals threads:           8
    Memory (MB):              3576
    Algorithm:                Disk
    Integral Cache:           NONE
    Schwarz Cutoff:          1E-12
    Fitting Condition:       1E-12

   => Auxiliary Basis Set <=

  Basis Set: (AUG-CC-PVTZ AUX)
    Blend: AUG-CC-PVTZ-JKFIT
    Number of shells: 532
    Number of basis function: 1824
    Number of Cartesian functions: 2274
    Spherical Harmonics?: true
    Max angular momentum: 4

  Minimum eigenvalue in the overlap matrix is 6.8322384699E-07.
  Using Symmetric Orthogonalization.

  SCF Guess: Superposition of Atomic Densities via on-the-fly atomic UHF.

  ==> Iterations <==

                           Total Energy        Delta E     RMS |[F,P]|

   @DF-RHF iter   0:  -655.82648498852382   -6.55826e+02   2.03470e-02 
   @DF-RHF iter   1:  -649.77753072416499    6.04895e+00   2.07524e-03 
   @DF-RHF iter   2:  -650.10317788970747   -3.25647e-01   9.05207e-04 DIIS
   @DF-RHF iter   3:  -650.15706659341640   -5.38887e-02   3.24619e-04 DIIS
   @DF-RHF iter   4:  -650.17188774399165   -1.48212e-02   7.30245e-05 DIIS
   @DF-RHF iter   5:  -650.17321035666237   -1.32261e-03   4.33035e-05 DIIS
   @DF-RHF iter   6:  -650.17346207172386   -2.51715e-04   1.95806e-05 DIIS
   @DF-RHF iter   7:  -650.17349763545280   -3.55637e-05   6.04711e-06 DIIS
   @DF-RHF iter   8:  -650.17350138517634   -3.74972e-06   1.02515e-06 DIIS
   @DF-RHF iter   9:  -650.17350179589937   -4.10723e-07   4.58414e-07 DIIS
   @DF-RHF iter  10:  -650.17350189453191   -9.86325e-08   3.17964e-07 DIIS
   @DF-RHF iter  11:  -650.17350192777269   -3.32408e-08   1.16407e-07 DIIS
   @DF-RHF iter  12:  -650.17350193478774   -7.01505e-09   6.18695e-08 DIIS
   @DF-RHF iter  13:  -650.17350193570906   -9.21318e-10   2.14531e-08 DIIS
   @DF-RHF iter  14:  -650.17350193581547   -1.06411e-10   5.81098e-09 DIIS
   @DF-RHF iter  15:  -650.17350193583150   -1.60298e-11   2.39259e-09 DIIS
   @DF-RHF iter  16:  -650.17350193584639   -1.48930e-11   1.22601e-09 DIIS
   @DF-RHF iter  17:  -650.17350193583934    7.04858e-12   4.90768e-10 DIIS
   @DF-RHF iter  18:  -650.17350193584411   -4.77485e-12   2.46904e-10 DIIS
   @DF-RHF iter  19:  -650.17350193584093    3.18323e-12   9.44822e-11 DIIS

  ==> Post-Iterations <==

    Orbital Energies (a.u.)
    -----------------------

    Doubly Occupied:                                                      

       1A    -26.326124     2A    -20.608824     3A    -15.565363  
       4A    -11.348751     5A    -11.327990     6A    -11.275022  
       7A    -11.274160     8A    -11.266590     9A    -11.265423  
      10A    -11.253147    11A    -11.250885    12A    -11.249501  
      13A    -11.239748    14A    -11.238304    15A     -1.644131  
      16A     -1.423488    17A     -1.250518    18A     -1.181951  
      19A     -1.110260    20A     -1.041684    21A     -1.034574  
      22A     -1.019350    23A     -0.890936    24A     -0.876838  
      25A     -0.852899    26A     -0.827682    27A     -0.781045  
      28A     -0.735907    29A     -0.721838    30A     -0.710226  
      31A     -0.694067    32A     -0.665073    33A     -0.662857  
      34A     -0.654826    35A     -0.630684    36A     -0.608490  
      37A     -0.608144    38A     -0.599137    39A     -0.581861  
      40A     -0.549951    41A     -0.536922    42A     -0.526010  
      43A     -0.520499    44A     -0.494748    45A     -0.419466  
      46A     -0.387108    47A     -0.359716    48A     -0.349273  
      49A     -0.324839  

    Virtual:                                                              

      50A      0.019394    51A      0.031160    52A      0.033645  
      53A      0.037050    54A      0.042081    55A      0.047835  
      56A      0.053179    57A      0.057180    58A      0.076081  
      59A      0.082707    60A      0.083888    61A      0.086377  
      62A      0.089270    63A      0.095192    64A      0.098016  
      65A      0.100333    66A      0.103418    67A      0.108603  
      68A      0.109848    69A      0.111232    70A      0.116191  
      71A      0.118292    72A      0.120033    73A      0.123623  
      74A      0.126679    75A      0.130340    76A      0.133975  
      77A      0.135056    78A      0.141978    79A      0.144740  
      80A      0.150468    81A      0.152082    82A      0.154737  
      83A      0.155184    84A      0.155915    85A      0.166947  
      86A      0.171882    87A      0.174092    88A      0.182595  
      89A      0.186030    90A      0.194726    91A      0.200017  
      92A      0.208117    93A      0.213535    94A      0.219053  
      95A      0.224573    96A      0.228079    97A      0.235072  
      98A      0.235498    99A      0.240796   100A      0.244276  
     101A      0.244885   102A      0.248732   103A      0.250865  
     104A      0.256363   105A      0.257270   106A      0.261583  
     107A      0.263836   108A      0.267801   109A      0.275262  
     110A      0.275346   111A      0.281943   112A      0.285929  
     113A      0.293072   114A      0.297088   115A      0.302572  
     116A      0.304162   117A      0.310381   118A      0.314075  
     119A      0.314684   120A      0.317128   121A      0.324051  
     122A      0.326849   123A      0.328621   124A      0.330903  
     125A      0.338335   126A      0.342486   127A      0.346061  
     128A      0.351702   129A      0.356137   130A      0.359745  
     131A      0.373651   132A      0.376235   133A      0.383392  
     134A      0.385017   135A      0.389003   136A      0.395751  
     137A      0.399151   138A      0.403197   139A      0.407156  
     140A      0.409549   141A      0.416355   142A      0.420314  
     143A      0.423768   144A      0.425772   145A      0.434812  
     146A      0.437855   147A      0.442208   148A      0.444689  
     149A      0.449712   150A      0.450563   151A      0.457374  
     152A      0.458653   153A      0.462153   154A      0.470164  
     155A      0.473846   156A      0.476740   157A      0.478291  
     158A      0.480893   159A      0.487841   160A      0.491070  
     161A      0.492734   162A      0.496668   163A      0.501246  
     164A      0.503439   165A      0.507407   166A      0.507901  
     167A      0.513523   168A      0.515067   169A      0.519281  
     170A      0.521058   171A      0.522731   172A      0.533909  
     173A      0.536701   174A      0.538725   175A      0.546557  
     176A      0.547408   177A      0.551283   178A      0.553742  
     179A      0.559710   180A      0.562661   181A      0.568707  
     182A      0.574420   183A      0.581571   184A      0.585370  
     185A      0.588697   186A      0.598664   187A      0.606916  
     188A      0.609682   189A      0.621339   190A      0.626430  
     191A      0.629283   192A      0.636172   193A      0.640034  
     194A      0.646411   195A      0.650598   196A      0.657051  
     197A      0.664227   198A      0.668766   199A      0.676772  
     200A      0.687536   201A      0.692588   202A      0.700119  
     203A      0.702021   204A      0.704537   205A      0.710365  
     206A      0.713695   207A      0.719307   208A      0.728340  
     209A      0.730247   210A      0.732910   211A      0.742310  
     212A      0.742709   213A      0.749813   214A      0.758795  
     215A      0.764109   216A      0.768490   217A      0.775993  
     218A      0.786872   219A      0.790156   220A      0.795476  
     221A      0.800244   222A      0.803214   223A      0.810872  
     224A      0.816973   225A      0.821360   226A      0.827205  
     227A      0.833002   228A      0.833263   229A      0.850740  
     230A      0.854368   231A      0.856858   232A      0.861550  
     233A      0.864612   234A      0.870539   235A      0.873297  
     236A      0.880265   237A      0.882512   238A      0.886035  
     239A      0.894159   240A      0.895285   241A      0.905276  
     242A      0.911241   243A      0.914252   244A      0.922589  
     245A      0.926022   246A      0.928644   247A      0.933072  
     248A      0.934835   249A      0.945928   250A      0.948007  
     251A      0.952169   252A      0.955644   253A      0.959013  
     254A      0.961540   255A      0.963809   256A      0.970039  
     257A      0.972900   258A      0.979246   259A      0.988594  
     260A      0.992032   261A      0.996314   262A      1.003900  
     263A      1.006686   264A      1.013302   265A      1.016167  
     266A      1.024398   267A      1.026642   268A      1.029706  
     269A      1.034738   270A      1.036544   271A      1.040789  
     272A      1.044139   273A      1.049425   274A      1.052725  
     275A      1.058871   276A      1.062094   277A      1.071445  
     278A      1.074915   279A      1.081005   280A      1.085462  
     281A      1.089144   282A      1.091269   283A      1.095023  
     284A      1.099220   285A      1.109713   286A      1.111749  
     287A      1.118941   288A      1.120450   289A      1.126380  
     290A      1.130802   291A      1.138212   292A      1.140369  
     293A      1.144566   294A      1.151231   295A      1.158770  
     296A      1.161533   297A      1.166809   298A      1.170469  
     299A      1.175429   300A      1.179642   301A      1.182927  
     302A      1.189588   303A      1.199178   304A      1.201404  
     305A      1.206321   306A      1.212921   307A      1.217380  
     308A      1.222444   309A      1.227599   310A      1.228825  
     311A      1.232573   312A      1.246016   313A      1.251222  
     314A      1.261328   315A      1.267834   316A      1.270943  
     317A      1.275292   318A      1.281460   319A      1.285765  
     320A      1.299348   321A      1.300035   322A      1.305620  
     323A      1.309294   324A      1.320498   325A      1.325689  
     326A      1.335078   327A      1.343954   328A      1.354067  
     329A      1.356450   330A      1.367892   331A      1.370486  
     332A      1.374329   333A      1.381799   334A      1.385950  
     335A      1.388691   336A      1.398888   337A      1.407695  
     338A      1.414062   339A      1.418886   340A      1.428292  
     341A      1.436275   342A      1.447869   343A      1.452554  
     344A      1.460036   345A      1.466520   346A      1.479478  
     347A      1.488342   348A      1.497013   349A      1.500433  
     350A      1.506079   351A      1.510010   352A      1.516355  
     353A      1.529100   354A      1.538604   355A      1.541963  
     356A      1.556602   357A      1.561724   358A      1.565430  
     359A      1.577229   360A      1.582235   361A      1.584532  
     362A      1.592535   363A      1.601777   364A      1.616077  
     365A      1.617843   366A      1.621924   367A      1.633234  
     368A      1.643401   369A      1.650180   370A      1.655008  
     371A      1.661680   372A      1.666337   373A      1.676155  
     374A      1.683674   375A      1.687069   376A      1.693960  
     377A      1.709859   378A      1.717238   379A      1.722618  
     380A      1.731386   381A      1.732331   382A      1.736672  
     383A      1.746377   384A      1.753512   385A      1.763002  
     386A      1.774167   387A      1.777389   388A      1.785318  
     389A      1.789031   390A      1.796583   391A      1.809070  
     392A      1.813990   393A      1.819071   394A      1.829184  
     395A      1.839649   396A      1.844287   397A      1.855755  
     398A      1.869131   399A      1.875872   400A      1.882184  
     401A      1.885788   402A      1.893081   403A      1.900630  
     404A      1.910144   405A      1.911296   406A      1.921631  
     407A      1.933798   408A      1.934198   409A      1.943633  
     410A      1.947753   411A      1.955109   412A      1.964147  
     413A      1.980545   414A      1.985157   415A      1.993593  
     416A      2.002451   417A      2.009783   418A      2.016417  
     419A      2.024633   420A      2.033850   421A      2.036715  
     422A      2.045144   423A      2.049084   424A      2.053939  
     425A      2.065448   426A      2.071772   427A      2.082754  
     428A      2.089692   429A      2.099276   430A      2.107330  
     431A      2.114655   432A      2.121835   433A      2.124432  
     434A      2.128124   435A      2.130940   436A      2.142570  
     437A      2.158942   438A      2.163642   439A      2.180611  
     440A      2.191631   441A      2.194461   442A      2.202894  
     443A      2.210701   444A      2.220338   445A      2.228044  
     446A      2.238828   447A      2.246056   448A      2.250526  
     449A      2.256329   450A      2.268736   451A      2.273915  
     452A      2.290798   453A      2.300290   454A      2.309020  
     455A      2.316261   456A      2.323005   457A      2.339373  
     458A      2.343407   459A      2.350019   460A      2.361034  
     461A      2.380841   462A      2.388997   463A      2.406206  
     464A      2.413327   465A      2.423791   466A      2.438898  
     467A      2.443860   468A      2.456880   469A      2.460093  
     470A      2.467984   471A      2.477871   472A      2.493071  
     473A      2.514358   474A      2.520896   475A      2.538478  
     476A      2.550475   477A      2.567650   478A      2.572666  
     479A      2.580720   480A      2.586607   481A      2.596970  
     482A      2.607102   483A      2.619700   484A      2.635534  
     485A      2.638232   486A      2.664590   487A      2.686865  
     488A      2.691558   489A      2.708260   490A      2.733929  
     491A      2.747413   492A      2.754584   493A      2.762587  
     494A      2.784150   495A      2.813232   496A      2.821307  
     497A      2.830049   498A      2.840581   499A      2.851831  
     500A      2.860157   501A      2.881807   502A      2.906171  
     503A      2.911247   504A      2.951274   505A      2.960608  
     506A      2.981284   507A      3.028093   508A      3.044203  
     509A      3.054117   510A      3.062997   511A      3.088409  
     512A      3.092668   513A      3.098422   514A      3.117895  
     515A      3.126001   516A      3.146317   517A      3.166140  
     518A      3.180726   519A      3.187613   520A      3.197086  
     521A      3.202970   522A      3.208869   523A      3.236584  
     524A      3.254531   525A      3.259413   526A      3.275583  
     527A      3.280189   528A      3.295856   529A      3.303185  
     530A      3.317313   531A      3.328350   532A      3.334499  
     533A      3.350776   534A      3.361174   535A      3.379478  
     536A      3.385173   537A      3.399167   538A      3.407213  
     539A      3.418865   540A      3.427277   541A      3.429296  
     542A      3.442335   543A      3.448531   544A      3.457677  
     545A      3.463981   546A      3.473296   547A      3.488951  
     548A      3.494866   549A      3.497758   550A      3.500486  
     551A      3.523239   552A      3.528673   553A      3.543054  
     554A      3.551951   555A      3.557445   556A      3.563949  
     557A      3.565702   558A      3.572324   559A      3.583580  
     560A      3.598157   561A      3.604894   562A      3.608924  
     563A      3.620476   564A      3.628456   565A      3.634757  
     566A      3.645939   567A      3.654739   568A      3.666663  
     569A      3.669086   570A      3.686251   571A      3.692177  
     572A      3.700258   573A      3.705640   574A      3.711445  
     575A      3.730102   576A      3.738610   577A      3.742541  
     578A      3.751635   579A      3.763867   580A      3.778989  
     581A      3.786460   582A      3.794555   583A      3.805349  
     584A      3.806995   585A      3.820981   586A      3.822853  
     587A      3.829728   588A      3.848356   589A      3.851356  
     590A      3.862958   591A      3.867283   592A      3.877763  
     593A      3.884970   594A      3.894314   595A      3.908291  
     596A      3.918297   597A      3.925108   598A      3.930218  
     599A      3.937486   600A      3.943551   601A      3.948445  
     602A      3.958636   603A      3.959882   604A      3.975207  
     605A      3.978316   606A      3.985387   607A      4.002713  
     608A      4.009211   609A      4.022292   610A      4.029804  
     611A      4.036935   612A      4.039536   613A      4.061759  
     614A      4.062052   615A      4.081820   616A      4.082534  
     617A      4.092889   618A      4.105670   619A      4.114129  
     620A      4.120200   621A      4.129147   622A      4.138200  
     623A      4.140474   624A      4.155741   625A      4.158412  
     626A      4.166465   627A      4.189776   628A      4.197601  
     629A      4.202516   630A      4.211137   631A      4.220708  
     632A      4.224089   633A      4.237736   634A      4.243858  
     635A      4.249983   636A      4.274643   637A      4.291646  
     638A      4.297852   639A      4.300904   640A      4.301854  
     641A      4.315663   642A      4.327069   643A      4.329329  
     644A      4.343420   645A      4.350359   646A      4.357136  
     647A      4.365306   648A      4.376986   649A      4.381323  
     650A      4.391484   651A      4.395213   652A      4.408139  
     653A      4.414860   654A      4.421675   655A      4.430044  
     656A      4.442424   657A      4.451612   658A      4.461363  
     659A      4.474496   660A      4.478580   661A      4.486804  
     662A      4.510549   663A      4.520791   664A      4.533918  
     665A      4.537605   666A      4.545808   667A      4.562754  
     668A      4.572532   669A      4.585259   670A      4.597337  
     671A      4.609329   672A      4.618234   673A      4.626757  
     674A      4.633545   675A      4.662200   676A      4.682625  
     677A      4.693869   678A      4.700822   679A      4.709356  
     680A      4.729696   681A      4.737868   682A      4.751221  
     683A      4.751406   684A      4.766642   685A      4.793247  
     686A      4.799274   687A      4.818107   688A      4.862206  
     689A      4.872104   690A      4.876319   691A      4.891624  
     692A      4.908302   693A      4.917983   694A      4.937482  
     695A      4.947236   696A      4.961129   697A      4.966437  
     698A      4.967401   699A      4.981518   700A      4.997375  
     701A      5.015065   702A      5.031422   703A      5.034234  
     704A      5.039931   705A      5.050607   706A      5.056015  
     707A      5.062925   708A      5.077123   709A      5.101079  
     710A      5.110674   711A      5.126511   712A      5.135200  
     713A      5.157604   714A      5.167881   715A      5.174110  
     716A      5.179570   717A      5.185202   718A      5.186751  
     719A      5.197594   720A      5.204024   721A      5.230008  
     722A      5.278401   723A      5.282265   724A      5.290572  
     725A      5.299173   726A      5.321614   727A      5.325615  
     728A      5.354478   729A      5.362394   730A      5.380325  
     731A      5.385777   732A      5.427911   733A      5.442487  
     734A      5.450014   735A      5.455707   736A      5.461926  
     737A      5.482958   738A      5.487331   739A      5.524875  
     740A      5.546205   741A      5.559810   742A      5.593080  
     743A      5.601765   744A      5.637007   745A      5.642315  
     746A      5.661436   747A      5.712833   748A      5.741499  
     749A      5.749759   750A      5.766345   751A      5.796505  
     752A      5.800864   753A      5.834698   754A      5.871090  
     755A      5.879050   756A      5.884617   757A      5.910251  
     758A      5.966016   759A      6.006904   760A      6.037466  
     761A      6.081578   762A      6.113308   763A      6.165076  
     764A      6.183978   765A      6.231855   766A      6.257127  
     767A      6.268743   768A      6.306975   769A      6.320113  
     770A      6.358648   771A      6.370202   772A      6.457225  
     773A      6.487329   774A      6.522326   775A      6.546332  
     776A      6.575134   777A      6.693802   778A      6.696504  
     779A      6.703501   780A      6.717695   781A      6.736009  
     782A      6.841065   783A      6.872274   784A      6.886308  
     785A      6.926727   786A      6.947292   787A      6.993974  
     788A      7.038806   789A      7.053666   790A      7.077681  
     791A      7.179074   792A      7.251666   793A      7.392641  
     794A      7.415850   795A      7.419939   796A      7.465793  
     797A      7.682059   798A      7.686982   799A      7.752418  
     800A      8.001187   801A      8.380354   802A      8.624647  
     803A      9.004295   804A      9.046667   805A      9.269952  
     806A      9.288033   807A      9.405094   808A      9.518734  
     809A      9.538639   810A      9.590849   811A      9.644019  
     812A      9.715128   813A     10.032549   814A     10.078548  
     815A     15.534180   816A     16.141396   817A     16.515941  
     818A     16.594143   819A     16.705482   820A     16.878214  
     821A     18.455592   822A     18.683962   823A     19.170190  
     824A     19.583662   825A     20.145232   826A     20.180253  
     827A     20.475694   828A     21.798144  

    Final Occupation by Irrep:
              A 
    DOCC [    49 ]

  Energy converged.

  @DF-RHF Final Energy:  -650.17350193584093

   => Energetics <=

    Nuclear Repulsion Energy =            813.8859624415572398
    One-Electron Energy =               -2502.5852664612348235
    Two-Electron Energy =                1038.5258020838366519
    DFT Exchange-Correlation Energy =       0.0000000000000000
    Empirical Dispersion Energy =           0.0000000000000000
    PCM Polarization Energy =               0.0000000000000000
    EFP Energy =                            0.0000000000000000
    Total Energy =                       -650.1735019358409318



Properties will be evaluated at   0.000000,   0.000000,   0.000000 Bohr

Properties computed using the SCF density matrix

  Nuclear Dipole Moment: (a.u.)
     X:    -2.8083      Y:     1.7323      Z:    -5.7084

  Electronic Dipole Moment: (a.u.)
     X:     1.3857      Y:    -0.9225      Z:     5.4145

  Dipole Moment: (a.u.)
     X:    -1.4226      Y:     0.8098      Z:    -0.2940     Total:     1.6631

  Dipole Moment: (Debye)
     X:    -3.6159      Y:     2.0582      Z:    -0.7472     Total:     4.2272


*** tstop() called on gpu-2-10.local at Sat Nov 11 23:18:20 2017
Module time:
	user time   =    1247.14 seconds =      20.79 minutes
	system time =      52.25 seconds =       0.87 minutes
	total time  =        525 seconds =       8.75 minutes
Total time:
	user time   =    1247.15 seconds =      20.79 minutes
	system time =      52.25 seconds =       0.87 minutes
	total time  =        525 seconds =       8.75 minutes

  //>>>>>>>>>>>>>>>>>>>>>>>>>>>>>>>>>>>//
  //               DFMP2               //
  //<<<<<<<<<<<<<<<<<<<<<<<<<<<<<<<<<<<//

   => Loading Basis Set <=

    Name: (AUG-CC-PVTZ AUX)
    Role: RIFIT
    Keyword: DF_BASIS_MP2
    atoms 1-11  entry C          line   147 file /cbio/jclab/home/chayas/anaconda/envs/py35/share/psi4/basis/aug-cc-pvtz-ri.gbs 
    atoms 12    entry N          line   205 file /cbio/jclab/home/chayas/anaconda/envs/py35/share/psi4/basis/aug-cc-pvtz-ri.gbs 
    atoms 13    entry O          line   263 file /cbio/jclab/home/chayas/anaconda/envs/py35/share/psi4/basis/aug-cc-pvtz-ri.gbs 
    atoms 14    entry F          line   321 file /cbio/jclab/home/chayas/anaconda/envs/py35/share/psi4/basis/aug-cc-pvtz-ri.gbs 
    atoms 15-22 entry H          line    29 file /cbio/jclab/home/chayas/anaconda/envs/py35/share/psi4/basis/aug-cc-pvtz-ri.gbs 

	 --------------------------------------------------------
	                          DF-MP2                         
	      2nd-Order Density-Fitted Moller-Plesset Theory     
	              RMP2 Wavefunction,   8 Threads             
	                                                         
	        Rob Parrish, Justin Turney, Andy Simmonett,      
	           Ed Hohenstein, and C. David Sherrill          
	 --------------------------------------------------------

   => Auxiliary Basis Set <=

  Basis Set: (AUG-CC-PVTZ AUX)
    Blend: AUG-CC-PVTZ-RI
    Number of shells: 504
    Number of basis function: 1852
    Number of Cartesian functions: 2344
    Spherical Harmonics?: true
    Max angular momentum: 4

	 --------------------------------------------------------
	                 NBF =   828, NAUX =  1852
	 --------------------------------------------------------
	   CLASS    FOCC     OCC    AOCC    AVIR     VIR    FVIR
	   PAIRS       0      49      49     779     779       0
	 --------------------------------------------------------


         ------------------------------------------------------------
                                     CPHF                           
                                  Rob Parrish                       
         ------------------------------------------------------------

  ==> Geometry <==

    Molecular point group: c1
    Full point group: C1

    Geometry (in Angstrom), charge = 0, multiplicity = 1:

       Center              X                  Y                   Z               Mass       
    ------------   -----------------  -----------------  -----------------  -----------------
           C         -1.317756033077     0.752527541677    -0.790997754525    12.000000000000
           C         -2.395756033077     1.325527541677    -0.117997754525    12.000000000000
           C          0.622243966923    -1.480472458323    -1.666997754525    12.000000000000
           C          2.125243966923     0.035527541677    -0.559997754525    12.000000000000
           C         -1.402756033077     0.709527541677     1.997002245475    12.000000000000
           C          1.724243966923    -2.013472458323    -2.315997754525    12.000000000000
           C          3.160243966923    -0.565472458323    -1.257997754525    12.000000000000
           C         -0.281756033077     0.157527541677    -0.070997754525    12.000000000000
           C          0.835243966923    -0.436472458323    -0.773997754525    12.000000000000
           C         -2.438756033077     1.304527541677     1.276002245475    12.000000000000
           C         -0.324756033077     0.136527541677     1.323002245475    12.000000000000
           N          2.992243966923    -1.581472458323    -2.133997754525    14.003074004780
           O         -3.491756033077     1.864527541677     1.933002245475    15.994914619560
           F          0.663243966923    -0.431472458323     2.030002245475    18.998403224000
           H         -1.298756033077     0.776527541677    -1.877997754525     1.007825032070
           H         -3.200756033077     1.786527541677    -0.684997754525     1.007825032070
           H         -0.369756033077    -1.874472458323    -1.861997754525     1.007825032070
           H          2.329243966923     0.848527541677     0.130002245475     1.007825032070
           H         -1.430756033077     0.689527541677     3.083002245475     1.007825032070
           H          1.611243966923    -2.827472458323    -3.023997754525     1.007825032070
           H          4.184243966923    -0.234472458323    -1.124997754525     1.007825032070
           H         -4.125756033077     2.234527541677     1.298002245475     1.007825032070

  Nuclear repulsion =  813.885962441557240
  Reference energy  = -650.173501935840932

  ==> Basis Set <==

  Basis Set: AUG-CC-PVTZ
    Blend: AUG-CC-PVTZ
    Number of shells: 268
    Number of basis function: 828
    Number of Cartesian functions: 970
    Spherical Harmonics?: true
    Max angular momentum: 3

  ==> CGRSolver (by Rob Parrish) <==

   Number of roots    =         1
   Preconditioning    =    JACOBI
   Convergence cutoff =     1E-06
   Maximum iterations =       100

  ==> CPHFRHamiltonian (by Rob Parrish) <== 

  ==> DFJK: Density-Fitted J/K Matrices <==

    J tasked:                  Yes
    K tasked:                  Yes
    wK tasked:                  No
    OpenMP threads:              8
    Integrals threads:           8
    Memory (MB):              3576
    Algorithm:                Disk
    Integral Cache:           NONE
    Schwarz Cutoff:          1E-12
    Fitting Condition:       1E-12

   => Auxiliary Basis Set <=

  Basis Set: (AUG-CC-PVTZ AUX)
    Blend: AUG-CC-PVTZ-JKFIT
    Number of shells: 532
    Number of basis function: 1824
    Number of Cartesian functions: 2274
    Spherical Harmonics?: true
    Max angular momentum: 4

  ==> CPHF Iterations <==

  => Iterations <=

             Iter  Converged  Remaining    Residual
  CGR           1          0          1   1.026E-01
  CGR           2          0          1   3.426E-02
  CGR           3          0          1   2.251E-02
  CGR           4          0          1   9.805E-03
  CGR           5          0          1   4.080E-03
  CGR           6          0          1   1.527E-03
  CGR           7          0          1   4.340E-04
  CGR           8          0          1   1.367E-04
  CGR           9          0          1   4.473E-05
  CGR          10          0          1   1.224E-05
  CGR          11          0          1   4.898E-06
  CGR          12          0          1   1.681E-06
  CGR          13          1          0   8.545E-07

    CGRSolver converged.

  ==> DFCorrGrad: Density-Fitted Correlated Gradients <==

    OpenMP threads:              8
    Integrals threads:           8
    Memory (MB):              3576
    Schwarz Cutoff:          0E+00
    Fitting Condition:       1E-12

   => Auxiliary Basis Set <=

  Basis Set: (AUG-CC-PVTZ AUX)
    Blend: AUG-CC-PVTZ-JKFIT
    Number of shells: 532
    Number of basis function: 1824
    Number of Cartesian functions: 2274
    Spherical Harmonics?: true
    Max angular momentum: 4

	-----------------------------------------------------------
	 ==================> DF-MP2 Energies <==================== 
	-----------------------------------------------------------
	 Reference Energy          =    -650.1735019358409318 [Eh]
	 Singles Energy            =      -0.0000000000000011 [Eh]
	 Same-Spin Energy          =      -0.6775453094543706 [Eh]
	 Opposite-Spin Energy      =      -2.0194169858834234 [Eh]
	 Correlation Energy        =      -2.6969622953377956 [Eh]
	 Total Energy              =    -652.8704642311787438 [Eh]
	-----------------------------------------------------------
	 ================> DF-SCS-MP2 Energies <================== 
	-----------------------------------------------------------
	 SCS Same-Spin Scale       =       0.3333333333333333 [-]
	 SCS Opposite-Spin Scale   =       1.2000000000000000 [-]
	 SCS Same-Spin Energy      =      -0.2258484364847902 [Eh]
	 SCS Opposite-Spin Energy  =      -2.4233003830601079 [Eh]
	 SCS Correlation Energy    =      -2.6491488195448993 [Eh]
	 SCS Total Energy          =    -652.8226507553857800 [Eh]
	-----------------------------------------------------------


  -Total Gradient:
     Atom            X                  Y                   Z
    ------   -----------------  -----------------  -----------------
       1        0.010216961231    -0.002524756499    -0.011188181218
       2       -0.005894953326     0.003433809217     0.004265007535
       3       -0.007284972570    -0.000976080305     0.003014404475
       4       -0.003827389570     0.005899079996     0.003659512912
       5       -0.002068248242     0.001281001885    -0.006838999290
       6       -0.014018951307    -0.001016211717     0.002653280617
       7       -0.003120212387     0.009518818444     0.008711515904
       8       -0.001029762629     0.000511467589    -0.001932347261
       9       -0.001420428311     0.000933500138    -0.000545584145
      10        0.000085449909    -0.000288705294     0.013267390300
      11        0.023153000690    -0.015913617073     0.006115073462
      12        0.013526309173    -0.006720522173    -0.008422432937
      13        0.000428760856    -0.000101605742    -0.005936132181
      14        0.002600266590    -0.000886244533     0.002647190761
      15       -0.003170324494     0.001507197945    -0.006060904367
      16       -0.003019163171     0.001382406919    -0.003266692341
      17       -0.003135006995    -0.002584199790    -0.002793494883
      18        0.002905283261     0.003646652577     0.002792981647
      19        0.000579410956    -0.000233991345     0.005525769694
      20        0.000383786068    -0.001763004914    -0.001994368818
      21        0.002500378144     0.000172672069     0.000079498015
      22       -0.008390193868     0.004722332611    -0.003752487857


*** tstop() called on gpu-2-10.local at Sat Nov 11 23:55:56 2017
Module time:
	user time   =    5883.07 seconds =      98.05 minutes
	system time =     114.15 seconds =       1.90 minutes
	total time  =       2781 seconds =      46.35 minutes
Total time:
	user time   =    5883.08 seconds =      98.05 minutes
	system time =     114.15 seconds =       1.90 minutes
	total time  =       2781 seconds =      46.35 minutes

			-----------------------------------------
			 OPTKING 2.0: for geometry optimizations 
			  - R.A. King,  Bethel University        
			-----------------------------------------

	Internal coordinates to be generated automatically.
	Detected frag 1 with atoms:  1 2 3 4 5 6 7 8 9 10 11 12 13 14 15 16 17 18 19 20
	 21 22
	---Fragment 1 Bond Connectivity---
	 1 : 2 8 15
	 2 : 1 10 16
	 3 : 6 9 17
	 4 : 7 9 18
	 5 : 10 11 19
	 6 : 3 12 20
	 7 : 4 12 21
	 8 : 1 9 11
	 9 : 3 4 8
	 10 : 2 5 13
	 11 : 5 8 14
	 12 : 6 7
	 13 : 10 22
	 14 : 11
	 15 : 1
	 16 : 2
	 17 : 3
	 18 : 4
	 19 : 5
	 20 : 6
	 21 : 7
	 22 : 13

	Assuming in current code that numbering for constraints corresponds to unified fragment.
	Fixed dihedral atom list: 
	     2    10    13    22
	---Fragment 1 Geometry and Gradient---
	 C          -2.4901980125        1.4220709612       -1.4947691278
	 C          -4.5273227837        2.5048840354       -0.2229834403
	 C           1.1758706853       -2.7976874935       -3.1501692202
	 C           4.0161290631        0.0671373239       -1.0582423911
	 C          -2.6508247338        1.3408127375        3.7737873307
	 C           3.2583488838       -3.8049115223       -4.3766014804
	 C           5.9719956106       -1.0685880819       -2.3772712318
	 C          -0.5324417388        0.2976839122       -0.1341663121
	 C           1.5783823516       -0.8248134108       -1.4626437835
	 C          -4.6085810074        2.4651997866        2.4112947889
	 C          -0.6136999625        0.2579996634        2.5001119171
	 N           5.6545216203       -2.9885498329       -4.0326713242
	 O          -6.5984626254        3.5234464210        3.6528448582
	 F           1.2533494568       -0.8153647801        3.8361482931
	 H          -2.4542932159        1.4674243884       -3.5489014342
	 H          -6.0485523207        3.3760477826       -1.2944581577
	 H          -0.6987376385       -3.5422395899       -3.5186658161
	 H           4.4016331942        1.6034846700        0.2456686406
	 H          -2.7037370655        1.3030182149        5.8260299110
	 H           3.0448098307       -5.3431485945       -5.7145275825
	 H           7.9070751707       -0.4430887319       -2.1259376562
	 H          -7.7965489936        4.2226450902        2.4528687638
	             0.0102169612       -0.0025247565       -0.0111881812
	            -0.0058949533        0.0034338092        0.0042650075
	            -0.0072849726       -0.0009760803        0.0030144045
	            -0.0038273896        0.0058990800        0.0036595129
	            -0.0020682482        0.0012810019       -0.0068389993
	            -0.0140189513       -0.0010162117        0.0026532806
	            -0.0031202124        0.0095188184        0.0087115159
	            -0.0010297626        0.0005114676       -0.0019323473
	            -0.0014204283        0.0009335001       -0.0005455841
	             0.0000854499       -0.0002887053        0.0132673903
	             0.0231530007       -0.0159136171        0.0061150735
	             0.0135263092       -0.0067205222       -0.0084224329
	             0.0004287609       -0.0001016057       -0.0059361322
	             0.0026002666       -0.0008862445        0.0026471908
	            -0.0031703245        0.0015071979       -0.0060609044
	            -0.0030191632        0.0013824069       -0.0032666923
	            -0.0031350070       -0.0025841998       -0.0027934949
	             0.0029052833        0.0036466526        0.0027929816
	             0.0005794110       -0.0002339913        0.0055257697
	             0.0003837861       -0.0017630049       -0.0019943688
	             0.0025003781        0.0001726721        0.0000794980
	            -0.0083901939        0.0047223326       -0.0037524879

	Previous optimization step data not found.  Starting new optimization.

	---Fragment 1 Intrafragment Coordinates---
	 - Coordinate -           - BOHR/RAD -       - ANG/DEG -
	 R(1,2)           =         2.634350	       1.394038
	 R(1,8)           =         2.635962	       1.394891
	 R(1,15)          =         2.054947	       1.087431
	 R(2,10)          =         2.635830	       1.394821
	 R(2,16)          =         2.054537	       1.087214
	 R(3,6)           =         2.618273	       1.385530
	 R(3,9)           =         2.627164	       1.390235
	 R(3,17)          =         2.050440	       1.085046
	 R(4,7)           =         2.618229	       1.385507
	 R(4,9)           =         2.627114	       1.390209
	 R(4,18)          =         2.051624	       1.085673
	 R(5,10)          =         2.636938	       1.395407
	 R(5,11)          =         2.635263	       1.394521
	 R(5,19)          =         2.053272	       1.086545
	 R(6,12)          =         2.554678	       1.351877
	 R(6,20)          =         2.049834	       1.084725
	 R(7,12)          =         2.554876	       1.351982
	 R(7,21)          =         2.049134	       1.084355
	 R(8,9)           =         2.735038	       1.447320
	 R(8,11)          =         2.635830	       1.394821
	 R(10,13)         =         2.573123	       1.361638
	 R(11,14)         =         2.534359	       1.341125
	 R(13,22)         =         1.834184	       0.970609
	 B(1,2,10)        =         2.094553	     120.009056
	 B(1,2,16)        =         2.088723	     119.675016
	 B(1,8,9)         =         2.091569	     119.838095
	 B(1,8,11)        =         2.093692	     119.959722
	 B(2,1,8)         =         2.094940	     120.031219
	 B(2,1,15)        =         2.079469	     119.144799
	 B(2,10,5)        =         2.094306	     119.994870
	 B(2,10,13)       =         2.094247	     119.991510
	 B(3,6,12)        =         2.165211	     124.057445
	 B(3,6,20)        =         2.107791	     120.767548
	 B(3,9,4)         =         2.089790	     119.736135
	 B(3,9,8)         =         2.096656	     120.129524
	 B(4,7,12)        =         2.164668	     124.026364
	 B(4,7,21)        =         2.107421	     120.746344
	 B(4,9,8)         =         2.096739	     120.134309
	 B(5,10,13)       =         2.094633	     120.013619
	 B(5,11,8)        =         2.095181	     120.045019
	 B(5,11,14)       =         2.081414	     119.256220
	 B(6,3,9)         =         2.057714	     117.898335
	 B(6,3,17)        =         2.098197	     120.217854
	 B(6,12,7)        =         2.030771	     116.354583
	 B(7,4,9)         =         2.058217	     117.927126
	 B(7,4,18)        =         2.099769	     120.307895
	 B(8,1,15)        =         2.108776	     120.823969
	 B(8,11,14)       =         2.106591	     120.698759
	 B(9,3,17)        =         2.127271	     121.883627
	 B(9,4,18)        =         2.125200	     121.764971
	 B(9,8,11)        =         2.097924	     120.202184
	 B(10,2,16)       =         2.099909	     120.315896
	 B(10,5,11)       =         2.093699	     119.960108
	 B(10,5,19)       =         2.100355	     120.341451
	 B(10,13,22)      =         1.924365	     110.257978
	 B(11,5,19)       =         2.089132	     119.698439
	 B(12,6,20)       =         2.010181	     115.174900
	 B(12,7,21)       =         2.011095	     115.227270
	 D(1,2,10,5)      =        -0.000325	      -0.018609
	 D(1,2,10,13)     =         3.141388	     179.988267
	 D(1,8,9,3)       =        -1.047732	     -60.030615
	 D(1,8,9,4)       =         2.092736	     119.904915
	 D(1,8,11,5)      =         0.000325	       0.018608
	 D(1,8,11,14)     =        -3.141528	    -179.996269
	 D(2,1,8,9)       =         3.141277	     179.981897
	 D(2,1,8,11)      =        -0.000348	      -0.019945
	 D(2,10,5,11)     =         0.000301	       0.017261
	 D(2,10,5,19)     =        -3.141029	    -179.967685
	 D(2,10,13,22)    =         0.000228	       0.013088
	 D(3,6,12,7)      =         0.000000	       0.000000
	 D(3,9,4,7)       =        -0.000043	      -0.002444
	 D(3,9,4,18)      =        -3.141070	    -179.970061
	 D(3,9,8,11)      =         2.093893	     119.971231
	 D(4,7,12,6)      =        -0.000490	      -0.028079
	 D(4,9,3,6)       =        -0.000394	      -0.022595
	 D(4,9,3,17)      =        -3.139269	    -179.866889
	 D(4,9,8,11)      =        -1.048825	     -60.093239
	 D(5,10,2,16)     =         3.140149	     179.917291
	 D(5,10,13,22)    =        -3.141244	    -179.980035
	 D(5,11,8,9)      =        -3.141300	    -179.983240
	 D(6,3,9,8)       =         3.140078	     179.913192
	 D(6,12,7,21)     =         3.140154	     179.917593
	 D(7,4,9,8)       =        -3.140515	    -179.938228
	 D(7,12,6,20)     =         3.139530	     179.881843
	 D(8,1,2,10)      =         0.000348	       0.019955
	 D(8,1,2,16)      =        -3.140133	    -179.916358
	 D(8,9,3,17)      =         0.001202	       0.068898
	 D(8,9,4,18)      =         0.001643	       0.094154
	 D(8,11,5,10)     =        -0.000301	      -0.017270
	 D(8,11,5,19)     =         3.141030	     179.967774
	 D(9,3,6,12)      =         0.000430	       0.024638
	 D(9,3,6,20)      =        -3.138988	    -179.850775
	 D(9,4,7,12)      =         0.000513	       0.029399
	 D(9,4,7,21)      =        -3.140081	    -179.913416
	 D(9,8,1,15)      =         0.000403	       0.023110
	 D(9,8,11,14)     =         0.000033	       0.001883
	 D(10,2,1,15)     =         3.141234	     179.979432
	 D(10,5,11,14)    =         3.141547	     179.997392
	 D(11,5,10,13)    =        -3.141411	    -179.989616
	 D(11,8,1,15)     =        -3.141221	    -179.978731
	 D(12,6,3,17)     =         3.139352	     179.871634
	 D(12,7,4,18)     =         3.141549	     179.997508
	 D(13,10,2,16)    =        -0.001324	      -0.075833
	 D(13,10,5,19)    =         0.000444	       0.025437
	 D(14,11,5,19)    =        -0.000307	      -0.017564
	 D(15,1,2,16)     =         0.000753	       0.043120
	 D(17,3,6,20)     =        -0.000066	      -0.003779
	 D(18,4,7,21)     =         0.000955	       0.054693
	 R(4,14)          =         5.689185	       3.010587

	Current energy   :      -652.8704642312

	Generating empirical Hessian (Schlegel '84) for each fragment.
	Adding user-defined constraint: Fragment 1; Coordinate 69:
		Value =     0.000228; Fixed value    =     0.000017
		Force =    -0.000105; Force constant =     0.500000
	Removing off-diagonal coupling between coordinate 69 and others.
	Taking RFO optimization step.
	Going to follow RFO solution 1.
	Using RFO vector 1.

	Determining step-restricting scale parameter for RS-RFO.
	Maximum step size allowed    0.10000

	 Iter      |step|        alpha        rfo_root  
	------------------------------------------------
	    0     0.22139       1.00000           1
	    1     0.16928       4.32200           1
	    2     0.13370      13.58461           1
	    3     0.11076      28.40385           1
	    4     0.10158      38.23330           1
	    5     0.10004      40.19939           1
	    6     0.10000      40.25465           1
	------------------------------------------------
	Norm of target step-size    0.10000
	Projected energy change by RFO approximation:        -0.0051463191

	Back-transformation to cartesian coordinates...
	The INTCO_EXCEPTion handler:
	TORS::compute_val: unable to compute torsion value
	Dynamic level is 0.
	exc.g_really_quit() is 0.

  **** Optimization has failed! (in 1 steps) ****
			--------------------------
			 OPTKING Finished Execution 
			--------------------------
	Cleaning optimization helper files.

*** Psi4 exiting successfully. Buy a developer a beer!
