
    -----------------------------------------------------------------------
          Psi4: An Open-Source Ab Initio Electronic Structure Package
                               Psi4 1.1 release

                         Git: Rev {HEAD} add49b9 


    R. M. Parrish, L. A. Burns, D. G. A. Smith, A. C. Simmonett,
    A. E. DePrince III, E. G. Hohenstein, U. Bozkaya, A. Yu. Sokolov,
    R. Di Remigio, R. M. Richard, J. F. Gonthier, A. M. James,
    H. R. McAlexander, A. Kumar, M. Saitow, X. Wang, B. P. Pritchard,
    P. Verma, H. F. Schaefer III, K. Patkowski, R. A. King, E. F. Valeev,
    F. A. Evangelista, J. M. Turney, T. D. Crawford, and C. D. Sherrill,
    J. Chem. Theory Comput. in press (2017).
    (doi: 10.1021/acs.jctc.7b00174)

    -----------------------------------------------------------------------


    Psi4 started on: Saturday, 11 November 2017 09:38PM

    Process ID:  29863
    PSIDATADIR: /cbio/jclab/home/chayas/anaconda/envs/py35/share/psi4
    Memory:     500.0 MiB
    Threads:    8
    
  ==> Input File <==

--------------------------------------------------------------------------

memory 5 Gb

molecule phepyrFOH_neutral {
  symmetry C1
  0 1 
  C      1.885   -1.036   -0.112
  C      0.807   -0.463   0.561
  C      5.207   -2.536   0.589
  C      3.945   -2.487   -1.457
  C      1.800   -1.079   2.676
  C      6.247   -3.105   -0.129
  C      5.041   -3.058   -2.084
  C      2.921   -1.631   0.608
  C      4.038   -2.225   -0.095
  C      0.764   -0.484   1.955
  C      2.878   -1.652   2.002
  N      6.194   -3.374   -1.452
  O      -0.289   0.076   2.612
  F      3.866   -2.220   2.709
  H      1.904   -1.012   -1.199
  H      0.002   -0.002   -0.006
  H      5.317   -2.347   1.653
  H      3.048   -2.257   -2.024
  H      1.772   -1.099   3.762
  H      7.180   -3.368   0.359
  H      5.020   -3.281   -3.145
  H      -0.175   -0.018   3.571
  units Angstrom
}

dih_string = "1 8 9 3 165"
set optking fixed_dihedral = $dih_string

optimize('MP2/aug-cc-PVTZ')
--------------------------------------------------------------------------

  Memory set to   4.657 GiB by Python driver.
gradient() will perform analytic gradient computation.

*** tstart() called on gpu-2-11.local
*** at Sat Nov 11 21:38:45 2017

    SCF Algorithm Type (re)set to DF.

*** tstart() called on gpu-2-11.local
*** at Sat Nov 11 21:38:45 2017

   => Loading Basis Set <=

    Name: AUG-CC-PVTZ
    Role: ORBITAL
    Keyword: BASIS
    atoms 1-11  entry C          line   221 file /cbio/jclab/home/chayas/anaconda/envs/py35/share/psi4/basis/aug-cc-pvtz.gbs 
    atoms 12    entry N          line   267 file /cbio/jclab/home/chayas/anaconda/envs/py35/share/psi4/basis/aug-cc-pvtz.gbs 
    atoms 13    entry O          line   313 file /cbio/jclab/home/chayas/anaconda/envs/py35/share/psi4/basis/aug-cc-pvtz.gbs 
    atoms 14    entry F          line   359 file /cbio/jclab/home/chayas/anaconda/envs/py35/share/psi4/basis/aug-cc-pvtz.gbs 
    atoms 15-22 entry H          line    34 file /cbio/jclab/home/chayas/anaconda/envs/py35/share/psi4/basis/aug-cc-pvtz.gbs 


         ---------------------------------------------------------
                                   SCF
            by Justin Turney, Rob Parrish, and Andy Simmonett
                              RHF Reference
                        8 Threads,   4768 MiB Core
         ---------------------------------------------------------

  ==> Geometry <==

    Molecular point group: c1
    Full point group: C1

    Geometry (in Angstrom), charge = 0, multiplicity = 1:

       Center              X                  Y                   Z               Mass       
    ------------   -----------------  -----------------  -----------------  -----------------
           C         -1.321473614648     0.755863691834    -0.800013696610    12.000000000000
           C         -2.399473614648     1.328863691834    -0.127013696610    12.000000000000
           C          2.000526385352    -0.744136308166    -0.099013696610    12.000000000000
           C          0.738526385352    -0.695136308166    -2.145013696610    12.000000000000
           C         -1.406473614648     0.712863691834     1.987986303390    12.000000000000
           C          3.040526385352    -1.313136308166    -0.817013696610    12.000000000000
           C          1.834526385352    -1.266136308166    -2.772013696610    12.000000000000
           C         -0.285473614648     0.160863691834    -0.080013696610    12.000000000000
           C          0.831526385352    -0.433136308166    -0.783013696610    12.000000000000
           C         -2.442473614648     1.307863691834     1.266986303390    12.000000000000
           C         -0.328473614648     0.139863691834     1.313986303390    12.000000000000
           N          2.987526385352    -1.582136308166    -2.140013696610    14.003074004780
           O         -3.495473614648     1.867863691834     1.923986303390    15.994914619560
           F          0.659526385352    -0.428136308166     2.020986303390    18.998403224000
           H         -1.302473614648     0.779863691834    -1.887013696610     1.007825032070
           H         -3.204473614648     1.789863691834    -0.694013696610     1.007825032070
           H          2.110526385352    -0.555136308166     0.964986303390     1.007825032070
           H         -0.158473614648    -0.465136308166    -2.712013696610     1.007825032070
           H         -1.434473614648     0.692863691834     3.073986303390     1.007825032070
           H          3.973526385352    -1.576136308166    -0.329013696610     1.007825032070
           H          1.813526385352    -1.489136308166    -3.833013696610     1.007825032070
           H         -3.381473614648     1.773863691834     2.882986303390     1.007825032070

  Running in c1 symmetry.

  Rotational constants: A =      0.06328  B =      0.01361  C =      0.01126 [cm^-1]
  Rotational constants: A =   1897.06435  B =    407.94973  C =    337.51360 [MHz]
  Nuclear repulsion =  817.650826316425309

  Charge       = 0
  Multiplicity = 1
  Electrons    = 98
  Nalpha       = 49
  Nbeta        = 49

  ==> Algorithm <==

  SCF Algorithm Type is DF.
  DIIS enabled.
  MOM disabled.
  Fractional occupation disabled.
  Guess Type is SAD.
  Energy threshold   = 1.00e-10
  Density threshold  = 1.00e-10
  Integral threshold = 0.00e+00

  ==> Primary Basis <==

  Basis Set: AUG-CC-PVTZ
    Blend: AUG-CC-PVTZ
    Number of shells: 268
    Number of basis function: 828
    Number of Cartesian functions: 970
    Spherical Harmonics?: true
    Max angular momentum: 3

   => Loading Basis Set <=

    Name: (AUG-CC-PVTZ AUX)
    Role: JKFIT
    Keyword: DF_BASIS_SCF
    atoms 1-11  entry C          line   161 file /cbio/jclab/home/chayas/anaconda/envs/py35/share/psi4/basis/aug-cc-pvtz-jkfit.gbs 
    atoms 12    entry N          line   223 file /cbio/jclab/home/chayas/anaconda/envs/py35/share/psi4/basis/aug-cc-pvtz-jkfit.gbs 
    atoms 13    entry O          line   285 file /cbio/jclab/home/chayas/anaconda/envs/py35/share/psi4/basis/aug-cc-pvtz-jkfit.gbs 
    atoms 14    entry F          line   347 file /cbio/jclab/home/chayas/anaconda/envs/py35/share/psi4/basis/aug-cc-pvtz-jkfit.gbs 
    atoms 15-22 entry H          line    69 file /cbio/jclab/home/chayas/anaconda/envs/py35/share/psi4/basis/aug-cc-pvtz-jkfit.gbs 

  ==> Pre-Iterations <==

   -------------------------------------------------------
    Irrep   Nso     Nmo     Nalpha   Nbeta   Ndocc  Nsocc
   -------------------------------------------------------
     A        828     828       0       0       0       0
   -------------------------------------------------------
    Total     828     828      49      49      49       0
   -------------------------------------------------------

  ==> Integral Setup <==

  ==> DFJK: Density-Fitted J/K Matrices <==

    J tasked:                  Yes
    K tasked:                  Yes
    wK tasked:                  No
    OpenMP threads:              8
    Integrals threads:           8
    Memory (MB):              3576
    Algorithm:                Disk
    Integral Cache:           NONE
    Schwarz Cutoff:          1E-12
    Fitting Condition:       1E-12

   => Auxiliary Basis Set <=

  Basis Set: (AUG-CC-PVTZ AUX)
    Blend: AUG-CC-PVTZ-JKFIT
    Number of shells: 532
    Number of basis function: 1824
    Number of Cartesian functions: 2274
    Spherical Harmonics?: true
    Max angular momentum: 4

  Minimum eigenvalue in the overlap matrix is 5.9249135865E-07.
  Using Symmetric Orthogonalization.

  SCF Guess: Superposition of Atomic Densities via on-the-fly atomic UHF.

  ==> Iterations <==

                           Total Energy        Delta E     RMS |[F,P]|

   @DF-RHF iter   0:  -656.31264475628052   -6.56313e+02   2.34359e-02 
   @DF-RHF iter   1:  -649.78391463922230    6.52873e+00   2.34405e-03 
   @DF-RHF iter   2:  -650.09024453055656   -3.06330e-01   1.08906e-03 DIIS
   @DF-RHF iter   3:  -650.14365305063313   -5.34085e-02   4.89038e-04 DIIS
   @DF-RHF iter   4:  -650.15887017922000   -1.52171e-02   7.92033e-05 DIIS
   @DF-RHF iter   5:  -650.16033816772290   -1.46799e-03   5.48246e-05 DIIS
   @DF-RHF iter   6:  -650.16063434259377   -2.96175e-04   1.96683e-05 DIIS
   @DF-RHF iter   7:  -650.16067945398015   -4.51114e-05   5.87245e-06 DIIS
   @DF-RHF iter   8:  -650.16068278486273   -3.33088e-06   1.95381e-06 DIIS
   @DF-RHF iter   9:  -650.16068329770781   -5.12845e-07   8.76231e-07 DIIS
   @DF-RHF iter  10:  -650.16068342282153   -1.25114e-07   4.47035e-07 DIIS
   @DF-RHF iter  11:  -650.16068346566180   -4.28403e-08   1.66773e-07 DIIS
   @DF-RHF iter  12:  -650.16068347261478   -6.95297e-09   5.09287e-08 DIIS
   @DF-RHF iter  13:  -650.16068347333601   -7.21229e-10   2.50212e-08 DIIS
   @DF-RHF iter  14:  -650.16068347342116   -8.51514e-11   6.62061e-09 DIIS
   @DF-RHF iter  15:  -650.16068347344344   -2.22826e-11   3.06549e-09 DIIS
   @DF-RHF iter  16:  -650.16068347344992   -6.48015e-12   1.77500e-09 DIIS
   @DF-RHF iter  17:  -650.16068347345094   -1.02318e-12   7.89257e-10 DIIS
   @DF-RHF iter  18:  -650.16068347344424    6.70752e-12   4.85571e-10 DIIS
   @DF-RHF iter  19:  -650.16068347344776   -3.52429e-12   1.74272e-10 DIIS
   @DF-RHF iter  20:  -650.16068347344162    6.13909e-12   7.47587e-11 DIIS

  ==> Post-Iterations <==

    Orbital Energies (a.u.)
    -----------------------

    Doubly Occupied:                                                      

       1A    -26.335793     2A    -20.612613     3A    -15.559231  
       4A    -11.354357     5A    -11.332017     6A    -11.271624  
       7A    -11.268923     8A    -11.267672     9A    -11.263903  
      10A    -11.257983    11A    -11.255749    12A    -11.249394  
      13A    -11.236121    14A    -11.226432    15A     -1.659402  
      16A     -1.427104    17A     -1.245922    18A     -1.184894  
      19A     -1.110593    20A     -1.045953    21A     -1.030739  
      22A     -1.020272    23A     -0.897413    24A     -0.882153  
      25A     -0.852438    26A     -0.827081    27A     -0.775201  
      28A     -0.757482    29A     -0.726371    30A     -0.720872  
      31A     -0.709086    32A     -0.677482    33A     -0.653074  
      34A     -0.641210    35A     -0.628718    36A     -0.612447  
      37A     -0.610314    38A     -0.589756    39A     -0.578036  
      40A     -0.547305    41A     -0.542759    42A     -0.535128  
      43A     -0.507201    44A     -0.500490    45A     -0.413615  
      46A     -0.404642    47A     -0.363099    48A     -0.345359  
      49A     -0.310429  

    Virtual:                                                              

      50A      0.020783    51A      0.027901    52A      0.034954  
      53A      0.039902    54A      0.044461    55A      0.049216  
      56A      0.057289    57A      0.060501    58A      0.072046  
      59A      0.076607    60A      0.080821    61A      0.083417  
      62A      0.089642    63A      0.091494    64A      0.097869  
      65A      0.101427    66A      0.104239    67A      0.109424  
      68A      0.110925    69A      0.112020    70A      0.116658  
      71A      0.119265    72A      0.126786    73A      0.130656  
      74A      0.133663    75A      0.136782    76A      0.138586  
      77A      0.141307    78A      0.143750    79A      0.144557  
      80A      0.151414    81A      0.152231    82A      0.156861  
      83A      0.164806    84A      0.166235    85A      0.171651  
      86A      0.176951    87A      0.181295    88A      0.186281  
      89A      0.188595    90A      0.194664    91A      0.201943  
      92A      0.207465    93A      0.211853    94A      0.220305  
      95A      0.224331    96A      0.227961    97A      0.228899  
      98A      0.233690    99A      0.239435   100A      0.244005  
     101A      0.246907   102A      0.248047   103A      0.254645  
     104A      0.257708   105A      0.262339   106A      0.263680  
     107A      0.268693   108A      0.271202   109A      0.276110  
     110A      0.279217   111A      0.283588   112A      0.288483  
     113A      0.292978   114A      0.298307   115A      0.303196  
     116A      0.304419   117A      0.306801   118A      0.314172  
     119A      0.317810   120A      0.321498   121A      0.326233  
     122A      0.327709   123A      0.333860   124A      0.340632  
     125A      0.345086   126A      0.345856   127A      0.349577  
     128A      0.356243   129A      0.363409   130A      0.372298  
     131A      0.372570   132A      0.383332   133A      0.387113  
     134A      0.390701   135A      0.395208   136A      0.400789  
     137A      0.405458   138A      0.408803   139A      0.412943  
     140A      0.423427   141A      0.423820   142A      0.426352  
     143A      0.431093   144A      0.433403   145A      0.434287  
     146A      0.438112   147A      0.447090   148A      0.448556  
     149A      0.449109   150A      0.455652   151A      0.456942  
     152A      0.465692   153A      0.467582   154A      0.470285  
     155A      0.473651   156A      0.478467   157A      0.480793  
     158A      0.487409   159A      0.490365   160A      0.492012  
     161A      0.499203   162A      0.500491   163A      0.503015  
     164A      0.506340   165A      0.509610   166A      0.510513  
     167A      0.513536   168A      0.515151   169A      0.522502  
     170A      0.525284   171A      0.528978   172A      0.536177  
     173A      0.538030   174A      0.543899   175A      0.548157  
     176A      0.551574   177A      0.558347   178A      0.560950  
     179A      0.569324   180A      0.570119   181A      0.575492  
     182A      0.576933   183A      0.591973   184A      0.594798  
     185A      0.595472   186A      0.599801   187A      0.604775  
     188A      0.618274   189A      0.623065   190A      0.625615  
     191A      0.636092   192A      0.638411   193A      0.646857  
     194A      0.652750   195A      0.659685   196A      0.662288  
     197A      0.675990   198A      0.683792   199A      0.689036  
     200A      0.692185   201A      0.695112   202A      0.699396  
     203A      0.703435   204A      0.709216   205A      0.715114  
     206A      0.723188   207A      0.725907   208A      0.729765  
     209A      0.742111   210A      0.745991   211A      0.749837  
     212A      0.751880   213A      0.759089   214A      0.768762  
     215A      0.771267   216A      0.780338   217A      0.784383  
     218A      0.789384   219A      0.792488   220A      0.804697  
     221A      0.808954   222A      0.811716   223A      0.816746  
     224A      0.822536   225A      0.827060   226A      0.830635  
     227A      0.843609   228A      0.844088   229A      0.855739  
     230A      0.859960   231A      0.862943   232A      0.864956  
     233A      0.867631   234A      0.876200   235A      0.885425  
     236A      0.889764   237A      0.894318   238A      0.895769  
     239A      0.900288   240A      0.902214   241A      0.907456  
     242A      0.915910   243A      0.921176   244A      0.923258  
     245A      0.931946   246A      0.935279   247A      0.938728  
     248A      0.944126   249A      0.949854   250A      0.951905  
     251A      0.959108   252A      0.962560   253A      0.969026  
     254A      0.970273   255A      0.972655   256A      0.977335  
     257A      0.978828   258A      0.981661   259A      0.990314  
     260A      0.993200   261A      0.995686   262A      1.005770  
     263A      1.008455   264A      1.013903   265A      1.016547  
     266A      1.025540   267A      1.029484   268A      1.033138  
     269A      1.034766   270A      1.039826   271A      1.044659  
     272A      1.045752   273A      1.053098   274A      1.055372  
     275A      1.062011   276A      1.066982   277A      1.071027  
     278A      1.076953   279A      1.079660   280A      1.089403  
     281A      1.091799   282A      1.095696   283A      1.099351  
     284A      1.102393   285A      1.114066   286A      1.117825  
     287A      1.120183   288A      1.125827   289A      1.131872  
     290A      1.135756   291A      1.139671   292A      1.144216  
     293A      1.147507   294A      1.151127   295A      1.166358  
     296A      1.169201   297A      1.173921   298A      1.181373  
     299A      1.182592   300A      1.183264   301A      1.187690  
     302A      1.194417   303A      1.198531   304A      1.204817  
     305A      1.207216   306A      1.211460   307A      1.214255  
     308A      1.223731   309A      1.230837   310A      1.231792  
     311A      1.240116   312A      1.251520   313A      1.258537  
     314A      1.265571   315A      1.268266   316A      1.272701  
     317A      1.277737   318A      1.279295   319A      1.293930  
     320A      1.300469   321A      1.303457   322A      1.308419  
     323A      1.316908   324A      1.318810   325A      1.322133  
     326A      1.330398   327A      1.334974   328A      1.337055  
     329A      1.355159   330A      1.365541   331A      1.368880  
     332A      1.378094   333A      1.382513   334A      1.388654  
     335A      1.393086   336A      1.399659   337A      1.406055  
     338A      1.421841   339A      1.423171   340A      1.436323  
     341A      1.441863   342A      1.453439   343A      1.454483  
     344A      1.467223   345A      1.472606   346A      1.479870  
     347A      1.486834   348A      1.496855   349A      1.507644  
     350A      1.514161   351A      1.527426   352A      1.531709  
     353A      1.537747   354A      1.558930   355A      1.562549  
     356A      1.568788   357A      1.578078   358A      1.585676  
     359A      1.587176   360A      1.602003   361A      1.608447  
     362A      1.611877   363A      1.620286   364A      1.626939  
     365A      1.633231   366A      1.643765   367A      1.650798  
     368A      1.663619   369A      1.669416   370A      1.673255  
     371A      1.674779   372A      1.689583   373A      1.697047  
     374A      1.704246   375A      1.709868   376A      1.722482  
     377A      1.727053   378A      1.734567   379A      1.736717  
     380A      1.739943   381A      1.747983   382A      1.758669  
     383A      1.768297   384A      1.777607   385A      1.786089  
     386A      1.799440   387A      1.802589   388A      1.805282  
     389A      1.812095   390A      1.817171   391A      1.826744  
     392A      1.834108   393A      1.838424   394A      1.850333  
     395A      1.855548   396A      1.862054   397A      1.868498  
     398A      1.880358   399A      1.889135   400A      1.898255  
     401A      1.910099   402A      1.917614   403A      1.928357  
     404A      1.930190   405A      1.939214   406A      1.949944  
     407A      1.956640   408A      1.966368   409A      1.973444  
     410A      1.975592   411A      1.986560   412A      1.989076  
     413A      2.000165   414A      2.006069   415A      2.011882  
     416A      2.020535   417A      2.028562   418A      2.032822  
     419A      2.038583   420A      2.043866   421A      2.050972  
     422A      2.051925   423A      2.063228   424A      2.070627  
     425A      2.076130   426A      2.090119   427A      2.104846  
     428A      2.112618   429A      2.115094   430A      2.121684  
     431A      2.132585   432A      2.133016   433A      2.147311  
     434A      2.153728   435A      2.164066   436A      2.169418  
     437A      2.182734   438A      2.186558   439A      2.193703  
     440A      2.196515   441A      2.204102   442A      2.212984  
     443A      2.223309   444A      2.225296   445A      2.233770  
     446A      2.243840   447A      2.245343   448A      2.257913  
     449A      2.284376   450A      2.291259   451A      2.296405  
     452A      2.301657   453A      2.309164   454A      2.318372  
     455A      2.332571   456A      2.340633   457A      2.345882  
     458A      2.358542   459A      2.361981   460A      2.380469  
     461A      2.403143   462A      2.404771   463A      2.418161  
     464A      2.422599   465A      2.439417   466A      2.448385  
     467A      2.455746   468A      2.464848   469A      2.473176  
     470A      2.485266   471A      2.499084   472A      2.514187  
     473A      2.516160   474A      2.533748   475A      2.545894  
     476A      2.550731   477A      2.561136   478A      2.575065  
     479A      2.585399   480A      2.596288   481A      2.613914  
     482A      2.615045   483A      2.646045   484A      2.648924  
     485A      2.656131   486A      2.692669   487A      2.705860  
     488A      2.718309   489A      2.741931   490A      2.749410  
     491A      2.769441   492A      2.782420   493A      2.787951  
     494A      2.812551   495A      2.836377   496A      2.837778  
     497A      2.851153   498A      2.856673   499A      2.871757  
     500A      2.886974   501A      2.894646   502A      2.924129  
     503A      2.948680   504A      2.973888   505A      3.005036  
     506A      3.017107   507A      3.033853   508A      3.039361  
     509A      3.061542   510A      3.084055   511A      3.096546  
     512A      3.107678   513A      3.113118   514A      3.128847  
     515A      3.157018   516A      3.165052   517A      3.182552  
     518A      3.192036   519A      3.202482   520A      3.215294  
     521A      3.225109   522A      3.236613   523A      3.251930  
     524A      3.266781   525A      3.271970   526A      3.301510  
     527A      3.303152   528A      3.322549   529A      3.333838  
     530A      3.343764   531A      3.345908   532A      3.360464  
     533A      3.364843   534A      3.373450   535A      3.378991  
     536A      3.392870   537A      3.406317   538A      3.411935  
     539A      3.428604   540A      3.442335   541A      3.444122  
     542A      3.456870   543A      3.464724   544A      3.469098  
     545A      3.474403   546A      3.492076   547A      3.497182  
     548A      3.504353   549A      3.508239   550A      3.523324  
     551A      3.529968   552A      3.538844   553A      3.546728  
     554A      3.552279   555A      3.559341   556A      3.572483  
     557A      3.576115   558A      3.594763   559A      3.599122  
     560A      3.607185   561A      3.618476   562A      3.622801  
     563A      3.630786   564A      3.640150   565A      3.646718  
     566A      3.665509   567A      3.670540   568A      3.682874  
     569A      3.693488   570A      3.700520   571A      3.703335  
     572A      3.710703   573A      3.727754   574A      3.743648  
     575A      3.750905   576A      3.754030   577A      3.762158  
     578A      3.767716   579A      3.781080   580A      3.786591  
     581A      3.802044   582A      3.807004   583A      3.809932  
     584A      3.826138   585A      3.841376   586A      3.844523  
     587A      3.857154   588A      3.859898   589A      3.861924  
     590A      3.871101   591A      3.882373   592A      3.894979  
     593A      3.899839   594A      3.914012   595A      3.918891  
     596A      3.922991   597A      3.935407   598A      3.940986  
     599A      3.951594   600A      3.954961   601A      3.966345  
     602A      3.975184   603A      3.976829   604A      3.983667  
     605A      3.991976   606A      4.006160   607A      4.010958  
     608A      4.023417   609A      4.028687   610A      4.036868  
     611A      4.052989   612A      4.056392   613A      4.069863  
     614A      4.073724   615A      4.093993   616A      4.101228  
     617A      4.106174   618A      4.118055   619A      4.134994  
     620A      4.139998   621A      4.153547   622A      4.165027  
     623A      4.174563   624A      4.180768   625A      4.187941  
     626A      4.191487   627A      4.208354   628A      4.211867  
     629A      4.213611   630A      4.227244   631A      4.240913  
     632A      4.246563   633A      4.252920   634A      4.260466  
     635A      4.277483   636A      4.286075   637A      4.297392  
     638A      4.306663   639A      4.310042   640A      4.317504  
     641A      4.330345   642A      4.334307   643A      4.337404  
     644A      4.345924   645A      4.357722   646A      4.371532  
     647A      4.373421   648A      4.380977   649A      4.400293  
     650A      4.406074   651A      4.412204   652A      4.426461  
     653A      4.435253   654A      4.452086   655A      4.456709  
     656A      4.465846   657A      4.469546   658A      4.477473  
     659A      4.499268   660A      4.505403   661A      4.513685  
     662A      4.515995   663A      4.524780   664A      4.542928  
     665A      4.549644   666A      4.553870   667A      4.574814  
     668A      4.590280   669A      4.593413   670A      4.609527  
     671A      4.619986   672A      4.629652   673A      4.639480  
     674A      4.644217   675A      4.666784   676A      4.675141  
     677A      4.683044   678A      4.707267   679A      4.720835  
     680A      4.738766   681A      4.743830   682A      4.766663  
     683A      4.779405   684A      4.786641   685A      4.793478  
     686A      4.810588   687A      4.827333   688A      4.832043  
     689A      4.870303   690A      4.880615   691A      4.886761  
     692A      4.897499   693A      4.914529   694A      4.921710  
     695A      4.949665   696A      4.958713   697A      4.965578  
     698A      4.989468   699A      4.993378   700A      5.001320  
     701A      5.020168   702A      5.034080   703A      5.037036  
     704A      5.055806   705A      5.061973   706A      5.079261  
     707A      5.095292   708A      5.109049   709A      5.115984  
     710A      5.119298   711A      5.125402   712A      5.131133  
     713A      5.149238   714A      5.164570   715A      5.172259  
     716A      5.177402   717A      5.197246   718A      5.199927  
     719A      5.219325   720A      5.233694   721A      5.258681  
     722A      5.272976   723A      5.282162   724A      5.308692  
     725A      5.330641   726A      5.340478   727A      5.345562  
     728A      5.356419   729A      5.372891   730A      5.410518  
     731A      5.426748   732A      5.436496   733A      5.461233  
     734A      5.466048   735A      5.483517   736A      5.512003  
     737A      5.543253   738A      5.550908   739A      5.564585  
     740A      5.573560   741A      5.592118   742A      5.611801  
     743A      5.625928   744A      5.672747   745A      5.698609  
     746A      5.725989   747A      5.753797   748A      5.777273  
     749A      5.796265   750A      5.804408   751A      5.807939  
     752A      5.838648   753A      5.849590   754A      5.866635  
     755A      5.887434   756A      5.912992   757A      5.937347  
     758A      5.991746   759A      6.011283   760A      6.087976  
     761A      6.096747   762A      6.168081   763A      6.176046  
     764A      6.216286   765A      6.252900   766A      6.282453  
     767A      6.314160   768A      6.359382   769A      6.382286  
     770A      6.419533   771A      6.459060   772A      6.486535  
     773A      6.511312   774A      6.584342   775A      6.591242  
     776A      6.648098   777A      6.698826   778A      6.721032  
     779A      6.736481   780A      6.745177   781A      6.762838  
     782A      6.880555   783A      6.882055   784A      6.887113  
     785A      6.932090   786A      6.969307   787A      6.989860  
     788A      7.044896   789A      7.085706   790A      7.101934  
     791A      7.202030   792A      7.248147   793A      7.399410  
     794A      7.413288   795A      7.446354   796A      7.500148  
     797A      7.670784   798A      7.688701   799A      7.743936  
     800A      7.999187   801A      8.375624   802A      8.628076  
     803A      9.138885   804A      9.204375   805A      9.295391  
     806A      9.347993   807A      9.430995   808A      9.542222  
     809A      9.560522   810A      9.618642   811A      9.708016  
     812A      9.737046   813A     10.083743   814A     10.105781  
     815A     15.589276   816A     16.249647   817A     16.589770  
     818A     16.883110   819A     16.940788   820A     17.278875  
     821A     18.573941   822A     18.928229   823A     19.656602  
     824A     19.923456   825A     20.425999   826A     20.520492  
     827A     20.908965   828A     21.413530  

    Final Occupation by Irrep:
              A 
    DOCC [    49 ]

  Energy converged.

  @DF-RHF Final Energy:  -650.16068347344162

   => Energetics <=

    Nuclear Repulsion Energy =            817.6508263164253094
    One-Electron Energy =               -2509.9713111934024710
    Two-Electron Energy =                1042.1598014035355391
    DFT Exchange-Correlation Energy =       0.0000000000000000
    Empirical Dispersion Energy =           0.0000000000000000
    PCM Polarization Energy =               0.0000000000000000
    EFP Energy =                            0.0000000000000000
    Total Energy =                       -650.1606834734416225



Properties will be evaluated at   0.000000,   0.000000,   0.000000 Bohr

Properties computed using the SCF density matrix

  Nuclear Dipole Moment: (a.u.)
     X:    -2.1324      Y:     1.3089      Z:    -4.2658

  Electronic Dipole Moment: (a.u.)
     X:     0.9951      Y:    -0.7008      Z:     5.0736

  Dipole Moment: (a.u.)
     X:    -1.1373      Y:     0.6081      Z:     0.8078     Total:     1.5218

  Dipole Moment: (Debye)
     X:    -2.8908      Y:     1.5457      Z:     2.0533     Total:     3.8680


*** tstop() called on gpu-2-11.local at Sat Nov 11 21:47:23 2017
Module time:
	user time   =    1209.32 seconds =      20.16 minutes
	system time =      56.27 seconds =       0.94 minutes
	total time  =        518 seconds =       8.63 minutes
Total time:
	user time   =    1209.33 seconds =      20.16 minutes
	system time =      56.27 seconds =       0.94 minutes
	total time  =        518 seconds =       8.63 minutes

  //>>>>>>>>>>>>>>>>>>>>>>>>>>>>>>>>>>>//
  //               DFMP2               //
  //<<<<<<<<<<<<<<<<<<<<<<<<<<<<<<<<<<<//

   => Loading Basis Set <=

    Name: (AUG-CC-PVTZ AUX)
    Role: RIFIT
    Keyword: DF_BASIS_MP2
    atoms 1-11  entry C          line   147 file /cbio/jclab/home/chayas/anaconda/envs/py35/share/psi4/basis/aug-cc-pvtz-ri.gbs 
    atoms 12    entry N          line   205 file /cbio/jclab/home/chayas/anaconda/envs/py35/share/psi4/basis/aug-cc-pvtz-ri.gbs 
    atoms 13    entry O          line   263 file /cbio/jclab/home/chayas/anaconda/envs/py35/share/psi4/basis/aug-cc-pvtz-ri.gbs 
    atoms 14    entry F          line   321 file /cbio/jclab/home/chayas/anaconda/envs/py35/share/psi4/basis/aug-cc-pvtz-ri.gbs 
    atoms 15-22 entry H          line    29 file /cbio/jclab/home/chayas/anaconda/envs/py35/share/psi4/basis/aug-cc-pvtz-ri.gbs 

	 --------------------------------------------------------
	                          DF-MP2                         
	      2nd-Order Density-Fitted Moller-Plesset Theory     
	              RMP2 Wavefunction,   8 Threads             
	                                                         
	        Rob Parrish, Justin Turney, Andy Simmonett,      
	           Ed Hohenstein, and C. David Sherrill          
	 --------------------------------------------------------

   => Auxiliary Basis Set <=

  Basis Set: (AUG-CC-PVTZ AUX)
    Blend: AUG-CC-PVTZ-RI
    Number of shells: 504
    Number of basis function: 1852
    Number of Cartesian functions: 2344
    Spherical Harmonics?: true
    Max angular momentum: 4

	 --------------------------------------------------------
	                 NBF =   828, NAUX =  1852
	 --------------------------------------------------------
	   CLASS    FOCC     OCC    AOCC    AVIR     VIR    FVIR
	   PAIRS       0      49      49     779     779       0
	 --------------------------------------------------------


         ------------------------------------------------------------
                                     CPHF                           
                                  Rob Parrish                       
         ------------------------------------------------------------

  ==> Geometry <==

    Molecular point group: c1
    Full point group: C1

    Geometry (in Angstrom), charge = 0, multiplicity = 1:

       Center              X                  Y                   Z               Mass       
    ------------   -----------------  -----------------  -----------------  -----------------
           C         -1.321473614648     0.755863691834    -0.800013696610    12.000000000000
           C         -2.399473614648     1.328863691834    -0.127013696610    12.000000000000
           C          2.000526385352    -0.744136308166    -0.099013696610    12.000000000000
           C          0.738526385352    -0.695136308166    -2.145013696610    12.000000000000
           C         -1.406473614648     0.712863691834     1.987986303390    12.000000000000
           C          3.040526385352    -1.313136308166    -0.817013696610    12.000000000000
           C          1.834526385352    -1.266136308166    -2.772013696610    12.000000000000
           C         -0.285473614648     0.160863691834    -0.080013696610    12.000000000000
           C          0.831526385352    -0.433136308166    -0.783013696610    12.000000000000
           C         -2.442473614648     1.307863691834     1.266986303390    12.000000000000
           C         -0.328473614648     0.139863691834     1.313986303390    12.000000000000
           N          2.987526385352    -1.582136308166    -2.140013696610    14.003074004780
           O         -3.495473614648     1.867863691834     1.923986303390    15.994914619560
           F          0.659526385352    -0.428136308166     2.020986303390    18.998403224000
           H         -1.302473614648     0.779863691834    -1.887013696610     1.007825032070
           H         -3.204473614648     1.789863691834    -0.694013696610     1.007825032070
           H          2.110526385352    -0.555136308166     0.964986303390     1.007825032070
           H         -0.158473614648    -0.465136308166    -2.712013696610     1.007825032070
           H         -1.434473614648     0.692863691834     3.073986303390     1.007825032070
           H          3.973526385352    -1.576136308166    -0.329013696610     1.007825032070
           H          1.813526385352    -1.489136308166    -3.833013696610     1.007825032070
           H         -3.381473614648     1.773863691834     2.882986303390     1.007825032070

  Nuclear repulsion =  817.650826316425309
  Reference energy  = -650.160683473441622

  ==> Basis Set <==

  Basis Set: AUG-CC-PVTZ
    Blend: AUG-CC-PVTZ
    Number of shells: 268
    Number of basis function: 828
    Number of Cartesian functions: 970
    Spherical Harmonics?: true
    Max angular momentum: 3

  ==> CGRSolver (by Rob Parrish) <==

   Number of roots    =         1
   Preconditioning    =    JACOBI
   Convergence cutoff =     1E-06
   Maximum iterations =       100

  ==> CPHFRHamiltonian (by Rob Parrish) <== 

  ==> DFJK: Density-Fitted J/K Matrices <==

    J tasked:                  Yes
    K tasked:                  Yes
    wK tasked:                  No
    OpenMP threads:              8
    Integrals threads:           8
    Memory (MB):              3576
    Algorithm:                Disk
    Integral Cache:           NONE
    Schwarz Cutoff:          1E-12
    Fitting Condition:       1E-12

   => Auxiliary Basis Set <=

  Basis Set: (AUG-CC-PVTZ AUX)
    Blend: AUG-CC-PVTZ-JKFIT
    Number of shells: 532
    Number of basis function: 1824
    Number of Cartesian functions: 2274
    Spherical Harmonics?: true
    Max angular momentum: 4

  ==> CPHF Iterations <==

  => Iterations <=

             Iter  Converged  Remaining    Residual
  CGR           1          0          1   1.053E-01
  CGR           2          0          1   3.684E-02
  CGR           3          0          1   2.553E-02
  CGR           4          0          1   1.080E-02
  CGR           5          0          1   4.583E-03
  CGR           6          0          1   1.742E-03
  CGR           7          0          1   5.011E-04
  CGR           8          0          1   1.661E-04
  CGR           9          0          1   5.687E-05
  CGR          10          0          1   1.990E-05
  CGR          11          0          1   1.038E-05
  CGR          12          0          1   4.341E-06
  CGR          13          0          1   1.885E-06
  CGR          14          1          0   6.061E-07

    CGRSolver converged.

  ==> DFCorrGrad: Density-Fitted Correlated Gradients <==

    OpenMP threads:              8
    Integrals threads:           8
    Memory (MB):              3576
    Schwarz Cutoff:          0E+00
    Fitting Condition:       1E-12

   => Auxiliary Basis Set <=

  Basis Set: (AUG-CC-PVTZ AUX)
    Blend: AUG-CC-PVTZ-JKFIT
    Number of shells: 532
    Number of basis function: 1824
    Number of Cartesian functions: 2274
    Spherical Harmonics?: true
    Max angular momentum: 4

	-----------------------------------------------------------
	 ==================> DF-MP2 Energies <==================== 
	-----------------------------------------------------------
	 Reference Energy          =    -650.1606834734416225 [Eh]
	 Singles Energy            =      -0.0000000000000008 [Eh]
	 Same-Spin Energy          =      -0.6795584988722326 [Eh]
	 Opposite-Spin Energy      =      -2.0220022845799304 [Eh]
	 Correlation Energy        =      -2.7015607834521638 [Eh]
	 Total Energy              =    -652.8622442568937458 [Eh]
	-----------------------------------------------------------
	 ================> DF-SCS-MP2 Energies <================== 
	-----------------------------------------------------------
	 SCS Same-Spin Scale       =       0.3333333333333333 [-]
	 SCS Opposite-Spin Scale   =       1.2000000000000000 [-]
	 SCS Same-Spin Energy      =      -0.2265194996240775 [Eh]
	 SCS Opposite-Spin Energy  =      -2.4264027414959162 [Eh]
	 SCS Correlation Energy    =      -2.6529222411199944 [Eh]
	 SCS Total Energy          =    -652.8136057145616178 [Eh]
	-----------------------------------------------------------


  -Total Gradient:
     Atom            X                  Y                   Z
    ------   -----------------  -----------------  -----------------
       1        0.013734800530    -0.005916222149    -0.017275474343
       2        0.002256081203    -0.001265191665     0.005483496615
       3       -0.016245315342     0.005424952223     0.006422920519
       4       -0.010248202816     0.004388230685     0.003592008572
       5       -0.008626815134     0.004998061124     0.000923485972
       6       -0.002267092564     0.003305953071     0.014328053029
       7       -0.010952095811     0.002933755034    -0.002489112573
       8       -0.008107498015     0.003953330658     0.002111045755
       9        0.005121027996    -0.001974509308    -0.004076321913
      10       -0.008159112966     0.005072786967    -0.006090455198
      11        0.027150912487    -0.017111699748     0.005822743128
      12        0.011605157509    -0.005332781877    -0.007352214335
      13        0.002426566953    -0.001478024028     0.000738590114
      14        0.016071954061    -0.001840844746    -0.014943233122
      15       -0.000350939089    -0.001302384516    -0.009221775653
      16       -0.003234003398     0.001685186676    -0.005436487506
      17       -0.005340811946     0.001905220684     0.018018529757
      18       -0.006270417812     0.003694146177    -0.002649141080
      19       -0.000974433716     0.000411095357     0.004294901627
      20        0.002751133792    -0.001207607272     0.000683683039
      21        0.000777065662    -0.000671503649    -0.002211648504
      22       -0.001117961598     0.000328050298     0.009326406101


*** tstop() called on gpu-2-11.local at Sat Nov 11 22:25:25 2017
Module time:
	user time   =    5942.04 seconds =      99.03 minutes
	system time =     122.16 seconds =       2.04 minutes
	total time  =       2800 seconds =      46.67 minutes
Total time:
	user time   =    5942.05 seconds =      99.03 minutes
	system time =     122.16 seconds =       2.04 minutes
	total time  =       2800 seconds =      46.67 minutes

			-----------------------------------------
			 OPTKING 2.0: for geometry optimizations 
			  - R.A. King,  Bethel University        
			-----------------------------------------

	Internal coordinates to be generated automatically.
	Detected frag 1 with atoms:  1 2 3 4 5 6 7 8 9 10 11 12 13 14 15 16 17 18 19 20
	 21 22
	---Fragment 1 Bond Connectivity---
	 1 : 2 8 15
	 2 : 1 10 16
	 3 : 6 9 17
	 4 : 7 9 18
	 5 : 10 11 19
	 6 : 3 12 20
	 7 : 4 12 21
	 8 : 1 9 11
	 9 : 3 4 8
	 10 : 2 5 13
	 11 : 5 8 14
	 12 : 6 7
	 13 : 10 22
	 14 : 11
	 15 : 1
	 16 : 2
	 17 : 3
	 18 : 4
	 19 : 5
	 20 : 6
	 21 : 7
	 22 : 13

	Assuming in current code that numbering for constraints corresponds to unified fragment.
	Fixed dihedral atom list: 
	     1     8     9     3
	---Fragment 1 Geometry and Gradient---
	 C          -2.4972232235        1.4283753714       -1.5118067892
	 C          -4.5343479948        2.5111884455       -0.2400211017
	 C           3.7804469899       -1.4062138280       -0.1871087700
	 C           1.3956126102       -1.3136172475       -4.0534884379
	 C          -2.6578499448        1.3471171476        3.7567496693
	 C           5.7457621681       -2.4814679976       -1.5439321334
	 C           3.4667524519       -2.3926508693       -5.2383467232
	 C          -0.5394669499        0.3039883223       -0.1512039735
	 C           1.5713571406       -0.8185090006       -1.4796814449
	 C          -4.6156062185        2.4715041967        2.3942571275
	 C          -0.6207251736        0.2643040735        2.4830742558
	 N           5.6456066831       -2.9898043273       -4.0440398072
	 O          -6.6054878364        3.5297508311        3.6358071968
	 F           1.2463242457       -0.8090603700        3.8191106317
	 H          -2.4613184270        1.4737287985       -3.5659390956
	 H          -6.0555775317        3.3823521928       -1.3114958191
	 H           3.9883168645       -1.0490555889        1.8235598354
	 H          -0.2994717310       -0.8789802369       -5.1249631552
	 H          -2.7107622765        1.3093226250        5.8089922496
	 H           7.5088766501       -2.9784659705       -0.6217457806
	 H           3.4270682031       -2.8140597970       -7.2433461502
	 H          -6.3900590573        3.3521165746        5.4480545583
	             0.0137348005       -0.0059162221       -0.0172754743
	             0.0022560812       -0.0012651917        0.0054834966
	            -0.0162453153        0.0054249522        0.0064229205
	            -0.0102482028        0.0043882307        0.0035920086
	            -0.0086268151        0.0049980611        0.0009234860
	            -0.0022670926        0.0033059531        0.0143280530
	            -0.0109520958        0.0029337550       -0.0024891126
	            -0.0081074980        0.0039533307        0.0021110458
	             0.0051210280       -0.0019745093       -0.0040763219
	            -0.0081591130        0.0050727870       -0.0060904552
	             0.0271509125       -0.0171116997        0.0058227431
	             0.0116051575       -0.0053327819       -0.0073522143
	             0.0024265670       -0.0014780240        0.0007385901
	             0.0160719541       -0.0018408447       -0.0149432331
	            -0.0003509391       -0.0013023845       -0.0092217757
	            -0.0032340034        0.0016851867       -0.0054364875
	            -0.0053408119        0.0019052207        0.0180185298
	            -0.0062704178        0.0036941462       -0.0026491411
	            -0.0009744337        0.0004110954        0.0042949016
	             0.0027511338       -0.0012076073        0.0006836830
	             0.0007770657       -0.0006715036       -0.0022116485
	            -0.0011179616        0.0003280503        0.0093264061

	Previous optimization step data not found.  Starting new optimization.

	---Fragment 1 Intrafragment Coordinates---
	 - Coordinate -           - BOHR/RAD -       - ANG/DEG -
	 R(1,2)           =         2.634350	       1.394038
	 R(1,8)           =         2.635962	       1.394891
	 R(1,15)          =         2.054947	       1.087431
	 R(2,10)          =         2.635830	       1.394821
	 R(2,16)          =         2.054537	       1.087214
	 R(3,6)           =         2.619085	       1.385960
	 R(3,9)           =         2.626065	       1.389654
	 R(3,17)          =         2.052696	       1.086240
	 R(4,7)           =         2.618745	       1.385780
	 R(4,9)           =         2.626880	       1.390085
	 R(4,18)          =         2.051896	       1.085817
	 R(5,10)          =         2.636938	       1.395407
	 R(5,11)          =         2.635263	       1.394521
	 R(5,19)          =         2.053272	       1.086545
	 R(6,12)          =         2.553228	       1.351110
	 R(6,20)          =         2.050855	       1.085266
	 R(7,12)          =         2.555458	       1.352290
	 R(7,21)          =         2.049191	       1.084385
	 R(8,9)           =         2.735038	       1.447320
	 R(8,11)          =         2.635830	       1.394821
	 R(10,13)         =         2.573123	       1.361638
	 R(11,14)         =         2.534359	       1.341125
	 R(13,22)         =         1.833631	       0.970316
	 B(1,2,10)        =         2.094553	     120.009056
	 B(1,2,16)        =         2.088723	     119.675016
	 B(1,8,9)         =         2.091569	     119.838095
	 B(1,8,11)        =         2.093692	     119.959722
	 B(2,1,8)         =         2.094940	     120.031219
	 B(2,1,15)        =         2.079469	     119.144799
	 B(2,10,5)        =         2.094306	     119.994870
	 B(2,10,13)       =         2.094247	     119.991510
	 B(3,6,12)        =         2.164671	     124.026536
	 B(3,6,20)        =         2.107894	     120.773457
	 B(3,9,4)         =         2.090201	     119.759669
	 B(3,9,8)         =         2.096704	     120.132269
	 B(4,7,12)        =         2.164173	     123.997991
	 B(4,7,21)        =         2.108441	     120.804768
	 B(4,9,8)         =         2.096281	     120.108057
	 B(5,10,13)       =         2.094633	     120.013619
	 B(5,11,8)        =         2.095181	     120.045019
	 B(5,11,14)       =         2.081414	     119.256220
	 B(6,3,9)         =         2.057962	     117.912522
	 B(6,3,17)        =         2.097735	     120.191372
	 B(6,12,7)        =         2.031472	     116.394785
	 B(7,4,9)         =         2.057890	     117.908426
	 B(7,4,18)        =         2.099453	     120.289802
	 B(8,1,15)        =         2.108776	     120.823969
	 B(8,11,14)       =         2.106591	     120.698759
	 B(9,3,17)        =         2.127487	     121.896007
	 B(9,4,18)        =         2.125842	     121.801769
	 B(9,8,11)        =         2.097924	     120.202184
	 B(10,2,16)       =         2.099909	     120.315896
	 B(10,5,11)       =         2.093699	     119.960108
	 B(10,5,19)       =         2.100355	     120.341451
	 B(10,13,22)      =         1.924294	     110.253909
	 B(11,5,19)       =         2.089132	     119.698439
	 B(12,6,20)       =         2.010619	     115.199996
	 B(12,7,21)       =         2.010569	     115.197098
	 D(1,2,10,5)      =        -0.000325	      -0.018609
	 D(1,2,10,13)     =         3.141388	     179.988267
	 D(1,8,9,3)       =         2.879184	     164.965112
	 D(1,8,9,4)       =        -0.262884	     -15.062129
	 D(1,8,11,5)      =         0.000325	       0.018608
	 D(1,8,11,14)     =        -3.141528	    -179.996269
	 D(2,1,8,9)       =         3.141277	     179.981897
	 D(2,1,8,11)      =        -0.000348	      -0.019945
	 D(2,10,5,11)     =         0.000301	       0.017261
	 D(2,10,5,19)     =        -3.141029	    -179.967685
	 D(2,10,13,22)    =         3.141285	     179.982383
	 D(3,6,12,7)      =        -0.001376	      -0.078857
	 D(3,9,4,7)       =         0.000965	       0.055306
	 D(3,9,4,18)      =        -3.140994	    -179.965697
	 D(3,9,8,11)      =        -0.262376	     -15.033042
	 D(4,7,12,6)      =         0.001270	       0.072745
	 D(4,9,3,6)       =        -0.001061	      -0.060764
	 D(4,9,3,17)      =        -3.140656	    -179.946356
	 D(4,9,8,11)      =         2.878741	     164.939717
	 D(5,10,2,16)     =         3.140149	     179.917291
	 D(5,10,13,22)    =        -0.000187	      -0.010740
	 D(5,11,8,9)      =        -3.141300	    -179.983240
	 D(6,3,9,8)       =         3.140058	     179.912091
	 D(6,12,7,21)     =         3.140473	     179.935857
	 D(7,4,9,8)       =        -3.140154	    -179.917555
	 D(7,12,6,20)     =         3.139583	     179.884830
	 D(8,1,2,10)      =         0.000348	       0.019955
	 D(8,1,2,16)      =        -3.140133	    -179.916358
	 D(8,9,3,17)      =         0.000462	       0.026499
	 D(8,9,4,18)      =         0.001072	       0.061442
	 D(8,11,5,10)     =        -0.000301	      -0.017270
	 D(8,11,5,19)     =         3.141030	     179.967774
	 D(9,3,6,12)      =         0.001310	       0.075036
	 D(9,3,6,20)      =        -3.139616	    -179.886723
	 D(9,4,7,12)      =        -0.001103	      -0.063207
	 D(9,4,7,21)      =        -3.140179	    -179.918999
	 D(9,8,1,15)      =         0.000403	       0.023110
	 D(9,8,11,14)     =         0.000033	       0.001883
	 D(10,2,1,15)     =         3.141234	     179.979432
	 D(10,5,11,14)    =         3.141547	     179.997392
	 D(11,5,10,13)    =        -3.141411	    -179.989616
	 D(11,8,1,15)     =        -3.141221	    -179.978731
	 D(12,6,3,17)     =         3.140941	     179.962659
	 D(12,7,4,18)     =         3.140850	     179.957464
	 D(13,10,2,16)    =        -0.001324	      -0.075833
	 D(13,10,5,19)    =         0.000444	       0.025437
	 D(14,11,5,19)    =        -0.000307	      -0.017564
	 D(15,1,2,16)     =         0.000753	       0.043120
	 D(17,3,6,20)     =         0.000016	       0.000900
	 D(18,4,7,21)     =         0.001775	       0.101673
	 R(3,14)          =         4.777883	       2.528347

	Current energy   :      -652.8622442569

	Generating empirical Hessian (Schlegel '84) for each fragment.
	Adding user-defined constraint: Fragment 1; Coordinate 61:
		Value =     2.879184; Fixed value    =     2.879793
		Force =     0.000304; Force constant =     0.500000
	Removing off-diagonal coupling between coordinate 61 and others.
	Taking RFO optimization step.
	Going to follow RFO solution 1.
	Using RFO vector 1.

	Determining step-restricting scale parameter for RS-RFO.
	Maximum step size allowed    0.10000

	 Iter      |step|        alpha        rfo_root  
	------------------------------------------------
	    0     0.44851       1.00000           1
	    1     0.29327       3.79791           1
	    2     0.19986      10.97040           1
	    3     0.14462      25.71714           1
	    4     0.11476      46.14024           1
	    5     0.10254      60.87071           1
	    6     0.10010      64.54133           1
	    7     0.10000      64.69529           1
	------------------------------------------------
	Norm of target step-size    0.10000
	Projected energy change by RFO approximation:        -0.0068895272

	Back-transformation to cartesian coordinates...
	Could not converge backtransformation.
	Using first guess instead.

	--- Internal Coordinate Step in ANG or DEG, aJ/ANG or AJ/DEG ---
	 ---------------------------------------------------------------------------
	   Coordinate                Previous        Force       Change         New 
	   ----------                --------       ------       ------       ------
	    1 R(1,2)          =      1.394038    -0.068317    -0.004801     1.389237
	    2 R(1,8)          =      1.394891     0.013288     0.001272     1.396163
	    3 R(1,15)         =      1.087431    -0.075658    -0.006016     1.081415
	    4 R(2,10)         =      1.394821    -0.086490    -0.006199     1.388622
	    5 R(2,16)         =      1.087214    -0.048973    -0.003902     1.083312
	    6 R(3,6)          =      1.385960     0.012100     0.000900     1.386860
	    7 R(3,9)          =      1.389654     0.068413     0.005215     1.394869
	    8 R(3,17)         =      1.086240    -0.143685    -0.011333     1.074907
	    9 R(4,7)          =      1.385780    -0.017722    -0.001299     1.384481
	   10 R(4,9)          =      1.390085     0.038028     0.003099     1.393184
	   11 R(4,18)         =      1.085817    -0.060521    -0.004786     1.081031
	   12 R(5,10)         =      1.395407    -0.064779    -0.004655     1.390753
	   13 R(5,11)         =      1.394521    -0.112455    -0.007822     1.386699
	   14 R(5,19)         =      1.086545    -0.035512    -0.002786     1.083759
	   15 R(6,12)         =      1.351110    -0.127752    -0.008486     1.342624
	   16 R(6,20)         =      1.085266    -0.024429    -0.001953     1.083312
	   17 R(7,12)         =      1.352290    -0.136930    -0.009176     1.343115
	   18 R(7,21)         =      1.084385    -0.018842    -0.001495     1.082890
	   19 R(8,9)          =      1.447320     0.170946     0.013553     1.460873
	   20 R(8,11)         =      1.394821    -0.071419    -0.004466     1.390355
	   21 R(10,13)        =      1.361638    -0.027777    -0.001770     1.359868
	   22 R(11,14)        =      1.341125    -0.038756    -0.002424     1.338701
	   23 R(13,22)        =      0.970316    -0.074598    -0.004878     0.965438
	   24 B(1,2,10)       =    120.009056    -0.000080    -0.094911   119.914146
	   25 B(1,2,16)       =    119.675016     0.000254     0.312603   119.987620
	   26 B(1,8,9)        =    119.838095     0.001306     1.308536   121.146631
	   27 B(1,8,11)       =    119.959722    -0.001526    -1.666020   118.293701
	   28 B(2,1,8)        =    120.031219     0.000754     0.882353   120.913572
	   29 B(2,1,15)       =    119.144799    -0.000399    -0.471785   118.673014
	   30 B(2,10,5)       =    119.994870    -0.000127    -0.158217   119.836654
	   31 B(2,10,13)      =    119.991510    -0.000704    -0.751056   119.240454
	   32 B(3,6,12)       =    124.026536     0.000337     0.349820   124.376356
	   33 B(3,6,20)       =    120.773457    -0.000231    -0.252435   120.521022
	   34 B(3,9,4)        =    119.759669    -0.001362    -1.414213   118.345457
	   35 B(3,9,8)        =    120.132269     0.000777     0.877302   121.009571
	   36 B(4,7,12)       =    123.997991     0.000091     0.045261   124.043252
	   37 B(4,7,21)       =    120.804768    -0.000111    -0.103581   120.701187
	   38 B(4,9,8)        =    120.108057     0.000585     0.536823   120.644880
	   39 B(5,10,13)      =    120.013619     0.000832     0.909268   120.922887
	   40 B(5,11,8)       =    120.045019     0.001190     1.277951   121.322970
	   41 B(5,11,14)      =    119.256220    -0.000374    -0.470718   118.785502
	   42 B(6,3,9)        =    117.912522     0.000247     0.343052   118.255574
	   43 B(6,3,17)       =    120.191372    -0.000607    -0.782689   119.408682
	   44 B(6,12,7)       =    116.394785     0.000004    -0.131041   116.263744
	   45 B(7,4,9)        =    117.908426     0.000683     0.807159   118.715585
	   46 B(7,4,18)       =    120.289802    -0.000484    -0.584419   119.705383
	   47 B(8,1,15)       =    120.823969    -0.000355    -0.410613   120.413356
	   48 B(8,11,14)      =    120.698759    -0.000816    -0.807646   119.891113
	   49 B(9,3,17)       =    121.896007     0.000361     0.439561   122.335568
	   50 B(9,4,18)       =    121.801769    -0.000199    -0.222876   121.578893
	   51 B(9,8,11)       =    120.202184     0.000220     0.357333   120.559517
	   52 B(10,2,16)      =    120.315896    -0.000173    -0.217685   120.098211
	   53 B(10,5,11)      =    119.960108    -0.000210    -0.241197   119.718911
	   54 B(10,5,19)      =    120.341451     0.000183     0.215865   120.557316
	   55 B(10,13,22)     =    110.253909    -0.000352    -0.435658   109.818251
	   56 B(11,5,19)      =    119.698439     0.000028     0.025315   119.723753
	   57 B(12,6,20)      =    115.199996    -0.000106    -0.097375   115.102621
	   58 B(12,7,21)      =    115.197098     0.000020     0.058398   115.255496
	   59 D(1,2,10,5)     =     -0.018609     0.000000    -0.000611    -0.019220
	   60 D(1,2,10,13)    =    179.988267     0.000002     0.019762   180.008028
	   61 D(1,8,9,3)      =    164.965112    -0.000034    -0.182494   164.782618
	   62 D(1,8,9,4)      =    -15.062129    -0.000043    -0.268001   -15.330130
	   63 D(1,8,11,5)     =      0.018608    -0.000005    -0.051300    -0.032692
	   64 D(1,8,11,14)    =   -179.996269    -0.000037    -0.273684  -180.269954
	   65 D(2,1,8,9)      =    179.981897    -0.000005    -0.052766   179.929130
	   66 D(2,1,8,11)     =     -0.019945     0.000011     0.089637     0.069692
	   67 D(2,10,5,11)    =      0.017261     0.000005     0.038415     0.055676
	   68 D(2,10,5,19)    =   -179.967685     0.000010     0.073494  -179.894191
	   69 D(2,10,13,22)   =    179.982383    -0.000001    -0.010755   179.971628
	   70 D(3,6,12,7)     =     -0.078857     0.000009     0.061413    -0.017445
	   71 D(3,9,4,7)      =      0.055306    -0.000001    -0.015094     0.040212
	   72 D(3,9,4,18)     =   -179.965697    -0.000018    -0.130578  -180.096274
	   73 D(3,9,8,11)     =    -15.033042    -0.000050    -0.328073   -15.361115
	   74 D(4,7,12,6)     =      0.072745    -0.000002    -0.014542     0.058203
	   75 D(4,9,3,6)      =     -0.060764     0.000007     0.057315    -0.003449
	   76 D(4,9,3,17)     =   -179.946356    -0.000030    -0.210581  -180.156936
	   77 D(4,9,8,11)     =    164.939717    -0.000059    -0.413580   164.526137
	   78 D(5,10,2,16)    =    179.917291     0.000002     0.008019   179.925310
	   79 D(5,10,13,22)   =     -0.010740     0.000001     0.009921    -0.000819
	   80 D(5,11,8,9)     =   -179.983240     0.000011     0.090253  -179.892988
	   81 D(6,3,9,8)      =    179.912091    -0.000002    -0.025756   179.886335
	   82 D(6,12,7,21)    =    179.935857     0.000004     0.030399   179.966256
	   83 D(7,4,9,8)      =   -179.917555     0.000008     0.067566  -179.849989
	   84 D(7,12,6,20)    =    179.884830     0.000013     0.088368   179.973197
	   85 D(8,1,2,10)     =      0.019955    -0.000008    -0.064352    -0.044398
	   86 D(8,1,2,16)     =   -179.916358    -0.000010    -0.072632  -179.988990
	   87 D(8,9,3,17)     =      0.026499    -0.000039    -0.293652    -0.267153
	   88 D(8,9,4,18)     =      0.061442    -0.000009    -0.047918     0.013525
	   89 D(8,11,5,10)    =     -0.017270    -0.000003    -0.012221    -0.029491
	   90 D(8,11,5,19)    =    179.967774    -0.000007    -0.046976   179.920798
	   91 D(9,3,6,12)     =      0.075036    -0.000011    -0.083628    -0.008592
	   92 D(9,3,6,20)     =   -179.886723    -0.000016    -0.112033  -179.998755
	   93 D(9,4,7,12)     =     -0.063207    -0.000001    -0.007776    -0.070984
	   94 D(9,4,7,21)     =   -179.918999    -0.000008    -0.055271  -179.974270
	   95 D(9,8,1,15)     =      0.023110    -0.000023    -0.182610    -0.159500
	   96 D(9,8,11,14)    =      0.001883    -0.000021    -0.132132    -0.130249
	   97 D(10,2,1,15)    =    179.979432     0.000010     0.063288   180.042720
	   98 D(10,5,11,14)   =    179.997392     0.000028     0.207819   180.205211
	   99 D(11,5,10,13)   =   -179.989616     0.000003     0.017576  -179.972040
	  100 D(11,8,1,15)    =   -179.978731    -0.000007    -0.040207  -180.018938
	  101 D(12,6,3,17)    =    179.962659     0.000026     0.177619   180.140278
	  102 D(12,7,4,18)    =    179.957464     0.000015     0.105420   180.062884
	  103 D(13,10,2,16)   =     -0.075833     0.000004     0.028392    -0.047441
	  104 D(13,10,5,19)   =      0.025437     0.000008     0.052655     0.078093
	  105 D(14,11,5,19)   =     -0.017564     0.000024     0.173064     0.155500
	  106 D(15,1,2,16)    =      0.043120     0.000008     0.055008     0.098128
	  107 D(17,3,6,20)    =      0.000900     0.000021     0.149215     0.150115
	  108 D(18,4,7,21)    =      0.101673     0.000008     0.057925     0.159598
	  109 R(3,14)         =      2.528347     0.191112     0.024991     2.553338
	 ---------------------------------------------------------------------------
	Successfully symmetrized geometry.
	 Forces used to impose fixed constraints are not included.
	  Forces zeroed: 61 

  ==> Convergence Check <==

  Measures of convergence in internal coordinates in au.
  Criteria marked as inactive (o), active & met (*), and active & unmet ( ).
  --------------------------------------------------------------------------------------------- ~
   Step     Total Energy     Delta E     MAX Force     RMS Force      MAX Disp      RMS Disp    ~
  --------------------------------------------------------------------------------------------- ~
    Convergence Criteria    1.00e-06 *    3.00e-04 *             o    1.20e-03 *             o  ~
  --------------------------------------------------------------------------------------------- ~
      1    -652.86224426   -6.53e+02      2.32e-02      6.78e-03 o    4.72e-02      9.60e-03 o  ~
  ---------------------------------------------------------------------------------------------

	Writing optimization data to binary file.
	Structure for next step:
	Cartesian Geometry (in Angstrom)
	    C    -1.3401034719   0.7707121657  -0.7810454717
	    C    -2.4137157100   1.3401200074  -0.1079100511
	    C     2.0174964763  -0.7489095551  -0.1097851108
	    C     0.7617539868  -0.7079526039  -2.1477666352
	    C    -1.4185201708   0.7159013889   1.9906816410
	    C     3.0540193972  -1.3205196817  -0.8324626686
	    C     1.8558777283  -1.2813975229  -2.7729408376
	    C    -0.2927008266   0.1684703328  -0.0813855847
	    C     0.8379612401  -0.4331761761  -0.7840758751
	    C    -2.4538667118   1.3133989954   1.2798742539
	    C    -0.3518221271   0.1515427463   1.3076092106
	    N     3.0018320211  -1.5938293023  -2.1459381859
	    O    -3.5113656597   1.8747106524   1.9247502393
	    F     0.6325597405  -0.4223192186   2.0103143760
	    H    -1.3289950147   0.8034712511  -1.8619068560
	    H    -3.2184935888   1.8033517652  -0.6658659366
	    H     2.1467079693  -0.5623520828   0.9408935786
	    H    -0.1274668248  -0.4861663623  -2.7211122735
	    H    -1.4387622096   0.6869399040   3.0738647747
	    H     3.9862442437  -1.5803858575  -0.3456443360
	    H     1.8317639179  -1.5081320573  -3.8315534326
	    H    -3.4008239279   1.7795224316   2.8791038559
			--------------------------
			 OPTKING Finished Execution 
			--------------------------

    Structure for next step:
    Molecular point group: c1
    Full point group: C1

    Geometry (in Angstrom), charge = 0, multiplicity = 1:

    C           -1.336946319141     0.769623655328    -0.780552116398
    C           -2.410558557321     1.339031497029    -0.107416695861
    C            2.020653629040    -0.749998065452    -0.109291755570
    C            0.764911139538    -0.709041114327    -2.147273279911
    C           -1.415363018086     0.714812878476     1.991174996277
    C            3.057176549950    -1.321608192128    -0.831969313368
    C            1.859034881068    -1.282486033295    -2.772447482302
    C           -0.289543673886     0.167381822374    -0.080892229473
    C            0.841118392847    -0.434264686522    -0.783582519865
    C           -2.450709559074     1.312310485047     1.280367609205
    C           -0.348664974341     0.150454235929     1.308102565859
    N            3.004989173853    -1.594917812717    -2.145444830607
    O           -3.508208506981     1.873622141977     1.925243594514
    F            0.635716893178    -0.423407728958     2.010807731229
    H           -1.325837862010     0.802382740674    -1.861413500767
    H           -3.215336436068     1.802263254769    -0.665372581347
    H            2.149865122055    -0.563440593218     0.941386933852
    H           -0.124309672081    -0.487254872677    -2.720618918266
    H           -1.435605056910     0.685851393628     3.074358129978
    H            3.989401396412    -1.581474367872    -0.345150980756
    H            1.834921070625    -1.509220567730    -3.831060077317
    H           -3.397666775134     1.778433921248     2.879597211167

gradient() will perform analytic gradient computation.

*** tstart() called on gpu-2-11.local
*** at Sat Nov 11 22:25:27 2017

    SCF Algorithm Type (re)set to DF.

*** tstart() called on gpu-2-11.local
*** at Sat Nov 11 22:25:27 2017

   => Loading Basis Set <=

    Name: AUG-CC-PVTZ
    Role: ORBITAL
    Keyword: BASIS
    atoms 1-11  entry C          line   221 file /cbio/jclab/home/chayas/anaconda/envs/py35/share/psi4/basis/aug-cc-pvtz.gbs 
    atoms 12    entry N          line   267 file /cbio/jclab/home/chayas/anaconda/envs/py35/share/psi4/basis/aug-cc-pvtz.gbs 
    atoms 13    entry O          line   313 file /cbio/jclab/home/chayas/anaconda/envs/py35/share/psi4/basis/aug-cc-pvtz.gbs 
    atoms 14    entry F          line   359 file /cbio/jclab/home/chayas/anaconda/envs/py35/share/psi4/basis/aug-cc-pvtz.gbs 
    atoms 15-22 entry H          line    34 file /cbio/jclab/home/chayas/anaconda/envs/py35/share/psi4/basis/aug-cc-pvtz.gbs 


         ---------------------------------------------------------
                                   SCF
            by Justin Turney, Rob Parrish, and Andy Simmonett
                              RHF Reference
                        8 Threads,   4768 MiB Core
         ---------------------------------------------------------

  ==> Geometry <==

    Molecular point group: c1
    Full point group: C1

    Geometry (in Angstrom), charge = 0, multiplicity = 1:

       Center              X                  Y                   Z               Mass       
    ------------   -----------------  -----------------  -----------------  -----------------
           C         -1.336946319141     0.769623655328    -0.780552116398    12.000000000000
           C         -2.410558557321     1.339031497029    -0.107416695861    12.000000000000
           C          2.020653629040    -0.749998065452    -0.109291755570    12.000000000000
           C          0.764911139538    -0.709041114327    -2.147273279911    12.000000000000
           C         -1.415363018086     0.714812878476     1.991174996277    12.000000000000
           C          3.057176549950    -1.321608192128    -0.831969313368    12.000000000000
           C          1.859034881068    -1.282486033295    -2.772447482302    12.000000000000
           C         -0.289543673886     0.167381822374    -0.080892229473    12.000000000000
           C          0.841118392847    -0.434264686522    -0.783582519865    12.000000000000
           C         -2.450709559074     1.312310485047     1.280367609205    12.000000000000
           C         -0.348664974341     0.150454235929     1.308102565859    12.000000000000
           N          3.004989173853    -1.594917812717    -2.145444830607    14.003074004780
           O         -3.508208506981     1.873622141977     1.925243594514    15.994914619560
           F          0.635716893178    -0.423407728958     2.010807731229    18.998403224000
           H         -1.325837862010     0.802382740674    -1.861413500767     1.007825032070
           H         -3.215336436068     1.802263254769    -0.665372581347     1.007825032070
           H          2.149865122055    -0.563440593218     0.941386933852     1.007825032070
           H         -0.124309672081    -0.487254872677    -2.720618918266     1.007825032070
           H         -1.435605056910     0.685851393628     3.074358129978     1.007825032070
           H          3.989401396412    -1.581474367872    -0.345150980756     1.007825032070
           H          1.834921070625    -1.509220567730    -3.831060077317     1.007825032070
           H         -3.397666775134     1.778433921248     2.879597211167     1.007825032070

  Running in c1 symmetry.

  Rotational constants: A =      0.06418  B =      0.01344  C =      0.01117 [cm^-1]
  Rotational constants: A =   1924.10991  B =    402.83689  C =    334.89838 [MHz]
  Nuclear repulsion =  816.994608641264904

  Charge       = 0
  Multiplicity = 1
  Electrons    = 98
  Nalpha       = 49
  Nbeta        = 49

  ==> Algorithm <==

  SCF Algorithm Type is DF.
  DIIS enabled.
  MOM disabled.
  Fractional occupation disabled.
  Guess Type is READ.
  Energy threshold   = 1.00e-10
  Density threshold  = 1.00e-10
  Integral threshold = 0.00e+00

  ==> Primary Basis <==

  Basis Set: AUG-CC-PVTZ
    Blend: AUG-CC-PVTZ
    Number of shells: 268
    Number of basis function: 828
    Number of Cartesian functions: 970
    Spherical Harmonics?: true
    Max angular momentum: 3

   => Loading Basis Set <=

    Name: (AUG-CC-PVTZ AUX)
    Role: JKFIT
    Keyword: DF_BASIS_SCF
    atoms 1-11  entry C          line   161 file /cbio/jclab/home/chayas/anaconda/envs/py35/share/psi4/basis/aug-cc-pvtz-jkfit.gbs 
    atoms 12    entry N          line   223 file /cbio/jclab/home/chayas/anaconda/envs/py35/share/psi4/basis/aug-cc-pvtz-jkfit.gbs 
    atoms 13    entry O          line   285 file /cbio/jclab/home/chayas/anaconda/envs/py35/share/psi4/basis/aug-cc-pvtz-jkfit.gbs 
    atoms 14    entry F          line   347 file /cbio/jclab/home/chayas/anaconda/envs/py35/share/psi4/basis/aug-cc-pvtz-jkfit.gbs 
    atoms 15-22 entry H          line    69 file /cbio/jclab/home/chayas/anaconda/envs/py35/share/psi4/basis/aug-cc-pvtz-jkfit.gbs 

  Reading orbitals from file 180, no projection.

  ==> Pre-Iterations <==

   -------------------------------------------------------
    Irrep   Nso     Nmo     Nalpha   Nbeta   Ndocc  Nsocc
   -------------------------------------------------------
     A        828     828       0       0       0       0
   -------------------------------------------------------
    Total     828     828      49      49      49       0
   -------------------------------------------------------

  ==> Integral Setup <==

  ==> DFJK: Density-Fitted J/K Matrices <==

    J tasked:                  Yes
    K tasked:                  Yes
    wK tasked:                  No
    OpenMP threads:              8
    Integrals threads:           8
    Memory (MB):              3576
    Algorithm:                Disk
    Integral Cache:           NONE
    Schwarz Cutoff:          1E-12
    Fitting Condition:       1E-12

   => Auxiliary Basis Set <=

  Basis Set: (AUG-CC-PVTZ AUX)
    Blend: AUG-CC-PVTZ-JKFIT
    Number of shells: 532
    Number of basis function: 1824
    Number of Cartesian functions: 2274
    Spherical Harmonics?: true
    Max angular momentum: 4

  Minimum eigenvalue in the overlap matrix is 5.8513710327E-07.
  Using Symmetric Orthogonalization.

  SCF Guess: Orbitals guess was supplied from a previous computation.

  ==> Iterations <==

                           Total Energy        Delta E     RMS |[F,P]|

   @DF-RHF iter   0:  -650.28684249012201   -6.50287e+02   5.60494e-04 
   @DF-RHF iter   1:  -650.16814711775874    1.18695e-01   1.54513e-04 
   @DF-RHF iter   2:  -650.16883988422023   -6.92766e-04   1.10839e-04 DIIS
   @DF-RHF iter   3:  -650.16946509780473   -6.25214e-04   1.39923e-05 DIIS
   @DF-RHF iter   4:  -650.16947537416343   -1.02764e-05   2.67356e-06 DIIS
   @DF-RHF iter   5:  -650.16947696615023   -1.59199e-06   9.60528e-07 DIIS
   @DF-RHF iter   6:  -650.16947719260020   -2.26450e-07   7.39226e-07 DIIS
   @DF-RHF iter   7:  -650.16947727257411   -7.99739e-08   2.31117e-07 DIIS
   @DF-RHF iter   8:  -650.16947729738274   -2.48086e-08   1.24223e-07 DIIS
   @DF-RHF iter   9:  -650.16947730105221   -3.66947e-09   4.42281e-08 DIIS
   @DF-RHF iter  10:  -650.16947730147444   -4.22233e-10   1.34938e-08 DIIS
   @DF-RHF iter  11:  -650.16947730152754   -5.30918e-11   4.58777e-09 DIIS
   @DF-RHF iter  12:  -650.16947730152924   -1.70530e-12   2.73461e-09 DIIS
   @DF-RHF iter  13:  -650.16947730152378    5.45697e-12   1.25493e-09 DIIS
   @DF-RHF iter  14:  -650.16947730151537    8.41283e-12   5.91559e-10 DIIS
   @DF-RHF iter  15:  -650.16947730152913   -1.37561e-11   2.72790e-10 DIIS
   @DF-RHF iter  16:  -650.16947730152719    1.93268e-12   7.66075e-11 DIIS

  ==> Post-Iterations <==

    Orbital Energies (a.u.)
    -----------------------

    Doubly Occupied:                                                      

       1A    -26.333039     2A    -20.612712     3A    -15.558291  
       4A    -11.351963     5A    -11.330362     6A    -11.270235  
       7A    -11.267785     8A    -11.267615     9A    -11.266557  
      10A    -11.256609    11A    -11.255420    12A    -11.246425  
      13A    -11.236135    14A    -11.227625    15A     -1.657632  
      16A     -1.429455    17A     -1.250667    18A     -1.185814  
      19A     -1.110469    20A     -1.046598    21A     -1.031188  
      22A     -1.022938    23A     -0.897788    24A     -0.881345  
      25A     -0.853761    26A     -0.828738    27A     -0.775952  
      28A     -0.757053    29A     -0.725448    30A     -0.720567  
      31A     -0.707311    32A     -0.677139    33A     -0.653631  
      34A     -0.640332    35A     -0.630608    36A     -0.613996  
      37A     -0.612492    38A     -0.591373    39A     -0.579681  
      40A     -0.547801    41A     -0.542110    42A     -0.538634  
      43A     -0.508822    44A     -0.501850    45A     -0.414313  
      46A     -0.405475    47A     -0.363383    48A     -0.345172  
      49A     -0.312353  

    Virtual:                                                              

      50A      0.020842    51A      0.028059    52A      0.034913  
      53A      0.039887    54A      0.044406    55A      0.049737  
      56A      0.057201    57A      0.060400    58A      0.072555  
      59A      0.076741    60A      0.081045    61A      0.083565  
      62A      0.089996    63A      0.092404    64A      0.097823  
      65A      0.101499    66A      0.104123    67A      0.109592  
      68A      0.110793    69A      0.112017    70A      0.116458  
      71A      0.119293    72A      0.127017    73A      0.130604  
      74A      0.133546    75A      0.136955    76A      0.138536  
      77A      0.141128    78A      0.143728    79A      0.144469  
      80A      0.151134    81A      0.152250    82A      0.156752  
      83A      0.164682    84A      0.166154    85A      0.171695  
      86A      0.176744    87A      0.180986    88A      0.185858  
      89A      0.188336    90A      0.195056    91A      0.201779  
      92A      0.207388    93A      0.211921    94A      0.220520  
      95A      0.223979    96A      0.227433    97A      0.229022  
      98A      0.233605    99A      0.238849   100A      0.243829  
     101A      0.247707   102A      0.248266   103A      0.254698  
     104A      0.257684   105A      0.262785   106A      0.264363  
     107A      0.268491   108A      0.271235   109A      0.276811  
     110A      0.279752   111A      0.283836   112A      0.288548  
     113A      0.293558   114A      0.298628   115A      0.303345  
     116A      0.304895   117A      0.306380   118A      0.314154  
     119A      0.317931   120A      0.321017   121A      0.326198  
     122A      0.327244   123A      0.333727   124A      0.341066  
     125A      0.345088   126A      0.345324   127A      0.349950  
     128A      0.356329   129A      0.363537   130A      0.372327  
     131A      0.372984   132A      0.383654   133A      0.387311  
     134A      0.391047   135A      0.395612   136A      0.400694  
     137A      0.405206   138A      0.408476   139A      0.413112  
     140A      0.423396   141A      0.424224   142A      0.426993  
     143A      0.430122   144A      0.432749   145A      0.434346  
     146A      0.438623   147A      0.447161   148A      0.448505  
     149A      0.449013   150A      0.455953   151A      0.457541  
     152A      0.465637   153A      0.467112   154A      0.471162  
     155A      0.472291   156A      0.477822   157A      0.480611  
     158A      0.487438   159A      0.490279   160A      0.492013  
     161A      0.499707   162A      0.501697   163A      0.503439  
     164A      0.506666   165A      0.509996   166A      0.510470  
     167A      0.513245   168A      0.515798   169A      0.523192  
     170A      0.525216   171A      0.529199   172A      0.536293  
     173A      0.537235   174A      0.543491   175A      0.547814  
     176A      0.552152   177A      0.557344   178A      0.559753  
     179A      0.569615   180A      0.570285   181A      0.574111  
     182A      0.576727   183A      0.589804   184A      0.593299  
     185A      0.594012   186A      0.599443   187A      0.604327  
     188A      0.618229   189A      0.623328   190A      0.624608  
     191A      0.636224   192A      0.637491   193A      0.646230  
     194A      0.653025   195A      0.661536   196A      0.662295  
     197A      0.676586   198A      0.684321   199A      0.688146  
     200A      0.692806   201A      0.693781   202A      0.699592  
     203A      0.704358   204A      0.707600   205A      0.715804  
     206A      0.722333   207A      0.725270   208A      0.730242  
     209A      0.740996   210A      0.746682   211A      0.748842  
     212A      0.750405   213A      0.758435   214A      0.769456  
     215A      0.769814   216A      0.778961   217A      0.783989  
     218A      0.788457   219A      0.792468   220A      0.805269  
     221A      0.809045   222A      0.811574   223A      0.815592  
     224A      0.822344   225A      0.826905   226A      0.831457  
     227A      0.843323   228A      0.844460   229A      0.856997  
     230A      0.860990   231A      0.862816   232A      0.863706  
     233A      0.867965   234A      0.876177   235A      0.884344  
     236A      0.889534   237A      0.894796   238A      0.896453  
     239A      0.898256   240A      0.902666   241A      0.908864  
     242A      0.914164   243A      0.920199   244A      0.921838  
     245A      0.931320   246A      0.935494   247A      0.939595  
     248A      0.944429   249A      0.950206   250A      0.952136  
     251A      0.959356   252A      0.961899   253A      0.968622  
     254A      0.969926   255A      0.971770   256A      0.977031  
     257A      0.978577   258A      0.980030   259A      0.988216  
     260A      0.992344   261A      0.994560   262A      1.005024  
     263A      1.007933   264A      1.012375   265A      1.015360  
     266A      1.025394   267A      1.028037   268A      1.032898  
     269A      1.035049   270A      1.039512   271A      1.043654  
     272A      1.045511   273A      1.051635   274A      1.054071  
     275A      1.060494   276A      1.065331   277A      1.069698  
     278A      1.076210   279A      1.077836   280A      1.089108  
     281A      1.092146   282A      1.094442   283A      1.098538  
     284A      1.102996   285A      1.114200   286A      1.117117  
[...]
	 B(6,3,9)         =         2.091615	     119.840691
	 B(6,3,17)        =         2.075255	     118.903348
	 B(6,12,7)        =         2.025242	     116.037793
	 B(7,4,9)         =         2.099270	     120.279334
	 B(7,4,18)        =         2.067973	     118.486129
	 B(8,1,15)        =         2.073487	     118.802073
	 B(8,11,14)       =         2.103076	     120.497406
	 B(9,3,17)        =         2.115942	     121.234536
	 B(9,4,18)        =         2.115610	     121.215550
	 B(9,8,11)        =         2.170807	     124.378096
	 B(10,2,16)       =         2.083213	     119.359328
	 B(10,5,11)       =         2.085747	     119.504482
	 B(10,5,19)       =         2.128452	     121.951318
	 B(10,13,22)      =         1.908013	     109.321085
	 B(11,5,19)       =         2.068952	     118.542238
	 B(12,6,20)       =         2.028638	     116.232371
	 B(12,7,21)       =         2.030753	     116.353600
	 D(1,2,10,5)      =        -0.002804	      -0.160676
	 D(1,2,10,13)     =         3.138976	     179.850098
	 D(1,8,9,3)       =         2.873781	     164.655548
	 D(1,8,9,4)       =        -0.306658	     -17.570191
	 D(1,8,11,5)      =        -0.014720	      -0.843419
	 D(1,8,11,14)     =         3.096754	     177.430912
	 D(2,1,8,9)       =         3.099697	     177.599533
	 D(2,1,8,11)      =         0.016656	       0.954296
	 D(2,10,5,11)     =         0.004701	       0.269320
	 D(2,10,5,19)     =        -3.127866	    -179.213506
	 D(2,10,13,22)    =        -3.139938	    -179.905171
	 D(3,6,12,7)      =        -0.001807	      -0.103536
	 D(3,9,4,7)       =        -0.025135	      -1.440105
	 D(3,9,4,18)      =         3.088374	     176.950791
	 D(3,9,8,11)      =        -0.332281	     -19.038281
	 D(4,7,12,6)      =         0.004123	       0.236228
	 D(4,9,3,6)       =         0.027146	       1.555368
	 D(4,9,3,17)      =         3.139028	     179.853074
	 D(4,9,8,11)      =         2.770465	     158.735980
	 D(5,10,2,16)     =        -3.136956	    -179.734363
	 D(5,10,13,22)    =         0.001851	       0.106051
	 D(5,11,8,9)      =        -3.095402	    -177.353481
	 D(6,3,9,8)       =         3.131626	     179.428952
	 D(6,12,7,21)     =        -3.129712	    -179.319301
	 D(7,4,9,8)       =        -3.130836	    -179.383715
	 D(7,12,6,20)     =         3.137295	     179.753780
	 D(8,1,2,10)      =        -0.008514	      -0.487832
	 D(8,1,2,16)      =         3.125515	     179.078846
	 D(8,9,3,17)      =        -0.039677	      -2.273342
	 D(8,9,4,18)      =        -0.017328	      -0.992819
	 D(8,11,5,10)     =         0.004615	       0.264422
	 D(8,11,5,19)     =         3.137489	     179.764891
	 D(9,3,6,12)      =        -0.014626	      -0.838033
	 D(9,3,6,20)      =         3.129533	     179.309051
	 D(9,4,7,12)      =         0.010061	       0.576432
	 D(9,4,7,21)      =        -3.139541	    -179.882465
	 D(9,8,1,15)      =        -0.081647	      -4.678007
	 D(9,8,11,14)     =         0.016072	       0.920850
	 D(10,2,1,15)     =        -3.110688	    -178.229321
	 D(10,5,11,14)    =        -3.108159	    -178.084380
	 D(11,5,10,13)    =        -3.137091	    -179.742050
	 D(11,8,1,15)     =         3.118498	     178.676756
	 D(12,6,3,17)     =        -3.127200	    -179.175388
	 D(12,7,4,18)     =        -3.104206	    -177.857880
	 D(13,10,2,16)    =         0.004824	       0.276412
	 D(13,10,5,19)    =         0.013528	       0.775124
	 D(14,11,5,19)    =         0.024715	       1.416089
	 D(15,1,2,16)     =         0.023341	       1.337357
	 D(17,3,6,20)     =         0.016959	       0.971696
	 D(18,4,7,21)     =         0.029378	       1.683223
	 R(3,14)          =         5.264783	       2.786003

	Current energy   :      -652.8737990058

	Energy change for the previous step:
		Projected    :        -0.0000003205
		Actual       :         0.0000005202

	Performing BFGS update.
	Previous computed or guess Hessian on step 1.
	Steps to be used in Hessian update: 14 13
	Adding user-defined constraint: Fragment 1; Coordinate 61:
		Value =     2.873781; Fixed value    =     2.879790
		Force =     0.005107; Force constant =     0.850000
	Removing off-diagonal coupling between coordinate 61 and others.
	Taking RFO optimization step.
	Going to follow RFO solution 1.
	Rejecting RFO root 1 because normalization gives large value.
	Using RFO vector 2.
	Norm of target step-size    0.00141
	Projected energy change by RFO approximation:        -0.0000001317

	Back-transformation to cartesian coordinates...
	Successfully converged to displaced geometry.

	--- Internal Coordinate Step in ANG or DEG, aJ/ANG or AJ/DEG ---
	 ---------------------------------------------------------------------------
	   Coordinate                Previous        Force       Change         New 
	   ----------                --------       ------       ------       ------
	    1 R(1,2)          =      1.380035     0.000017     0.000006     1.380041
	    2 R(1,8)          =      1.400362    -0.000103    -0.000022     1.400340
	    3 R(1,15)         =      1.077720     0.000130     0.000031     1.077751
	    4 R(2,10)         =      1.387333     0.000033     0.000010     1.387343
	    5 R(2,16)         =      1.077980     0.000047     0.000016     1.077997
	    6 R(3,6)          =      1.386161     0.000006     0.000007     1.386168
	    7 R(3,9)          =      1.395674     0.000037    -0.000004     1.395670
	    8 R(3,17)         =      1.074677    -0.000011     0.000009     1.074686
	    9 R(4,7)          =      1.383930     0.000003    -0.000003     1.383926
	   10 R(4,9)          =      1.395982    -0.000085    -0.000011     1.395970
	   11 R(4,18)         =      1.077776     0.000115     0.000029     1.077805
	   12 R(5,10)         =      1.384328     0.000041     0.000011     1.384339
	   13 R(5,11)         =      1.380294     0.000083     0.000023     1.380317
	   14 R(5,19)         =      1.079366     0.000055     0.000016     1.079383
	   15 R(6,12)         =      1.333713     0.000105     0.000020     1.333733
	   16 R(6,20)         =      1.081108     0.000025     0.000013     1.081121
	   17 R(7,12)         =      1.334945     0.000071     0.000026     1.334970
	   18 R(7,21)         =      1.081114     0.000011     0.000005     1.081119
	   19 R(8,9)          =      1.465875    -0.000186    -0.000053     1.465822
	   20 R(8,11)         =      1.391827    -0.000006    -0.000005     1.391822
	   21 R(10,13)        =      1.358297     0.000011     0.000005     1.358302
	   22 R(11,14)        =      1.348129    -0.000055     0.000010     1.348138
	   23 R(13,22)        =      0.962098     0.000052     0.000012     0.962110
	   24 B(1,2,10)       =    119.672554     0.000000     0.001250   119.673804
	   25 B(1,2,16)       =    120.966717    -0.000000    -0.001372   120.965345
	   26 B(1,8,9)        =    120.846455    -0.000002    -0.004354   120.842101
	   27 B(1,8,11)       =    114.682592     0.000001     0.006261   114.688853
	   28 B(2,1,8)        =    123.248512    -0.000000    -0.004176   123.244336
	   29 B(2,1,15)       =    117.911873     0.000000     0.000821   117.912694
	   30 B(2,10,5)       =    119.178973     0.000000     0.000916   119.179890
	   31 B(2,10,13)      =    117.787840     0.000000     0.001560   117.789400
	   32 B(3,6,12)       =    124.245941    -0.000000     0.000725   124.246666
	   33 B(3,6,20)       =    119.521536     0.000000     0.000643   119.522179
	   34 B(3,9,4)        =    115.717005     0.000001     0.005585   115.722590
	   35 B(3,9,8)        =    123.650945     0.000001    -0.001232   123.649713
	   36 B(4,7,12)       =    123.860791     0.000000     0.000958   123.861749
	   37 B(4,7,21)       =    119.784131     0.000000     0.001025   119.785156
	   38 B(4,9,8)        =    120.597668    -0.000002    -0.004226   120.593442
	   39 B(5,10,13)      =    123.033186    -0.000000    -0.002477   123.030708
	   40 B(5,11,8)       =    123.706044    -0.000001    -0.003284   123.702759
	   41 B(5,11,14)      =    115.775864     0.000000     0.002573   115.778437
	   42 B(6,3,9)        =    119.840691    -0.000001    -0.003416   119.837274
	   43 B(6,3,17)       =    118.903348    -0.000000    -0.001080   118.902268
	   44 B(6,12,7)       =    116.037793    -0.000000    -0.000544   116.037248
	   45 B(7,4,9)        =    120.279334    -0.000000    -0.003223   120.276111
	   46 B(7,4,18)       =    118.486129     0.000000     0.000879   118.487008
	   47 B(8,1,15)       =    118.802073     0.000000     0.003629   118.805703
	   48 B(8,11,14)      =    120.497406     0.000001     0.000041   120.497447
	   49 B(9,3,17)       =    121.234536     0.000001     0.004127   121.238663
	   50 B(9,4,18)       =    121.215550     0.000000     0.002609   121.218159
	   51 B(9,8,11)       =    124.378096     0.000001    -0.002396   124.375700
	   52 B(10,2,16)      =    119.359328     0.000000     0.000174   119.359502
	   53 B(10,5,11)      =    119.504482     0.000000    -0.000912   119.503570
	   54 B(10,5,19)      =    121.951318    -0.000000     0.000129   121.951447
	   55 B(10,13,22)     =    109.321085     0.000000     0.002300   109.323385
	   56 B(11,5,19)      =    118.542238     0.000000     0.000767   118.543005
	   57 B(12,6,20)      =    116.232371    -0.000000    -0.001301   116.231070
	   58 B(12,7,21)      =    116.353600    -0.000000    -0.002024   116.351576
	   59 D(1,2,10,5)     =     -0.160676    -0.000000     0.002257    -0.158419
	   60 D(1,2,10,13)    =    179.850098     0.000000     0.007888   179.857987
	   61 D(1,8,9,3)      =    164.655548     0.000003     0.003503   164.659051
	   62 D(1,8,9,4)      =    -17.570191     0.000002     0.007725   -17.562466
	   63 D(1,8,11,5)     =     -0.843419    -0.000000     0.008294    -0.835125
	   64 D(1,8,11,14)    =    177.430912    -0.000001    -0.019385   177.411527
	   65 D(2,1,8,9)      =    177.599533    -0.000001    -0.010848   177.588685
	   66 D(2,1,8,11)     =      0.954296     0.000000    -0.001976     0.952320
	   67 D(2,10,5,11)    =      0.269320     0.000000     0.003685     0.273006
	   68 D(2,10,5,19)    =   -179.213506     0.000000     0.005847  -179.207659
	   69 D(2,10,13,22)   =   -179.905171    -0.000000    -0.005824  -179.910995
	   70 D(3,6,12,7)     =     -0.103536    -0.000000    -0.002492    -0.106028
	   71 D(3,9,4,7)      =     -1.440105    -0.000001    -0.002453    -1.442558
	   72 D(3,9,4,18)     =    176.950791    -0.000000     0.008818   176.959609
	   73 D(3,9,8,11)     =    -19.038281     0.000002    -0.005976   -19.044257
	   74 D(4,7,12,6)     =      0.236228     0.000000    -0.007444     0.228784
	   75 D(4,9,3,6)      =      1.555368     0.000000    -0.006665     1.548703
	   76 D(4,9,3,17)     =    179.853074     0.000000    -0.021300   179.831774
	   77 D(4,9,8,11)     =    158.735980     0.000001    -0.001754   158.734227
	   78 D(5,10,2,16)    =   -179.734363    -0.000000    -0.005656  -179.740019
	   79 D(5,10,13,22)   =      0.106051     0.000000     0.000040     0.106091
	   80 D(5,11,8,9)     =   -177.353481     0.000001     0.017583  -177.335898
	   81 D(6,3,9,8)      =    179.428952    -0.000001    -0.002823   179.426128
	   82 D(6,12,7,21)    =   -179.319301     0.000000    -0.001305  -179.320606
	   83 D(7,4,9,8)      =   -179.383715     0.000000    -0.006228  -179.389943
	   84 D(7,12,6,20)    =    179.753780     0.000000     0.033144   179.786925
	   85 D(8,1,2,10)     =     -0.487832    -0.000000    -0.003076    -0.490907
	   86 D(8,1,2,16)     =    179.078846    -0.000000     0.004975   179.083821
	   87 D(8,9,3,17)     =     -2.273342    -0.000001    -0.017459    -2.290800
	   88 D(8,9,4,18)     =     -0.992819     0.000001     0.005043    -0.987776
	   89 D(8,11,5,10)    =      0.264422     0.000000    -0.009432     0.254989
	   90 D(8,11,5,19)    =    179.764891     0.000000    -0.011523   179.753368
	   91 D(9,3,6,12)     =     -0.838033    -0.000000     0.009768    -0.828265
	   92 D(9,3,6,20)     =    179.309051    -0.000000    -0.026966   179.282086
	   93 D(9,4,7,12)     =      0.576432     0.000000     0.010027     0.586460
	   94 D(9,4,7,21)     =   -179.882465     0.000000     0.003676  -179.878789
	   95 D(9,8,1,15)     =     -4.678007    -0.000001    -0.002509    -4.680516
	   96 D(9,8,11,14)    =      0.920850     0.000001    -0.010096     0.910754
	   97 D(10,2,1,15)    =   -178.229321    -0.000000    -0.011406  -178.240727
	   98 D(10,5,11,14)   =   -178.084380     0.000000     0.017087  -178.067293
	   99 D(11,5,10,13)   =   -179.742050    -0.000000    -0.002256  -179.744306
	  100 D(11,8,1,15)    =    178.676756     0.000000     0.006363   178.683119
	  101 D(12,6,3,17)    =   -179.175388     0.000000     0.023971  -179.151417
	  102 D(12,7,4,18)    =   -177.857880     0.000000    -0.000969  -177.858849
	  103 D(13,10,2,16)   =      0.276412    -0.000000    -0.000025     0.276387
	  104 D(13,10,5,19)   =      0.775124     0.000000    -0.000095     0.775029
	  105 D(14,11,5,19)   =      1.416089     0.000000     0.014996     1.431086
	  106 D(15,1,2,16)    =      1.337357    -0.000000    -0.003355     1.334001
	  107 D(17,3,6,20)    =      0.971696    -0.000000    -0.012762     0.958934
	  108 D(18,4,7,21)    =      1.683223    -0.000000    -0.007321     1.675902
	  109 R(3,14)         =      2.786003    -0.000028    -0.000105     2.785898
	 ---------------------------------------------------------------------------
	Successfully symmetrized geometry.
	 Forces used to impose fixed constraints are not included.
	  Forces zeroed: 61 

  ==> Convergence Check <==

  Measures of convergence in internal coordinates in au.
  Criteria marked as inactive (o), active & met (*), and active & unmet ( ).
  ---------------------------------------------------------------------------------------------
   Step     Total Energy     Delta E     MAX Force     RMS Force      MAX Disp      RMS Disp   
  ---------------------------------------------------------------------------------------------
    Convergence Criteria    1.00e-06 *    3.00e-04 *             o    1.20e-03 *             o
  ---------------------------------------------------------------------------------------------
     15    -652.87379901    5.20e-07 *    1.33e-04 *    2.37e-05 o    5.78e-04 *    1.35e-04 o  ~
  ---------------------------------------------------------------------------------------------


  **** Optimization is complete! (in 15 steps) ****

  ==> Optimization Summary <==

  Measures of convergence in internal coordinates in au.
  --------------------------------------------------------------------------------------------------------------- ~
   Step         Total Energy             Delta E       MAX Force       RMS Force        MAX Disp        RMS Disp  ~
  --------------------------------------------------------------------------------------------------------------- ~
      1    -652.862244256894   -652.862244256894      0.02319676      0.00678213      0.04722595      0.00959516  ~
      2    -652.867659574010     -0.005415317117      0.01886554      0.00379173      0.07028451      0.00959064  ~
      3    -652.870562106138     -0.002902532128      0.01392681      0.00203726      0.08447600      0.00958211  ~
      4    -652.872132272784     -0.001570166645      0.00961617      0.00116847      0.08822324      0.00958242  ~
      5    -652.873050098466     -0.000917825682      0.00608688      0.00068431      0.08728548      0.00958479  ~
      6    -652.873568301612     -0.000518203146      0.00314028      0.00037686      0.07774659      0.00959050  ~
      7    -652.873793866735     -0.000225565122      0.00088734      0.00017583      0.02773031      0.00396143  ~
      8    -652.873816145171     -0.000022278437      0.00044265      0.00008826      0.00332829      0.00067491  ~
      9    -652.873812272958      0.000003872213      0.00032763      0.00005331      0.00121661      0.00034067  ~
     10    -652.873810397527      0.000001875431      0.00032432      0.00005034      0.00142866      0.00037499  ~
     11    -652.873808595725      0.000001801802      0.00033399      0.00005160      0.00241454      0.00064897  ~
     12    -652.873807343467      0.000001252259      0.00036086      0.00005813      0.00869325      0.00221362  ~
     13    -652.873797238952      0.000010104515      0.00031241      0.00010944      0.00865147      0.00218759  ~
     14    -652.873799526057     -0.000002287105      0.00016365      0.00003393      0.00208969      0.00049752  ~
     15    -652.873799005844      0.000000520213      0.00019395      0.00003010      0.00057847      0.00013530  ~
  --------------------------------------------------------------------------------------------------------------- ~

	Writing optimization data to binary file.
	Final energy is   -652.8737990058438
	Final (previous) structure:
	Cartesian Geometry (in Angstrom)
	    C    -1.2808976337   0.8070403069  -0.7342691338
	    C    -2.3816345161   1.3546441596  -0.1073683574
	    C     2.1091015270  -0.7477748599  -0.1639790248
	    C     0.7768673807  -0.7316807877  -2.1165241180
	    C    -1.4634786025   0.7100863957   2.0033787644
	    C     3.1117858176  -1.3345178057  -0.9201538407
	    C     1.8337344301  -1.3206405757  -2.7884021766
	    C    -0.2245865166   0.2024911008  -0.0416353543
	    C     0.8950642574  -0.4091828910  -0.7634571865
	    C    -2.4773439152   1.3094585313   1.2759215117
	    C    -0.3767309626   0.1750968512   1.3415798157
	    N     3.0008052764  -1.6261689319  -2.2168473355
	    O    -3.5754218709   1.8626816730   1.8531045807
	    F     0.5461108744  -0.4252794170   2.1196300535
	    H    -1.2216072582   0.8836156472  -1.8076288317
	    H    -3.1673975091   1.8245001809  -0.6764496387
	    H     2.2960985507  -0.5378671819   0.8732774616
	    H    -0.1397597073  -0.5543629149  -2.6549987334
	    H    -1.4979784501   0.6389786975   3.0798476702
	    H     4.0542330472  -1.5844191091  -0.4531014429
	    H     1.7341462722  -1.5653030630  -3.8367487501
	    H    -3.5160640673   1.7653603461   2.8084250869
	Saving final (previous) structure.
			--------------------------
			 OPTKING Finished Execution 
			--------------------------

    Final optimized geometry and variables:
    Molecular point group: c1
    Full point group: C1

    Geometry (in Angstrom), charge = 0, multiplicity = 1:

    C           -1.280897633746     0.807040306928    -0.734269133799
    C           -2.381634516096     1.354644159650    -0.107368357379
    C            2.109101527027    -0.747774859947    -0.163979024846
    C            0.776867380679    -0.731680787667    -2.116524117974
    C           -1.463478602501     0.710086395651     2.003378764426
    C            3.111785817611    -1.334517805710    -0.920153840728
    C            1.833734430134    -1.320640575672    -2.788402176641
    C           -0.224586516628     0.202491100838    -0.041635354283
    C            0.895064257373    -0.409182890951    -0.763457186464
    C           -2.477343915200     1.309458531257     1.275921511671
    C           -0.376730962596     0.175096851237     1.341579815660
    N            3.000805276380    -1.626168931879    -2.216847335510
    O           -3.575421870915     1.862681673025     1.853104580674
    F            0.546110874382    -0.425279417007     2.119630053483
    H           -1.221607258219     0.883615647250    -1.807628831662
    H           -3.167397509104     1.824500180886    -0.676449638716
    H            2.296098550720    -0.537867181878     0.873277461550
    H           -0.139759707272    -0.554362914905    -2.654998733364
    H           -1.497978450114     0.638978697529     3.079847670168
    H            4.054233047223    -1.584419109107    -0.453101442893
    H            1.734146272171    -1.565303062960    -3.836748750056
    H           -3.516064067347     1.765360346128     2.808425086886

	Cleaning optimization helper files.

*** Psi4 exiting successfully. Buy a developer a beer!
