
    -----------------------------------------------------------------------
          Psi4: An Open-Source Ab Initio Electronic Structure Package
                               Psi4 1.1 release

                         Git: Rev {HEAD} add49b9 


    R. M. Parrish, L. A. Burns, D. G. A. Smith, A. C. Simmonett,
    A. E. DePrince III, E. G. Hohenstein, U. Bozkaya, A. Yu. Sokolov,
    R. Di Remigio, R. M. Richard, J. F. Gonthier, A. M. James,
    H. R. McAlexander, A. Kumar, M. Saitow, X. Wang, B. P. Pritchard,
    P. Verma, H. F. Schaefer III, K. Patkowski, R. A. King, E. F. Valeev,
    F. A. Evangelista, J. M. Turney, T. D. Crawford, and C. D. Sherrill,
    J. Chem. Theory Comput. in press (2017).
    (doi: 10.1021/acs.jctc.7b00174)

    -----------------------------------------------------------------------


    Psi4 started on: Tuesday, 14 November 2017 03:47AM

    Process ID:  12390
    PSIDATADIR: /cbio/jclab/home/chayas/anaconda/envs/py35/share/psi4
    Memory:     500.0 MiB
    Threads:    8
    
  ==> Input File <==

--------------------------------------------------------------------------

memory 5 Gb

molecule phepyrFOH_anion {
  symmetry C1
  -1 1 
  C      1.885   -1.036   -0.112
  C      0.807   -0.463   0.561
  C      4.436   -1.717   -1.327
  C      4.718   -3.303   0.460
  C      1.800   -1.079   2.676
  C      5.512   -2.320   -1.959
  C      5.781   -3.834   -0.252
  C      2.921   -1.631   0.608
  C      4.038   -2.224   -0.095
  C      0.764   -0.484   1.955
  C      2.878   -1.652   2.002
  N      6.197   -3.369   -1.451
  O      -0.227   0.043   2.574
  F      3.866   -2.220   2.709
  H      1.904   -1.013   -1.200
  H      0.011   -0.007   -0.025
  H      3.931   -0.876   -1.791
  H      4.435   -3.725   1.419
  H      1.791   -1.109   3.764
  H      5.864   -1.960   -2.920
  H      6.343   -4.677   0.136
  units Angstrom
}

dih_string = "1 8 9 3 30"
set optking { opt_coordinates = cartesian
              fixed_dihedral = $dih_string
              dynamic_level = 1
              geom_maxiter = 250
              print_trajectory_xyz_file = True }

optimize('MP2/aug-cc-PVTZ')
--------------------------------------------------------------------------

  Memory set to   4.657 GiB by Python driver.
gradient() will perform analytic gradient computation.

*** tstart() called on gpu-1-6.local
*** at Tue Nov 14 03:47:25 2017

    SCF Algorithm Type (re)set to DF.

*** tstart() called on gpu-1-6.local
*** at Tue Nov 14 03:47:25 2017

   => Loading Basis Set <=

    Name: AUG-CC-PVTZ
    Role: ORBITAL
    Keyword: BASIS
    atoms 1-11  entry C          line   221 file /cbio/jclab/home/chayas/anaconda/envs/py35/share/psi4/basis/aug-cc-pvtz.gbs 
    atoms 12    entry N          line   267 file /cbio/jclab/home/chayas/anaconda/envs/py35/share/psi4/basis/aug-cc-pvtz.gbs 
    atoms 13    entry O          line   313 file /cbio/jclab/home/chayas/anaconda/envs/py35/share/psi4/basis/aug-cc-pvtz.gbs 
    atoms 14    entry F          line   359 file /cbio/jclab/home/chayas/anaconda/envs/py35/share/psi4/basis/aug-cc-pvtz.gbs 
    atoms 15-21 entry H          line    34 file /cbio/jclab/home/chayas/anaconda/envs/py35/share/psi4/basis/aug-cc-pvtz.gbs 


         ---------------------------------------------------------
                                   SCF
            by Justin Turney, Rob Parrish, and Andy Simmonett
                              RHF Reference
                        8 Threads,   4768 MiB Core
         ---------------------------------------------------------

  ==> Geometry <==

    Molecular point group: c1
    Full point group: C1

    Geometry (in Angstrom), charge = -1, multiplicity = 1:

       Center              X                  Y                   Z               Mass       
    ------------   -----------------  -----------------  -----------------  -----------------
           C         -1.345732487671     0.766980713345    -0.781505529259    12.000000000000
           C         -2.423732487671     1.339980713345    -0.108505529259    12.000000000000
           C          1.205267512329     0.085980713345    -1.996505529259    12.000000000000
           C          1.487267512329    -1.500019286655    -0.209505529259    12.000000000000
           C         -1.430732487671     0.723980713345     2.006494470741    12.000000000000
           C          2.281267512329    -0.517019286655    -2.628505529259    12.000000000000
           C          2.550267512329    -2.031019286655    -0.921505529259    12.000000000000
           C         -0.309732487671     0.171980713345    -0.061505529259    12.000000000000
           C          0.807267512329    -0.421019286655    -0.764505529259    12.000000000000
           C         -2.466732487671     1.318980713345     1.285494470741    12.000000000000
           C         -0.352732487671     0.150980713345     1.332494470741    12.000000000000
           N          2.966267512329    -1.566019286655    -2.120505529259    14.003074004780
           O         -3.457732487671     1.845980713345     1.904494470741    15.994914619560
           F          0.635267512329    -0.417019286655     2.039494470741    18.998403224000
           H         -1.326732487671     0.789980713345    -1.869505529259     1.007825032070
           H         -3.219732487671     1.795980713345    -0.694505529259     1.007825032070
           H          0.700267512329     0.926980713345    -2.460505529259     1.007825032070
           H          1.204267512329    -1.922019286655     0.749494470741     1.007825032070
           H         -1.439732487671     0.693980713345     3.094494470741     1.007825032070
           H          2.633267512329    -0.157019286655    -3.589505529259     1.007825032070
           H          3.112267512329    -2.874019286655    -0.533505529259     1.007825032070

  Running in c1 symmetry.

  Rotational constants: A =      0.06334  B =      0.01387  C =      0.01161 [cm^-1]
  Rotational constants: A =   1898.83014  B =    415.68234  C =    348.19019 [MHz]
  Nuclear repulsion =  804.187607473622961

  Charge       = -1
  Multiplicity = 1
  Electrons    = 98
  Nalpha       = 49
  Nbeta        = 49

  ==> Algorithm <==

  SCF Algorithm Type is DF.
  DIIS enabled.
  MOM disabled.
  Fractional occupation disabled.
  Guess Type is SAD.
  Energy threshold   = 1.00e-10
  Density threshold  = 1.00e-10
  Integral threshold = 0.00e+00

  ==> Primary Basis <==

  Basis Set: AUG-CC-PVTZ
    Blend: AUG-CC-PVTZ
    Number of shells: 259
    Number of basis function: 805
    Number of Cartesian functions: 945
    Spherical Harmonics?: true
    Max angular momentum: 3

   => Loading Basis Set <=

    Name: (AUG-CC-PVTZ AUX)
    Role: JKFIT
    Keyword: DF_BASIS_SCF
    atoms 1-11  entry C          line   161 file /cbio/jclab/home/chayas/anaconda/envs/py35/share/psi4/basis/aug-cc-pvtz-jkfit.gbs 
    atoms 12    entry N          line   223 file /cbio/jclab/home/chayas/anaconda/envs/py35/share/psi4/basis/aug-cc-pvtz-jkfit.gbs 
    atoms 13    entry O          line   285 file /cbio/jclab/home/chayas/anaconda/envs/py35/share/psi4/basis/aug-cc-pvtz-jkfit.gbs 
    atoms 14    entry F          line   347 file /cbio/jclab/home/chayas/anaconda/envs/py35/share/psi4/basis/aug-cc-pvtz-jkfit.gbs 
    atoms 15-21 entry H          line    69 file /cbio/jclab/home/chayas/anaconda/envs/py35/share/psi4/basis/aug-cc-pvtz-jkfit.gbs 

  ==> Pre-Iterations <==

   -------------------------------------------------------
    Irrep   Nso     Nmo     Nalpha   Nbeta   Ndocc  Nsocc
   -------------------------------------------------------
     A        805     805       0       0       0       0
   -------------------------------------------------------
    Total     805     805      49      49      49       0
   -------------------------------------------------------

  ==> Integral Setup <==

  ==> DFJK: Density-Fitted J/K Matrices <==

    J tasked:                  Yes
    K tasked:                  Yes
    wK tasked:                  No
    OpenMP threads:              8
    Integrals threads:           8
    Memory (MB):              3576
    Algorithm:                Disk
    Integral Cache:           NONE
    Schwarz Cutoff:          1E-12
    Fitting Condition:       1E-12

   => Auxiliary Basis Set <=

  Basis Set: (AUG-CC-PVTZ AUX)
    Blend: AUG-CC-PVTZ-JKFIT
    Number of shells: 518
    Number of basis function: 1778
    Number of Cartesian functions: 2219
    Spherical Harmonics?: true
    Max angular momentum: 4

  Minimum eigenvalue in the overlap matrix is 7.3932144594E-07.
  Using Symmetric Orthogonalization.

  SCF Guess: Superposition of Atomic Densities via on-the-fly atomic UHF.

  ==> Iterations <==

                           Total Energy        Delta E     RMS |[F,P]|

   @DF-RHF iter   0:  -660.27831499814704   -6.60278e+02   2.34056e-02 
   @DF-RHF iter   1:  -649.10467161325016    1.11736e+01   2.64484e-03 
   @DF-RHF iter   2:  -649.44176158791151   -3.37090e-01   1.80396e-03 DIIS
   @DF-RHF iter   3:  -649.58143029186681   -1.39669e-01   5.83250e-04 DIIS
   @DF-RHF iter   4:  -649.60511065720345   -2.36804e-02   1.58215e-04 DIIS
   @DF-RHF iter   5:  -649.60801463339885   -2.90398e-03   5.63957e-05 DIIS
   @DF-RHF iter   6:  -649.60854835341934   -5.33720e-04   2.73839e-05 DIIS
   @DF-RHF iter   7:  -649.60868521320083   -1.36860e-04   1.17010e-05 DIIS
   @DF-RHF iter   8:  -649.60871439670200   -2.91835e-05   5.56536e-06 DIIS
   @DF-RHF iter   9:  -649.60872362454506   -9.22784e-06   2.26321e-06 DIIS
   @DF-RHF iter  10:  -649.60872547775227   -1.85321e-06   9.13225e-07 DIIS
   @DF-RHF iter  11:  -649.60872576999020   -2.92238e-07   3.24245e-07 DIIS
   @DF-RHF iter  12:  -649.60872579603028   -2.60401e-08   1.67656e-07 DIIS
   @DF-RHF iter  13:  -649.60872580067314   -4.64286e-09   8.08999e-08 DIIS
   @DF-RHF iter  14:  -649.60872580207536   -1.40221e-09   3.30178e-08 DIIS
   @DF-RHF iter  15:  -649.60872580234093   -2.65572e-10   1.17030e-08 DIIS
   @DF-RHF iter  16:  -649.60872580236310   -2.21689e-11   4.91492e-09 DIIS
   @DF-RHF iter  17:  -649.60872580236310    0.00000e+00   1.86268e-09 DIIS
   @DF-RHF iter  18:  -649.60872580235662    6.48015e-12   8.08278e-10 DIIS
   @DF-RHF iter  19:  -649.60872580236332   -6.70752e-12   3.25623e-10 DIIS
   @DF-RHF iter  20:  -649.60872580236105    2.27374e-12   1.49708e-10 DIIS
   @DF-RHF iter  21:  -649.60872580237128   -1.02318e-11   6.61057e-11 DIIS

  ==> Post-Iterations <==

    Orbital Energies (a.u.)
    -----------------------

    Doubly Occupied:                                                      

       1A    -26.192136     2A    -20.306918     3A    -15.449066  
       4A    -11.195210     5A    -11.166868     6A    -11.164441  
       7A    -11.146024     8A    -11.128052     9A    -11.120244  
      10A    -11.114984    11A    -11.112017    12A    -11.086131  
      13A    -11.068582    14A    -11.068148    15A     -1.514133  
      16A     -1.138403    17A     -1.137383    18A     -1.026117  
      19A     -0.964832    20A     -0.922478    21A     -0.877523  
      22A     -0.849669    23A     -0.751142    24A     -0.737657  
      25A     -0.704556    26A     -0.678923    27A     -0.607408  
      28A     -0.591864    29A     -0.581672    30A     -0.568047  
      31A     -0.546274    32A     -0.529194    33A     -0.501037  
      34A     -0.486760    35A     -0.472231    36A     -0.465403  
      37A     -0.432686    38A     -0.416711    39A     -0.409208  
      40A     -0.387032    41A     -0.378227    42A     -0.359512  
      43A     -0.316384    44A     -0.306651    45A     -0.248989  
      46A     -0.240667    47A     -0.225381    48A     -0.204054  
      49A     -0.116638  

    Virtual:                                                              

      50A      0.098844    51A      0.101317    52A      0.115153  
      53A      0.120354    54A      0.125689    55A      0.128518  
      56A      0.133539    57A      0.156478    58A      0.166443  
      59A      0.174666    60A      0.178023    61A      0.183898  
      62A      0.187006    63A      0.188345    64A      0.191983  
      65A      0.198062    66A      0.198760    67A      0.206427  
      68A      0.209838    69A      0.213340    70A      0.214697  
      71A      0.217167    72A      0.221442    73A      0.227486  
      74A      0.230543    75A      0.232936    76A      0.237234  
      77A      0.239177    78A      0.242850    79A      0.247754  
      80A      0.251384    81A      0.259250    82A      0.263382  
      83A      0.266705    84A      0.269087    85A      0.275413  
      86A      0.279420    87A      0.287609    88A      0.293996  
      89A      0.299836    90A      0.314833    91A      0.317225  
      92A      0.318487    93A      0.321906    94A      0.322668  
      95A      0.324552    96A      0.326104    97A      0.332829  
      98A      0.335209    99A      0.337322   100A      0.344137  
     101A      0.347636   102A      0.353592   103A      0.363433  
     104A      0.367312   105A      0.368469   106A      0.377774  
     107A      0.380572   108A      0.384239   109A      0.387512  
     110A      0.388987   111A      0.394292   112A      0.403299  
     113A      0.409650   114A      0.413129   115A      0.416301  
     116A      0.420533   117A      0.422453   118A      0.425531  
     119A      0.430448   120A      0.439353   121A      0.443877  
     122A      0.447084   123A      0.452736   124A      0.456423  
     125A      0.463878   126A      0.472242   127A      0.476538  
     128A      0.479233   129A      0.481231   130A      0.486391  
     131A      0.496529   132A      0.503411   133A      0.510315  
     134A      0.516741   135A      0.517993   136A      0.523483  
     137A      0.533895   138A      0.541241   139A      0.545332  
     140A      0.546248   141A      0.550055   142A      0.555050  
     143A      0.557458   144A      0.561926   145A      0.564152  
     146A      0.571717   147A      0.573667   148A      0.576917  
     149A      0.581920   150A      0.583896   151A      0.584942  
     152A      0.587903   153A      0.597407   154A      0.600055  
     155A      0.601663   156A      0.603176   157A      0.607817  
     158A      0.611761   159A      0.620669   160A      0.621649  
     161A      0.625368   162A      0.628772   163A      0.632087  
     164A      0.633484   165A      0.639975   166A      0.641909  
     167A      0.645638   168A      0.650053   169A      0.654139  
     170A      0.658327   171A      0.662034   172A      0.667747  
     173A      0.678380   174A      0.681188   175A      0.686491  
     176A      0.694102   177A      0.699438   178A      0.701773  
     179A      0.704202   180A      0.711566   181A      0.716505  
     182A      0.724437   183A      0.729643   184A      0.736017  
     185A      0.742516   186A      0.743833   187A      0.751270  
     188A      0.760719   189A      0.767593   190A      0.770389  
     191A      0.791383   192A      0.795383   193A      0.798789  
     194A      0.807232   195A      0.808794   196A      0.813019  
     197A      0.814787   198A      0.821134   199A      0.828326  
     200A      0.837765   201A      0.845314   202A      0.849469  
     203A      0.854773   204A      0.855312   205A      0.859350  
     206A      0.860365   207A      0.872029   208A      0.872458  
     209A      0.878802   210A      0.887331   211A      0.890482  
     212A      0.898849   213A      0.901856   214A      0.917663  
     215A      0.925989   216A      0.933555   217A      0.936757  
     218A      0.942638   219A      0.950628   220A      0.957328  
     221A      0.968788   222A      0.975800   223A      0.982007  
     224A      0.986256   225A      0.987839   226A      0.991006  
     227A      0.999429   228A      1.002395   229A      1.008730  
     230A      1.011648   231A      1.014770   232A      1.017531  
     233A      1.020114   234A      1.024958   235A      1.037546  
     236A      1.041122   237A      1.048883   238A      1.049529  
     239A      1.054527   240A      1.061071   241A      1.064135  
     242A      1.067570   243A      1.075752   244A      1.080712  
     245A      1.083644   246A      1.087583   247A      1.091268  
     248A      1.095417   249A      1.096829   250A      1.107258  
     251A      1.109605   252A      1.116656   253A      1.119987  
     254A      1.123738   255A      1.128541   256A      1.133583  
     257A      1.136569   258A      1.140995   259A      1.144485  
     260A      1.146425   261A      1.149482   262A      1.156083  
     263A      1.161492   264A      1.167455   265A      1.172014  
     266A      1.176873   267A      1.177782   268A      1.190199  
     269A      1.191832   270A      1.194275   271A      1.202099  
     272A      1.207185   273A      1.207692   274A      1.210984  
     275A      1.215296   276A      1.223918   277A      1.227714  
     278A      1.235363   279A      1.239421   280A      1.251515  
     281A      1.257394   282A      1.263301   283A      1.270683  
     284A      1.275918   285A      1.277484   286A      1.282523  
     287A      1.288288   288A      1.296364   289A      1.297911  
     290A      1.299735   291A      1.302484   292A      1.309923  
     293A      1.314810   294A      1.320594   295A      1.323258  
     296A      1.329076   297A      1.332586   298A      1.334961  
     299A      1.339830   300A      1.346530   301A      1.351959  
     302A      1.355516   303A      1.366838   304A      1.378153  
     305A      1.381374   306A      1.386923   307A      1.391718  
     308A      1.392460   309A      1.404181   310A      1.407468  
     311A      1.409820   312A      1.419289   313A      1.430466  
     314A      1.432966   315A      1.443690   316A      1.453834  
     317A      1.460400   318A      1.468162   319A      1.475040  
     320A      1.479547   321A      1.490234   322A      1.494606  
     323A      1.503434   324A      1.509758   325A      1.521113  
     326A      1.525440   327A      1.528175   328A      1.549450  
     329A      1.552667   330A      1.556401   331A      1.568915  
     332A      1.573547   333A      1.586368   334A      1.587630  
     335A      1.605784   336A      1.608896   337A      1.614443  
     338A      1.622858   339A      1.629589   340A      1.637499  
     341A      1.650471   342A      1.653811   343A      1.663166  
     344A      1.669626   345A      1.678600   346A      1.698750  
     347A      1.706101   348A      1.710435   349A      1.715220  
     350A      1.720830   351A      1.731083   352A      1.747485  
     353A      1.750646   354A      1.752102   355A      1.766557  
     356A      1.767705   357A      1.779951   358A      1.792679  
     359A      1.795196   360A      1.801445   361A      1.816220  
     362A      1.821873   363A      1.829837   364A      1.834767  
     365A      1.838426   366A      1.842120   367A      1.843954  
     368A      1.852120   369A      1.863517   370A      1.866939  
     371A      1.876606   372A      1.898069   373A      1.909070  
     374A      1.910272   375A      1.913951   376A      1.927442  
     377A      1.933258   378A      1.936115   379A      1.946018  
     380A      1.957003   381A      1.958530   382A      1.972547  
     383A      1.978505   384A      1.989452   385A      2.003692  
     386A      2.011088   387A      2.015322   388A      2.025418  
     389A      2.036041   390A      2.044991   391A      2.058322  
     392A      2.064996   393A      2.073014   394A      2.077144  
     395A      2.081772   396A      2.090937   397A      2.098132  
     398A      2.102051   399A      2.107959   400A      2.121594  
     401A      2.124748   402A      2.132313   403A      2.137858  
     404A      2.142612   405A      2.150408   406A      2.156918  
     407A      2.162344   408A      2.174011   409A      2.182564  
     410A      2.189956   411A      2.192777   412A      2.199646  
     413A      2.208007   414A      2.215213   415A      2.220339  
     416A      2.227858   417A      2.233467   418A      2.243397  
     419A      2.254392   420A      2.265156   421A      2.275738  
     422A      2.287062   423A      2.292073   424A      2.297490  
     425A      2.309033   426A      2.309706   427A      2.324722  
     428A      2.332231   429A      2.341001   430A      2.347156  
     431A      2.356841   432A      2.363685   433A      2.374547  
     434A      2.375796   435A      2.397945   436A      2.408465  
     437A      2.417098   438A      2.428517   439A      2.437276  
     440A      2.452772   441A      2.458208   442A      2.467450  
     443A      2.482102   444A      2.486277   445A      2.488218  
     446A      2.498366   447A      2.504559   448A      2.518822  
     449A      2.528633   450A      2.532287   451A      2.550586  
     452A      2.563794   453A      2.585895   454A      2.589005  
     455A      2.594224   456A      2.602272   457A      2.624353  
     458A      2.633918   459A      2.638013   460A      2.651900  
     461A      2.673428   462A      2.681617   463A      2.688608  
     464A      2.698871   465A      2.706524   466A      2.711863  
     467A      2.717533   468A      2.732100   469A      2.758842  
     470A      2.772224   471A      2.775593   472A      2.808516  
     473A      2.815753   474A      2.824517   475A      2.854183  
     476A      2.865287   477A      2.885002   478A      2.890004  
     479A      2.910028   480A      2.915898   481A      2.930896  
     482A      2.956699   483A      2.958911   484A      2.980670  
     485A      2.999584   486A      3.021856   487A      3.031266  
     488A      3.044651   489A      3.085364   490A      3.100286  
     491A      3.103655   492A      3.125641   493A      3.147071  
     494A      3.158227   495A      3.172632   496A      3.193482  
     497A      3.212442   498A      3.220261   499A      3.243332  
     500A      3.257202   501A      3.274416   502A      3.296259  
     503A      3.308907   504A      3.318302   505A      3.324595  
     506A      3.333489   507A      3.351909   508A      3.365162  
     509A      3.375375   510A      3.397211   511A      3.410957  
     512A      3.430520   513A      3.443063   514A      3.451297  
     515A      3.457719   516A      3.467256   517A      3.473912  
     518A      3.489390   519A      3.491592   520A      3.512623  
     521A      3.518588   522A      3.524200   523A      3.531709  
     524A      3.543166   525A      3.553736   526A      3.563591  
     527A      3.571251   528A      3.583951   529A      3.593594  
     530A      3.610011   531A      3.618431   532A      3.620334  
     533A      3.634674   534A      3.636292   535A      3.642053  
     536A      3.651154   537A      3.664748   538A      3.673978  
     539A      3.681545   540A      3.693247   541A      3.698623  
     542A      3.699254   543A      3.708764   544A      3.715610  
     545A      3.733818   546A      3.742382   547A      3.746918  
     548A      3.757351   549A      3.768200   550A      3.783709  
     551A      3.788982   552A      3.793089   553A      3.802853  
     554A      3.809670   555A      3.817264   556A      3.822720  
     557A      3.833042   558A      3.838705   559A      3.860672  
     560A      3.872657   561A      3.880570   562A      3.892281  
     563A      3.912871   564A      3.915723   565A      3.919198  
     566A      3.923228   567A      3.934294   568A      3.943043  
     569A      3.947397   570A      3.950972   571A      3.952716  
     572A      3.972668   573A      3.989838   574A      3.990824  
     575A      4.002474   576A      4.012248   577A      4.020713  
     578A      4.035307   579A      4.038006   580A      4.050208  
     581A      4.054416   582A      4.063508   583A      4.069082  
     584A      4.071157   585A      4.088299   586A      4.096277  
     587A      4.103018   588A      4.111158   589A      4.124186  
     590A      4.126286   591A      4.137900   592A      4.142160  
     593A      4.150224   594A      4.153271   595A      4.163516  
     596A      4.182392   597A      4.186822   598A      4.194549  
     599A      4.199107   600A      4.216626   601A      4.225765  
     602A      4.233280   603A      4.245834   604A      4.253278  
     605A      4.262493   606A      4.265333   607A      4.281202  
     608A      4.309192   609A      4.310606   610A      4.333424  
     611A      4.337155   612A      4.345780   613A      4.355016  
     614A      4.357407   615A      4.361051   616A      4.376250  
     617A      4.379459   618A      4.403540   619A      4.415539  
     620A      4.421088   621A      4.428812   622A      4.438971  
     623A      4.443447   624A      4.457545   625A      4.460504  
     626A      4.468479   627A      4.481547   628A      4.486712  
     629A      4.498925   630A      4.504466   631A      4.509385  
     632A      4.519881   633A      4.529356   634A      4.538583  
     635A      4.544298   636A      4.551824   637A      4.557780  
     638A      4.572475   639A      4.587215   640A      4.594137  
     641A      4.610502   642A      4.625876   643A      4.632254  
     644A      4.645023   645A      4.647502   646A      4.664603  
     647A      4.676149   648A      4.683155   649A      4.720538  
     650A      4.724400   651A      4.729141   652A      4.751397  
     653A      4.760693   654A      4.775341   655A      4.777612  
     656A      4.787853   657A      4.805145   658A      4.826941  
     659A      4.835749   660A      4.849779   661A      4.870758  
     662A      4.879258   663A      4.902027   664A      4.922643  
     665A      4.926540   666A      4.932034   667A      4.940768  
     668A      4.979502   669A      4.989558   670A      4.999338  
     671A      5.005638   672A      5.026214   673A      5.034937  
     674A      5.056884   675A      5.068983   676A      5.086246  
     677A      5.092498   678A      5.104054   679A      5.122391  
     680A      5.124590   681A      5.137404   682A      5.156216  
     683A      5.168272   684A      5.178738   685A      5.189784  
     686A      5.199027   687A      5.217864   688A      5.235069  
     689A      5.247948   690A      5.264677   691A      5.269743  
     692A      5.278686   693A      5.286150   694A      5.293504  
     695A      5.311976   696A      5.314512   697A      5.331615  
     698A      5.343301   699A      5.356323   700A      5.371078  
     701A      5.377848   702A      5.392454   703A      5.412622  
     704A      5.437500   705A      5.450811   706A      5.468470  
     707A      5.473997   708A      5.500455   709A      5.521327  
     710A      5.525205   711A      5.552412   712A      5.558924  
     713A      5.577296   714A      5.600495   715A      5.620386  
     716A      5.651691   717A      5.663745   718A      5.680852  
     719A      5.710292   720A      5.721178   721A      5.743343  
     722A      5.781012   723A      5.811327   724A      5.817310  
     725A      5.857553   726A      5.867651   727A      5.902389  
     728A      5.918180   729A      5.939858   730A      5.949910  
     731A      5.964083   732A      5.983967   733A      5.993971  
     734A      6.021305   735A      6.051252   736A      6.100814  
     737A      6.126538   738A      6.196640   739A      6.198561  
     740A      6.266593   741A      6.316110   742A      6.335805  
     743A      6.361986   744A      6.382947   745A      6.423154  
     746A      6.443298   747A      6.538751   748A      6.555958  
     749A      6.592085   750A      6.609940   751A      6.627069  
     752A      6.677015   753A      6.731364   754A      6.802980  
     755A      6.822909   756A      6.832824   757A      6.849914  
     758A      6.891436   759A      6.897765   760A      6.981569  
     761A      6.995956   762A      7.022106   763A      7.057494  
     764A      7.089292   765A      7.176900   766A      7.181869  
     767A      7.204075   768A      7.295724   769A      7.332932  
     770A      7.350572   771A      7.544967   772A      7.599604  
     773A      7.605635   774A      7.638085   775A      7.917092  
     776A      7.929764   777A      8.015578   778A      8.136454  
     779A      8.210974   780A      9.236598   781A      9.258895  
     782A      9.409351   783A      9.427783   784A      9.558293  
     785A      9.660846   786A      9.694962   787A      9.754115  
     788A      9.797987   789A      9.866293   790A     10.181338  
     791A     10.244419   792A     15.684504   793A     16.015629  
     794A     16.445455   795A     16.828709   796A     16.926575  
     797A     17.015831   798A     18.591531   799A     18.982503  
     800A     19.446839   801A     19.983471   802A     20.293513  
     803A     20.437824   804A     20.772835   805A     21.768161  

    Final Occupation by Irrep:
              A 
    DOCC [    49 ]

  Energy converged.

  @DF-RHF Final Energy:  -649.60872580237128

   => Energetics <=

    Nuclear Repulsion Energy =            804.1876074736229612
    One-Electron Energy =               -2497.5653313329289631
    Two-Electron Energy =                1043.7689980569348336
    DFT Exchange-Correlation Energy =       0.0000000000000000
    Empirical Dispersion Energy =           0.0000000000000000
    PCM Polarization Energy =               0.0000000000000000
    EFP Energy =                            0.0000000000000000
    Total Energy =                       -649.6087258023712820



Properties will be evaluated at   0.000000,   0.000000,   0.000000 Bohr

Properties computed using the SCF density matrix

  Nuclear Dipole Moment: (a.u.)
     X:     0.9353      Y:    -0.2927      Z:    -6.8806

  Electronic Dipole Moment: (a.u.)
     X:     1.5145      Y:    -1.0193      Z:     5.2756

  Dipole Moment: (a.u.)
     X:     2.4498      Y:    -1.3119      Z:    -1.6050     Total:     3.2092

  Dipole Moment: (Debye)
     X:     6.2268      Y:    -3.3346      Z:    -4.0795     Total:     8.1569


*** tstop() called on gpu-1-6.local at Tue Nov 14 03:54:51 2017
Module time:
	user time   =    1111.93 seconds =      18.53 minutes
	system time =      49.75 seconds =       0.83 minutes
	total time  =        446 seconds =       7.43 minutes
Total time:
	user time   =    1111.94 seconds =      18.53 minutes
	system time =      49.75 seconds =       0.83 minutes
	total time  =        446 seconds =       7.43 minutes

  //>>>>>>>>>>>>>>>>>>>>>>>>>>>>>>>>>>>//
  //               DFMP2               //
  //<<<<<<<<<<<<<<<<<<<<<<<<<<<<<<<<<<<//

   => Loading Basis Set <=

    Name: (AUG-CC-PVTZ AUX)
    Role: RIFIT
    Keyword: DF_BASIS_MP2
    atoms 1-11  entry C          line   147 file /cbio/jclab/home/chayas/anaconda/envs/py35/share/psi4/basis/aug-cc-pvtz-ri.gbs 
    atoms 12    entry N          line   205 file /cbio/jclab/home/chayas/anaconda/envs/py35/share/psi4/basis/aug-cc-pvtz-ri.gbs 
    atoms 13    entry O          line   263 file /cbio/jclab/home/chayas/anaconda/envs/py35/share/psi4/basis/aug-cc-pvtz-ri.gbs 
    atoms 14    entry F          line   321 file /cbio/jclab/home/chayas/anaconda/envs/py35/share/psi4/basis/aug-cc-pvtz-ri.gbs 
    atoms 15-21 entry H          line    29 file /cbio/jclab/home/chayas/anaconda/envs/py35/share/psi4/basis/aug-cc-pvtz-ri.gbs 

	 --------------------------------------------------------
	                          DF-MP2                         
	      2nd-Order Density-Fitted Moller-Plesset Theory     
	              RMP2 Wavefunction,   8 Threads             
	                                                         
	        Rob Parrish, Justin Turney, Andy Simmonett,      
	           Ed Hohenstein, and C. David Sherrill          
	 --------------------------------------------------------

   => Auxiliary Basis Set <=

  Basis Set: (AUG-CC-PVTZ AUX)
    Blend: AUG-CC-PVTZ-RI
    Number of shells: 490
    Number of basis function: 1806
    Number of Cartesian functions: 2289
    Spherical Harmonics?: true
    Max angular momentum: 4

	 --------------------------------------------------------
	                 NBF =   805, NAUX =  1806
	 --------------------------------------------------------
	   CLASS    FOCC     OCC    AOCC    AVIR     VIR    FVIR
	   PAIRS       0      49      49     756     756       0
	 --------------------------------------------------------


         ------------------------------------------------------------
                                     CPHF                           
                                  Rob Parrish                       
         ------------------------------------------------------------

  ==> Geometry <==

    Molecular point group: c1
    Full point group: C1

    Geometry (in Angstrom), charge = -1, multiplicity = 1:

       Center              X                  Y                   Z               Mass       
    ------------   -----------------  -----------------  -----------------  -----------------
           C         -1.345732487671     0.766980713345    -0.781505529259    12.000000000000
           C         -2.423732487671     1.339980713345    -0.108505529259    12.000000000000
           C          1.205267512329     0.085980713345    -1.996505529259    12.000000000000
           C          1.487267512329    -1.500019286655    -0.209505529259    12.000000000000
           C         -1.430732487671     0.723980713345     2.006494470741    12.000000000000
           C          2.281267512329    -0.517019286655    -2.628505529259    12.000000000000
           C          2.550267512329    -2.031019286655    -0.921505529259    12.000000000000
           C         -0.309732487671     0.171980713345    -0.061505529259    12.000000000000
           C          0.807267512329    -0.421019286655    -0.764505529259    12.000000000000
           C         -2.466732487671     1.318980713345     1.285494470741    12.000000000000
           C         -0.352732487671     0.150980713345     1.332494470741    12.000000000000
           N          2.966267512329    -1.566019286655    -2.120505529259    14.003074004780
           O         -3.457732487671     1.845980713345     1.904494470741    15.994914619560
           F          0.635267512329    -0.417019286655     2.039494470741    18.998403224000
           H         -1.326732487671     0.789980713345    -1.869505529259     1.007825032070
           H         -3.219732487671     1.795980713345    -0.694505529259     1.007825032070
           H          0.700267512329     0.926980713345    -2.460505529259     1.007825032070
           H          1.204267512329    -1.922019286655     0.749494470741     1.007825032070
           H         -1.439732487671     0.693980713345     3.094494470741     1.007825032070
           H          2.633267512329    -0.157019286655    -3.589505529259     1.007825032070
           H          3.112267512329    -2.874019286655    -0.533505529259     1.007825032070

  Nuclear repulsion =  804.187607473622961
  Reference energy  = -649.608725802371282

  ==> Basis Set <==

  Basis Set: AUG-CC-PVTZ
    Blend: AUG-CC-PVTZ
    Number of shells: 259
    Number of basis function: 805
    Number of Cartesian functions: 945
    Spherical Harmonics?: true
    Max angular momentum: 3

  ==> CGRSolver (by Rob Parrish) <==

   Number of roots    =         1
   Preconditioning    =    JACOBI
   Convergence cutoff =     1E-06
   Maximum iterations =       100

  ==> CPHFRHamiltonian (by Rob Parrish) <== 

  ==> DFJK: Density-Fitted J/K Matrices <==

    J tasked:                  Yes
    K tasked:                  Yes
    wK tasked:                  No
    OpenMP threads:              8
    Integrals threads:           8
    Memory (MB):              3576
    Algorithm:                Disk
    Integral Cache:           NONE
    Schwarz Cutoff:          1E-12
    Fitting Condition:       1E-12

   => Auxiliary Basis Set <=

  Basis Set: (AUG-CC-PVTZ AUX)
    Blend: AUG-CC-PVTZ-JKFIT
    Number of shells: 518
    Number of basis function: 1778
    Number of Cartesian functions: 2219
    Spherical Harmonics?: true
    Max angular momentum: 4

  ==> CPHF Iterations <==

  => Iterations <=

             Iter  Converged  Remaining    Residual
  CGR           1          0          1   1.339E-01
  CGR           2          0          1   4.985E-02
  CGR           3          0          1   2.981E-02
  CGR           4          0          1   1.118E-02
  CGR           5          0          1   5.267E-03
  CGR           6          0          1   2.669E-03
  CGR           7          0          1   1.042E-03
  CGR           8          0          1   3.980E-04
  CGR           9          0          1   1.290E-04
  CGR          10          0          1   3.717E-05
  CGR          11          0          1   1.395E-05
  CGR          12          0          1   3.313E-06
  CGR          13          0          1   1.194E-06
  CGR          14          1          0   5.209E-07

    CGRSolver converged.

  ==> DFCorrGrad: Density-Fitted Correlated Gradients <==

    OpenMP threads:              8
    Integrals threads:           8
    Memory (MB):              3576
    Schwarz Cutoff:          0E+00
    Fitting Condition:       1E-12

   => Auxiliary Basis Set <=

  Basis Set: (AUG-CC-PVTZ AUX)
    Blend: AUG-CC-PVTZ-JKFIT
    Number of shells: 518
    Number of basis function: 1778
    Number of Cartesian functions: 2219
    Spherical Harmonics?: true
    Max angular momentum: 4

	-----------------------------------------------------------
	 ==================> DF-MP2 Energies <==================== 
	-----------------------------------------------------------
	 Reference Energy          =    -649.6087258023712820 [Eh]
	 Singles Energy            =      -0.0000000000000002 [Eh]
	 Same-Spin Energy          =      -0.6868857268825287 [Eh]
	 Opposite-Spin Energy      =      -2.0271434710464145 [Eh]
	 Correlation Energy        =      -2.7140291979289430 [Eh]
	 Total Energy              =    -652.3227550003002762 [Eh]
	-----------------------------------------------------------
	 ================> DF-SCS-MP2 Energies <================== 
	-----------------------------------------------------------
	 SCS Same-Spin Scale       =       0.3333333333333333 [-]
	 SCS Opposite-Spin Scale   =       1.2000000000000000 [-]
	 SCS Same-Spin Energy      =      -0.2289619089608429 [Eh]
	 SCS Opposite-Spin Energy  =      -2.4325721652556971 [Eh]
	 SCS Correlation Energy    =      -2.6615340742165401 [Eh]
	 SCS Total Energy          =    -652.2702598765878292 [Eh]
	-----------------------------------------------------------


  -Total Gradient:
     Atom            X                  Y                   Z
    ------   -----------------  -----------------  -----------------
       1        0.019939319119    -0.014860579847    -0.012939304628
       2       -0.023093196078     0.011386332642     0.042187546874
       3       -0.012416146644     0.009328471493     0.008787752543
       4       -0.015451621338     0.009495938418     0.008448244780
       5       -0.045268049593     0.024786564376    -0.002012397675
       6       -0.004303968917     0.008411295079    -0.002884337575
       7       -0.003124702885    -0.003629023305     0.009256261977
       8       -0.023756503827     0.013064269474     0.009730816121
       9        0.020068230144    -0.011313469247    -0.014330689093
      10        0.048392868310    -0.026445506957    -0.030135780823
      11        0.046610446147    -0.020422258016     0.001044971859
      12        0.006224503482    -0.004377725902    -0.003877447661
      13       -0.003298103329     0.002041179218     0.001035942730
      14       -0.009338396432     0.000568427460    -0.010661381946
      15       -0.001543465524     0.002792081990    -0.005697557253
      16       -0.001689827368     0.001875679863    -0.008887971956
      17       -0.002671422445     0.002972305430    -0.004275668233
      18       -0.001112212838    -0.001884311569     0.009380110656
      19        0.003523561809    -0.002686699015     0.007051770469
      20        0.000901991635     0.000016710185    -0.001377928194
      21        0.001406696576    -0.001119681772     0.000157047039


*** tstop() called on gpu-1-6.local at Tue Nov 14 04:27:07 2017
Module time:
	user time   =    5288.26 seconds =      88.14 minutes
	system time =     105.84 seconds =       1.76 minutes
	total time  =       2382 seconds =      39.70 minutes
Total time:
	user time   =    5288.27 seconds =      88.14 minutes
	system time =     105.84 seconds =       1.76 minutes
	total time  =       2382 seconds =      39.70 minutes

			-----------------------------------------
			 OPTKING 2.0: for geometry optimizations 
			  - R.A. King,  Bethel University        
			-----------------------------------------
	At level 1: Red. Int., RFO, no backsteps, dynamic trust

	Internal coordinates to be generated automatically.
	Detected frag 1 with atoms:  1 2 3 4 5 6 7 8 9 10 11 12 13 14 15 16 17 18 19 20
	 21
	---Fragment 1 Bond Connectivity---
	 1 : 2 8 15
	 2 : 1 10 16
	 3 : 6 9 17
	 4 : 7 9 18
	 5 : 10 11 19
	 6 : 3 12 20
	 7 : 4 12 21
	 8 : 1 9 11
	 9 : 3 4 8
	 10 : 2 5 13
	 11 : 5 8 14
	 12 : 6 7
	 13 : 10
	 14 : 11
	 15 : 1
	 16 : 2
	 17 : 3
	 18 : 4
	 19 : 5
	 20 : 6
	 21 : 7

	Assuming in current code that numbering for constraints corresponds to unified fragment.
	Fixed dihedral atom list: 
	     1     8     9     3
	---Fragment 1 Geometry and Gradient---
	 C          -2.5430658498        1.4493834974       -1.4768314216
	 C          -4.5801906211        2.5321965716       -0.2050457342
	 C           2.2776255152        0.1624800009       -3.7728486731
	 C           2.8105282846       -2.8346256458       -0.3959080736
	 C          -2.7036925711        1.3681252737        3.7917250369
	 C           4.3109708342       -0.9770248572       -4.9671555891
	 C           4.8193071639       -3.8380702224       -1.7413930802
	 C          -0.5853095762        0.3249964484       -0.1162286060
	 C           1.5255145143       -0.7956111484       -1.4447060774
	 C          -4.6614488448        2.4925123228        2.4292324950
	 C          -0.6665677999        0.2853121996        2.5180496233
	 N           5.6054332352       -2.9593475706       -4.0071747136
	 O          -6.5341674425        3.4883979948        3.5989729713
	 F           1.2004816194       -0.7880522439        3.8540859992
	 H          -2.5071610533        1.4928471985       -3.5328534542
	 H          -6.0844126229        3.3939116882       -1.3124252481
	 H           1.3233138181        1.7517396787       -4.6496815988
	 H           2.2757357890       -3.6320900739        1.4163392878
	 H          -2.7207001063        1.3114334897        5.8477470694
	 H           4.9761544329       -0.2967234494       -6.7831824028
	 H           5.8813332506       -5.4311093524       -1.0081793407
	             0.0199393191       -0.0148605798       -0.0129393046
	            -0.0230931961        0.0113863326        0.0421875469
	            -0.0124161466        0.0093284715        0.0087877525
	            -0.0154516213        0.0094959384        0.0084482448
	            -0.0452680496        0.0247865644       -0.0020123977
	            -0.0043039689        0.0084112951       -0.0028843376
	            -0.0031247029       -0.0036290233        0.0092562620
	            -0.0237565038        0.0130642695        0.0097308161
	             0.0200682301       -0.0113134692       -0.0143306891
	             0.0483928683       -0.0264455070       -0.0301357808
	             0.0466104461       -0.0204222580        0.0010449719
	             0.0062245035       -0.0043777259       -0.0038774477
	            -0.0032981033        0.0020411792        0.0010359427
	            -0.0093383964        0.0005684275       -0.0106613819
	            -0.0015434655        0.0027920820       -0.0056975573
	            -0.0016898274        0.0018756799       -0.0088879720
	            -0.0026714224        0.0029723054       -0.0042756682
	            -0.0011122128       -0.0018843116        0.0093801107
	             0.0035235618       -0.0026866990        0.0070517705
	             0.0009019916        0.0000167102       -0.0013779282
	             0.0014066966       -0.0011196818        0.0001570470

	Previous optimization step data not found.  Starting new optimization.

	---Fragment 1 Intrafragment Coordinates---
	 - Coordinate -           - BOHR/RAD -       - ANG/DEG -
	 R(1,2)           =         2.634350	       1.394038
	 R(1,8)           =         2.635962	       1.394891
	 R(1,15)          =         2.056795	       1.088409
	 R(2,10)          =         2.635830	       1.394821
	 R(2,16)          =         2.057067	       1.088553
	 R(3,6)           =         2.619033	       1.385933
	 R(3,9)           =         2.627519	       1.390423
	 R(3,17)          =         2.050681	       1.085174
	 R(4,7)           =         2.617713	       1.385234
	 R(4,9)           =         2.628463	       1.390923
	 R(4,18)          =         2.050901	       1.085290
	 R(5,10)          =         2.636938	       1.395407
	 R(5,11)          =         2.635263	       1.394521
	 R(5,19)          =         2.056874	       1.088451
	 R(6,12)          =         2.554760	       1.351921
	 R(6,20)          =         2.050179	       1.084908
	 R(7,12)          =         2.554195	       1.351622
	 R(7,21)          =         2.050189	       1.084913
	 R(8,9)           =         2.734263	       1.446909
	 R(8,11)          =         2.635830	       1.394821
	 R(10,13)         =         2.422221	       1.281784
	 R(11,14)         =         2.534359	       1.341125
	 B(1,2,10)        =         2.094553	     120.009056
	 B(1,2,16)        =         2.068903	     118.539404
	 B(1,8,9)         =         2.091392	     119.827938
	 B(1,8,11)        =         2.093692	     119.959722
	 B(2,1,8)         =         2.094940	     120.031219
	 B(2,1,15)        =         2.079908	     119.169966
	 B(2,10,5)        =         2.094306	     119.994870
	 B(2,10,13)       =         2.094719	     120.018581
	 B(3,6,12)        =         2.164728	     124.029787
	 B(3,6,20)        =         2.107670	     120.760601
	 B(3,9,4)         =         2.090332	     119.767216
	 B(3,9,8)         =         2.096751	     120.135010
	 B(4,7,12)        =         2.165495	     124.073738
	 B(4,7,21)        =         2.107780	     120.766925
	 B(4,9,8)         =         2.096101	     120.097761
	 B(5,10,13)       =         2.094160	     119.986548
	 B(5,11,8)        =         2.095181	     120.045019
	 B(5,11,14)       =         2.081414	     119.256220
	 B(6,3,9)         =         2.057411	     117.880988
	 B(6,3,17)        =         2.098443	     120.231931
	 B(6,12,7)        =         2.031222	     116.380446
	 B(7,4,9)         =         2.057182	     117.867819
	 B(7,4,18)        =         2.100446	     120.346709
	 B(8,1,15)        =         2.108336	     120.798746
	 B(8,11,14)       =         2.106591	     120.698759
	 B(9,3,17)        =         2.127330	     121.887046
	 B(9,4,18)        =         2.125557	     121.785470
	 B(9,8,11)        =         2.098101	     120.212327
	 B(10,2,16)       =         2.119728	     121.451467
	 B(10,5,11)       =         2.093699	     119.960108
	 B(10,5,19)       =         2.120101	     121.472852
	 B(11,5,19)       =         2.069385	     118.567038
	 B(12,6,20)       =         2.010780	     115.209216
	 B(12,7,21)       =         2.009907	     115.159214
	 D(1,2,10,5)      =        -0.000325	      -0.018609
	 D(1,2,10,13)     =         3.141392	     179.988520
	 D(1,8,9,3)       =         0.522912	      29.960675
	 D(1,8,9,4)       =        -2.619392	    -150.080129
	 D(1,8,11,5)      =         0.000325	       0.018608
	 D(1,8,11,14)     =        -3.141528	    -179.996269
	 D(2,1,8,9)       =        -3.141211	    -179.978157
	 D(2,1,8,11)      =        -0.000348	      -0.019945
	 D(2,10,5,11)     =         0.000301	       0.017261
	 D(2,10,5,19)     =        -3.141543	    -179.997173
	 D(3,6,12,7)      =         0.000329	       0.018858
	 D(3,9,4,7)       =         0.000286	       0.016400
	 D(3,9,4,18)      =        -3.141038	    -179.968241
	 D(3,9,8,11)      =        -2.617949	    -149.997431
	 D(4,7,12,6)      =         0.000031	       0.001794
	 D(4,9,3,6)       =         0.000036	       0.002088
	 D(4,9,3,17)      =        -3.140375	    -179.930227
	 D(4,9,8,11)      =         0.522931	      29.961765
	 D(5,10,2,16)     =         3.139529	     179.881752
	 D(5,11,8,9)      =         3.141185	     179.976658
	 D(6,3,9,8)       =         3.140919	     179.961419
	 D(6,12,7,21)     =         3.139407	     179.874790
	 D(7,4,9,8)       =        -3.140597	    -179.942947
	 D(7,12,6,20)     =         3.137944	     179.790946
	 D(8,1,2,10)      =         0.000348	       0.019955
	 D(8,1,2,16)      =        -3.139556	    -179.883288
	 D(8,9,3,17)      =         0.000508	       0.029104
	 D(8,9,4,18)      =         0.001264	       0.072412
	 D(8,11,5,10)     =        -0.000301	      -0.017270
	 D(8,11,5,19)     =         3.141536	     179.996748
	 D(9,3,6,12)      =        -0.000364	      -0.020857
	 D(9,3,6,20)      =        -3.137768	    -179.780891
	 D(9,4,7,12)      =        -0.000332	      -0.019047
	 D(9,4,7,21)      =        -3.139590	    -179.885262
	 D(9,8,1,15)      =         0.002066	       0.118384
	 D(9,8,11,14)     =        -0.000667	      -0.038219
	 D(10,2,1,15)     =         3.140283	     179.924984
	 D(10,5,11,14)    =         3.141547	     179.997392
	 D(11,5,10,13)    =        -3.141416	    -179.989865
	 D(11,8,1,15)     =        -3.140256	    -179.923403
	 D(12,6,3,17)     =         3.140068	     179.912626
	 D(12,7,4,18)     =         3.140996	     179.965825
	 D(13,10,2,16)    =        -0.001939	      -0.111119
	 D(13,10,5,19)    =        -0.000075	      -0.004300
	 D(14,11,5,19)    =         0.000199	       0.011410
	 D(15,1,2,16)     =         0.000379	       0.021741
	 D(17,3,6,20)     =         0.002663	       0.152591
	 D(18,4,7,21)     =         0.001739	       0.099609
	 R(4,14)          =         4.984292	       2.637574

	Current energy   :      -652.3227550003

	Using model Hessian from Lindh (1995).
	 - Coordinate -           - BOHR/RAD -       - ANG/DEG -
	 R(1,2)           =         2.634350	       1.394038
	 R(1,8)           =         2.635962	       1.394891
	 R(1,15)          =         2.056795	       1.088409
	 R(2,10)          =         2.635830	       1.394821
	 R(2,16)          =         2.057067	       1.088553
	 R(3,6)           =         2.619033	       1.385933
	 R(3,9)           =         2.627519	       1.390423
	 R(3,17)          =         2.050681	       1.085174
	 R(4,7)           =         2.617713	       1.385234
	 R(4,9)           =         2.628463	       1.390923
	 R(4,18)          =         2.050901	       1.085290
	 R(5,10)          =         2.636938	       1.395407
	 R(5,11)          =         2.635263	       1.394521
	 R(5,19)          =         2.056874	       1.088451
	 R(6,12)          =         2.554760	       1.351921
	 R(6,20)          =         2.050179	       1.084908
	 R(7,12)          =         2.554195	       1.351622
	 R(7,21)          =         2.050189	       1.084913
	 R(8,9)           =         2.734263	       1.446909
	 R(8,11)          =         2.635830	       1.394821
	 R(10,13)         =         2.422221	       1.281784
	 R(11,14)         =         2.534359	       1.341125
	 R(12,20)         =         3.897663	       2.062554
	 R(12,21)         =         3.896113	       2.061734
	 R(14,18)         =         3.897093	       2.062253
	 R(15,17)         =         3.998358	       2.115840
	 B(1,2,10)        =         2.094553	     120.009056
	 B(1,2,16)        =         2.068903	     118.539404
	 B(1,8,9)         =         2.091392	     119.827938
	 B(1,8,11)        =         2.093692	     119.959722
	 B(1,15,17)       =         1.872669	     107.296030
	 B(2,1,8)         =         2.094940	     120.031219
	 B(2,1,15)        =         2.079908	     119.169966
	 B(2,10,5)        =         2.094306	     119.994870
	 B(2,10,13)       =         2.094719	     120.018581
	 B(3,6,12)        =         2.164728	     124.029787
	 B(3,6,20)        =         2.107670	     120.760601
	 B(3,9,4)         =         2.090332	     119.767216
	 B(3,9,8)         =         2.096751	     120.135010
	 B(3,17,15)       =         1.850645	     106.034159
	 B(4,7,12)        =         2.165495	     124.073738
	 B(4,7,21)        =         2.107780	     120.766925
	 B(4,9,8)         =         2.096101	     120.097761
	 B(4,18,14)       =         1.918692	     109.932927
	 B(5,10,13)       =         2.094160	     119.986548
	 B(5,11,8)        =         2.095181	     120.045019
	 B(5,11,14)       =         2.081414	     119.256220
	 B(6,3,9)         =         2.057411	     117.880988
	 B(6,3,17)        =         2.098443	     120.231931
	 B(6,12,7)        =         2.031222	     116.380446
	 B(6,12,20)       =         0.495993	      28.418280
	 B(6,12,21)       =         2.527653	     144.823848
	 B(6,20,12)       =         0.634820	      36.372504
	 B(7,4,9)         =         2.057182	     117.867819
	 B(7,4,18)        =         2.100446	     120.346709
	 B(7,12,20)       =         2.527210	     144.798444
	 B(7,12,21)       =         0.496433	      28.443502
	 B(7,21,12)       =         0.635252	      36.397284
	 B(8,1,15)        =         2.108336	     120.798746
	 B(8,11,14)       =         2.106591	     120.698759
	 B(9,3,17)        =         2.127330	     121.887046
	 B(9,4,18)        =         2.125557	     121.785470
	 B(9,8,11)        =         2.098101	     120.212327
	 B(10,2,16)       =         2.119728	     121.451467
	 B(10,5,11)       =         2.093699	     119.960108
	 B(10,5,19)       =         2.120101	     121.472852
	 B(11,5,19)       =         2.069385	     118.567038
	 B(11,14,18)      =         1.754411	     100.520355
	 B(12,6,20)       =         2.010780	     115.209216
	 B(12,7,21)       =         2.009907	     115.159214
	 B(20,12,21)      =         3.023642	     173.241901
	 D(1,2,10,5)      =        -0.000325	      -0.018609
	 D(1,2,10,13)     =         3.141392	     179.988520
	 D(1,8,9,3)       =         0.522912	      29.960675
	 D(1,8,9,4)       =        -2.619392	    -150.080129
	 D(1,8,11,5)      =         0.000325	       0.018608
	 D(1,8,11,14)     =        -3.141528	    -179.996269
	 D(1,15,17,3)     =         0.971250	      55.648521
	 D(2,1,8,9)       =        -3.141211	    -179.978157
	 D(2,1,8,11)      =        -0.000348	      -0.019945
	 D(2,1,15,17)     =         2.576639	     147.630527
	 D(2,10,5,11)     =         0.000301	       0.017261
	 D(2,10,5,19)     =        -3.141543	    -179.997173
	 D(3,6,12,7)      =         0.000329	       0.018858
	 D(3,6,12,20)     =        -3.137615	    -179.772088
	 D(3,6,12,21)     =         0.002136	       0.122377
	 D(3,6,20,12)     =         3.137756	     179.780195
	 D(3,9,4,7)       =         0.000286	       0.016400
	 D(3,9,4,18)      =        -3.141038	    -179.968241
	 D(3,9,8,11)      =        -2.617949	    -149.997431
	 D(4,7,12,6)      =         0.000031	       0.001794
	 D(4,7,12,20)     =         0.003044	       0.174383
	 D(4,7,12,21)     =        -3.139376	    -179.872996
	 D(4,7,21,12)     =         3.139456	     179.877569
	 D(4,9,3,6)       =         0.000036	       0.002088
	 D(4,9,3,17)      =        -3.140375	    -179.930227
	 D(4,9,8,11)      =         0.522931	      29.961765
	 D(4,18,14,11)    =         0.998382	      57.203085
	 D(5,10,2,16)     =         3.139529	     179.881752
	 D(5,11,8,9)      =         3.141185	     179.976658
	 D(5,11,14,18)    =         2.580482	     147.850718
	 D(6,3,9,8)       =         3.140919	     179.961419
	 D(6,3,17,15)     =         2.582405	     147.960890
	 D(6,12,7,21)     =         3.139407	     179.874790
	 D(6,12,21,7)     =        -0.003398	      -0.194710
	 D(6,20,12,7)     =        -0.005670	      -0.324890
	 D(6,20,12,21)    =        -0.009017	      -0.516653
	 D(7,4,9,8)       =        -3.140597	    -179.942947
	 D(7,4,18,14)     =         2.481275	     142.166578
	 D(7,12,6,20)     =         3.137944	     179.790946
	 D(7,21,12,20)    =         0.004051	       0.232090
	 D(8,1,2,10)      =         0.000348	       0.019955
	 D(8,1,2,16)      =        -3.139556	    -179.883288
	 D(8,1,15,17)     =        -0.566625	     -32.465193
	 D(8,9,3,17)      =         0.000508	       0.029104
	 D(8,9,4,18)      =         0.001264	       0.072412
	 D(8,11,5,10)     =        -0.000301	      -0.017270
	 D(8,11,5,19)     =         3.141536	     179.996748
	 D(8,11,14,18)    =        -0.560853	     -32.134521
	 D(9,3,6,12)      =        -0.000364	      -0.020857
	 D(9,3,6,20)      =        -3.137768	    -179.780891
	 D(9,3,17,15)     =        -0.560397	     -32.108356
	 D(9,4,7,12)      =        -0.000332	      -0.019047
	 D(9,4,7,21)      =        -3.139590	    -179.885262
	 D(9,4,18,14)     =        -0.660592	     -37.849156
	 D(9,8,1,15)      =         0.002066	       0.118384
	 D(9,8,11,14)     =        -0.000667	      -0.038219
	 D(10,2,1,15)     =         3.140283	     179.924984
	 D(10,5,11,14)    =         3.141547	     179.997392
	 D(11,5,10,13)    =        -3.141416	    -179.989865
	 D(11,8,1,15)     =        -3.140256	    -179.923403
	 D(12,6,3,17)     =         3.140068	     179.912626
	 D(12,7,4,18)     =         3.140996	     179.965825
	 D(13,10,2,16)    =        -0.001939	      -0.111119
	 D(13,10,5,19)    =        -0.000075	      -0.004300
	 D(14,11,5,19)    =         0.000199	       0.011410
	 D(15,1,2,16)     =         0.000379	       0.021741
	 D(17,3,6,20)     =         0.002663	       0.152591
	 D(18,4,7,21)     =         0.001739	       0.099609
	 D(20,6,12,21)    =         3.139751	     179.894465
	 D(20,12,7,21)    =        -3.140766	    -179.952621

	Adding user-defined constraint: Fragment 1; Coordinate 59:
		Value =     0.522912; Fixed value    =     0.523599
		Force =     0.000343; Force constant =     0.500000
	Removing off-diagonal coupling between coordinate 59 and others.
	Taking RFO optimization step.
	Going to follow RFO solution 1.
	Using RFO vector 1.

	Determining step-restricting scale parameter for RS-RFO.
	Maximum step size allowed    0.10000

	 Iter      |step|        alpha        rfo_root  
	------------------------------------------------
	    0     0.34890       1.00000           1
	    1     0.23590       3.25489           1
	    2     0.17212       8.97629           1
	    3     0.13196      21.58004           1
	    4     0.10950      38.21471           1
	    5     0.10123      47.97032           1
	    6     0.10003      49.62961           1
	    7     0.10000      49.66494           1
	------------------------------------------------
	Norm of target step-size    0.10000
	Projected energy change by RFO approximation:        -0.0074447644

	Back-transformation to cartesian coordinates...
	Could not converge backtransformation.
	Using first guess instead.

	--- Internal Coordinate Step in ANG or DEG, aJ/ANG or AJ/DEG ---
	 ---------------------------------------------------------------------------
	   Coordinate                Previous        Force       Change         New 
	   ----------                --------       ------       ------       ------
	    1 R(1,2)          =      1.394038    -0.076660    -0.004817     1.389221
	    2 R(1,8)          =      1.394891     0.057119     0.003691     1.398583
	    3 R(1,15)         =      1.088409    -0.047187    -0.003553     1.084856
	    4 R(2,10)         =      1.394821     0.220724     0.014402     1.409223
	    5 R(2,16)         =      1.088553    -0.056073    -0.004205     1.084348
	    6 R(3,6)          =      1.385933    -0.008497    -0.000555     1.385378
	    7 R(3,9)          =      1.390423     0.050064     0.003786     1.394209
	    8 R(3,17)         =      1.085174    -0.044283    -0.003294     1.081880
	    9 R(4,7)          =      1.385234     0.002688     0.000168     1.385403
	   10 R(4,9)          =      1.390923     0.058698     0.004110     1.395033
	   11 R(4,18)         =      1.085290    -0.076713    -0.005660     1.079629
	   12 R(5,10)         =      1.395407     0.199818     0.013264     1.408672
	   13 R(5,11)         =      1.394521    -0.133708    -0.008368     1.386153
	   14 R(5,19)         =      1.088451    -0.058444    -0.004386     1.084065
	   15 R(6,12)         =      1.351921    -0.107101    -0.006555     1.345366
	   16 R(6,20)         =      1.084908    -0.012513    -0.000895     1.084012
	   17 R(7,12)         =      1.351622    -0.096039    -0.005860     1.345762
	   18 R(7,21)         =      1.084913    -0.013633    -0.000969     1.083945
	   19 R(8,9)          =      1.446909     0.063396     0.004568     1.451478
	   20 R(8,11)         =      1.394821    -0.004889    -0.000115     1.394707
	   21 R(10,13)        =      1.281784    -0.032044    -0.001638     1.280146
	   22 R(11,14)        =      1.341125     0.101932     0.006010     1.347136
	   23 B(1,2,10)       =    120.009056     0.000576     0.696418   120.705474
	   24 B(1,2,16)       =    118.539404     0.000199     0.259935   118.799339
	   25 B(1,8,9)        =    119.827938     0.000948     1.080413   120.908351
	   26 B(1,8,11)       =    119.959722    -0.001262    -1.536663   118.423059
	   27 B(2,1,8)        =    120.031219     0.000764     0.849871   120.881090
	   28 B(2,1,15)       =    119.169966    -0.000169    -0.159717   119.010249
	   29 B(2,10,5)       =    119.994870    -0.001817    -1.848072   118.146798
	   30 B(2,10,13)      =    120.018581     0.000998     1.010977   121.029558
	   31 B(3,6,12)       =    124.029787     0.000191     0.149523   124.179310
	   32 B(3,6,20)       =    120.760601    -0.000145    -0.140087   120.620514
	   33 B(3,9,4)        =    119.767216    -0.001520    -1.606716   118.160500
	   34 B(3,9,8)        =    120.135010     0.000746     0.771888   120.906898
	   35 B(4,7,12)       =    124.073738     0.000294     0.274486   124.348224
	   36 B(4,7,21)       =    120.766925    -0.000200    -0.209061   120.557864
	   37 B(4,9,8)        =    120.097761     0.000774     0.834838   120.932599
	   38 B(5,10,13)      =    119.986548     0.000819     0.837091   120.823639
	   39 B(5,11,8)       =    120.045019     0.001338     1.380070   121.425089
	   40 B(5,11,14)      =    119.256220    -0.000185    -0.231621   119.024599
	   41 B(6,3,9)        =    117.880988     0.000712     0.854846   118.735835
	   42 B(6,3,17)       =    120.231931    -0.000239    -0.287735   119.944196
	   43 B(6,12,7)       =    116.380446    -0.000204    -0.347516   116.032930
	   44 B(7,4,9)        =    117.867819     0.000527     0.675362   118.543180
	   45 B(7,4,18)       =    120.346709    -0.000286    -0.346046   120.000663
	   46 B(8,1,15)       =    120.798746    -0.000596    -0.690610   120.108135
	   47 B(8,11,14)      =    120.698759    -0.001153    -1.148869   119.549890
	   48 B(9,3,17)       =    121.887046    -0.000472    -0.567314   121.319732
	   49 B(9,4,18)       =    121.785470    -0.000241    -0.329643   121.455827
	   50 B(9,8,11)       =    120.212327     0.000314     0.456233   120.668560
	   51 B(10,2,16)      =    121.451467    -0.000775    -0.956379   120.495088
	   52 B(10,5,11)      =    119.960108     0.000400     0.458280   120.418389
	   53 B(10,5,19)      =    121.472852    -0.000540    -0.646714   120.826139
	   54 B(11,5,19)      =    118.567038     0.000139     0.188426   118.755463
	   55 B(12,6,20)      =    115.209216    -0.000046    -0.009722   115.199494
	   56 B(12,7,21)      =    115.159214    -0.000094    -0.065553   115.093660
	   57 D(1,2,10,5)     =     -0.018609    -0.000006    -0.048245    -0.066854
	   58 D(1,2,10,13)    =    179.988520    -0.000003    -0.029281   179.959239
	   59 D(1,8,9,3)      =     29.960675     0.000005     0.025228    29.985903
	   60 D(1,8,9,4)      =   -150.080129     0.000005     0.047811  -150.032319
	   61 D(1,8,11,5)     =      0.018608    -0.000006    -0.051455    -0.032847
	   62 D(1,8,11,14)    =   -179.996269     0.000024     0.202279  -179.793990
	   63 D(2,1,8,9)      =   -179.978157    -0.000002    -0.020225  -179.998382
	   64 D(2,1,8,11)     =     -0.019945    -0.000004    -0.041125    -0.061070
	   65 D(2,10,5,11)    =      0.017261    -0.000005    -0.043205    -0.025944
	   66 D(2,10,5,19)    =   -179.997173    -0.000007    -0.064407  -180.061581
	   67 D(3,6,12,7)     =      0.018858     0.000004     0.036507     0.055366
	   68 D(3,9,4,7)      =      0.016400    -0.000003    -0.012212     0.004188
	   69 D(3,9,4,18)     =   -179.968241     0.000021     0.181151  -179.787090
	   70 D(3,9,8,11)     =   -149.997431     0.000007     0.047430  -149.950001
	   71 D(4,7,12,6)     =      0.001794    -0.000004    -0.034926    -0.033132
	   72 D(4,9,3,6)      =      0.002088     0.000003     0.013783     0.015870
	   73 D(4,9,3,17)     =   -179.930227     0.000015     0.123346  -179.806880
	   74 D(4,9,8,11)     =     29.961765     0.000007     0.070012    30.031777
	   75 D(5,10,2,16)    =    179.881752    -0.000007    -0.064328   179.817424
	   76 D(5,11,8,9)     =    179.976658    -0.000008    -0.072037   179.904621
	   77 D(6,3,9,8)      =    179.961419     0.000003     0.036723   179.998142
	   78 D(6,12,7,21)    =    179.874790    -0.000011    -0.089946   179.784844
	   79 D(7,4,9,8)      =   -179.942947    -0.000003    -0.035132  -179.978079
	   80 D(7,12,6,20)    =    179.790946    -0.000004    -0.035322   179.755624
	   81 D(8,1,2,10)     =      0.019955     0.000010     0.091742     0.111696
	   82 D(8,1,2,16)     =   -179.883288     0.000012     0.108773  -179.774515
	   83 D(8,9,3,17)     =      0.029104     0.000016     0.146287     0.175391
	   84 D(8,9,4,18)     =      0.072412     0.000021     0.158231     0.230643
	   85 D(8,11,5,10)    =     -0.017270     0.000011     0.093678     0.076407
	   86 D(8,11,5,19)    =    179.996748     0.000013     0.114567   180.111315
	   87 D(9,3,6,12)     =     -0.020857    -0.000004    -0.027344    -0.048200
	   88 D(9,3,6,20)     =   -179.780891     0.000005     0.047853  -179.733038
	   89 D(9,4,7,12)     =     -0.019047     0.000003     0.023767     0.004721
	   90 D(9,4,7,21)     =   -179.885262     0.000010     0.081413  -179.803849
	   91 D(9,8,1,15)     =      0.118384     0.000017     0.149724     0.268108
	   92 D(9,8,11,14)    =     -0.038219     0.000022     0.181697     0.143478
	   93 D(10,2,1,15)    =    179.924984    -0.000009    -0.076897   179.848087
	   94 D(10,5,11,14)   =    179.997392    -0.000019    -0.158617   179.838776
	   95 D(11,5,10,13)   =   -179.989865    -0.000007    -0.062116  -180.051981
	   96 D(11,8,1,15)    =   -179.923403     0.000015     0.128823  -179.794580
	   97 D(12,6,3,17)    =    179.912626    -0.000016    -0.135573   179.777053
	   98 D(12,7,4,18)    =    179.965825    -0.000020    -0.166699   179.799126
	   99 D(13,10,2,16)   =     -0.111119    -0.000005    -0.045364    -0.156483
	  100 D(13,10,5,19)   =     -0.004300    -0.000010    -0.083318    -0.087618
	  101 D(14,11,5,19)   =      0.011410    -0.000016    -0.137727    -0.126317
	  102 D(15,1,2,16)    =      0.021741    -0.000007    -0.059866    -0.038125
	  103 D(17,3,6,20)    =      0.152591    -0.000007    -0.060377     0.092215
	  104 D(18,4,7,21)    =      0.099609    -0.000013    -0.109053    -0.009444
	  105 R(4,14)         =      2.637574     0.080639     0.013201     2.650774
	 ---------------------------------------------------------------------------
	Successfully symmetrized geometry.
	 Forces used to impose fixed constraints are not included.
	  Forces zeroed: 59 

  ==> Convergence Check <==

  Measures of convergence in internal coordinates in au.
  Criteria marked as inactive (o), active & met (*), and active & unmet ( ).
  --------------------------------------------------------------------------------------------- ~
   Step     Total Energy     Delta E     MAX Force     RMS Force      MAX Disp      RMS Disp    ~
  --------------------------------------------------------------------------------------------- ~
    Convergence Criteria    1.00e-06 *    3.00e-04 *             o    1.20e-03 *             o  ~
  --------------------------------------------------------------------------------------------- ~
      1    -652.32275500   -6.52e+02      2.68e-02      7.44e-03 o    3.23e-02      9.75e-03 o  ~
  ---------------------------------------------------------------------------------------------

	Writing optimization data to binary file.
	Structure for next step:
	Cartesian Geometry (in Angstrom)
	    C    -1.3635693883   0.7756074178  -0.7713700552
	    C    -2.4383691219   1.3460427879  -0.1010393146
	    C     1.2255736806   0.0718456940  -2.0019798733
	    C     1.4994942101  -1.5037288475  -0.2220088572
	    C    -1.4374478493   0.7282985437   2.0107649804
	    C     2.3029282070  -0.5312708070  -2.6303341713
	    C     2.5643848350  -2.0339306652  -0.9321036264
	    C    -0.3154400471   0.1745316703  -0.0669796377
	    C     0.8078263917  -0.4216127352  -0.7667450722
	    C    -2.4965328061   1.3343664912   1.3069345343
	    C    -0.3732956751   0.1619597545   1.3264696616
	    N     2.9855161144  -1.5746427832  -2.1249065687
	    O    -3.4835731521   1.8588535600   1.9309847062
	    F     0.6261169203  -0.4073116331   2.0278103351
	    H    -1.3481152330   0.7978727802  -1.8558873902
	    H    -3.2344149694   1.7997639876  -0.6809178827
	    H     0.7280168479   0.9109163418  -2.4698065037
	    H     1.2192671025  -1.9302189964   0.7293999360
	    H    -1.4373301132   0.6956994455   3.0943394944
	    H     2.6560252894  -0.1696928124  -3.5893266782
	    H     3.1225565155  -2.8767542144  -0.5409141312
			--------------------------
			 OPTKING Finished Execution 
			--------------------------

    Structure for next step:
    Molecular point group: c1
    Full point group: C1

    Geometry (in Angstrom), charge = -1, multiplicity = 1:

    C           -1.360422127330     0.773528473303    -0.772010755083
    C           -2.435221860889     1.343963843360    -0.101680014486
    C            1.228720941643     0.069766749526    -2.002620573242
    C            1.502641471079    -1.505807791973    -0.222649557162
    C           -1.434300588346     0.726219599179     2.010124280523
    C            2.306075467954    -0.533349751543    -2.630974871169
    C            2.567532096032    -2.036009609675    -0.932744326288
    C           -0.312292786136     0.172452725785    -0.067620337656
    C            0.810973652672    -0.423691679665    -0.767385772124
    C           -2.493385545152     1.332287546660     1.306293834396
    C           -0.370148414067     0.159880810013     1.325828961690
    N            2.988663375399    -1.576721727660    -2.125547268607
    O           -3.480425891093     1.856774615456     1.930344006320
    F            0.629264181323    -0.409390577629     2.027169635197
    H           -1.344967971986     0.795793835670    -1.856528090098
    H           -3.231267708377     1.797685043133    -0.681558582568
    H            0.731164108918     0.908837397333    -2.470447203602
    H            1.222414363489    -1.932297940915     0.728759236092
    H           -1.434182852171     0.693620501018     3.093698794472
    H            2.659172550353    -0.171771756866    -3.589967378087
    H            3.125703776512    -2.878833158906    -0.541554831107

gradient() will perform analytic gradient computation.

*** tstart() called on gpu-1-6.local
*** at Tue Nov 14 04:27:08 2017

    SCF Algorithm Type (re)set to DF.

*** tstart() called on gpu-1-6.local
*** at Tue Nov 14 04:27:08 2017

   => Loading Basis Set <=

    Name: AUG-CC-PVTZ
    Role: ORBITAL
    Keyword: BASIS
    atoms 1-11  entry C          line   221 file /cbio/jclab/home/chayas/anaconda/envs/py35/share/psi4/basis/aug-cc-pvtz.gbs 
    atoms 12    entry N          line   267 file /cbio/jclab/home/chayas/anaconda/envs/py35/share/psi4/basis/aug-cc-pvtz.gbs 
    atoms 13    entry O          line   313 file /cbio/jclab/home/chayas/anaconda/envs/py35/share/psi4/basis/aug-cc-pvtz.gbs 
    atoms 14    entry F          line   359 file /cbio/jclab/home/chayas/anaconda/envs/py35/share/psi4/basis/aug-cc-pvtz.gbs 
    atoms 15-21 entry H          line    34 file /cbio/jclab/home/chayas/anaconda/envs/py35/share/psi4/basis/aug-cc-pvtz.gbs 


         ---------------------------------------------------------
                                   SCF
            by Justin Turney, Rob Parrish, and Andy Simmonett
                              RHF Reference
                        8 Threads,   4768 MiB Core
         ---------------------------------------------------------

  ==> Geometry <==

    Molecular point group: c1
    Full point group: C1

    Geometry (in Angstrom), charge = -1, multiplicity = 1:

       Center              X                  Y                   Z               Mass       
    ------------   -----------------  -----------------  -----------------  -----------------
           C         -1.360422127330     0.773528473303    -0.772010755083    12.000000000000
           C         -2.435221860889     1.343963843360    -0.101680014486    12.000000000000
           C          1.228720941643     0.069766749526    -2.002620573242    12.000000000000
           C          1.502641471079    -1.505807791973    -0.222649557162    12.000000000000
           C         -1.434300588346     0.726219599179     2.010124280523    12.000000000000
           C          2.306075467954    -0.533349751543    -2.630974871169    12.000000000000
           C          2.567532096032    -2.036009609675    -0.932744326288    12.000000000000
           C         -0.312292786136     0.172452725785    -0.067620337656    12.000000000000
           C          0.810973652672    -0.423691679665    -0.767385772124    12.000000000000
           C         -2.493385545152     1.332287546660     1.306293834396    12.000000000000
           C         -0.370148414067     0.159880810013     1.325828961690    12.000000000000
           N          2.988663375399    -1.576721727660    -2.125547268607    14.003074004780
           O         -3.480425891093     1.856774615456     1.930344006320    15.994914619560
           F          0.629264181323    -0.409390577629     2.027169635197    18.998403224000
           H         -1.344967971986     0.795793835670    -1.856528090098     1.007825032070
           H         -3.231267708377     1.797685043133    -0.681558582568     1.007825032070
           H          0.731164108918     0.908837397333    -2.470447203602     1.007825032070
           H          1.222414363489    -1.932297940915     0.728759236092     1.007825032070
           H         -1.434182852171     0.693620501018     3.093698794472     1.007825032070
           H          2.659172550353    -0.171771756866    -3.589967378087     1.007825032070
           H          3.125703776512    -2.878833158906    -0.541554831107     1.007825032070

  Running in c1 symmetry.

  Rotational constants: A =      0.06399  B =      0.01366  C =      0.01149 [cm^-1]
  Rotational constants: A =   1918.42948  B =    409.39191  C =    344.38223 [MHz]
  Nuclear repulsion =  802.101251736609242

  Charge       = -1
  Multiplicity = 1
  Electrons    = 98
  Nalpha       = 49
  Nbeta        = 49

  ==> Algorithm <==

  SCF Algorithm Type is DF.
  DIIS enabled.
  MOM disabled.
  Fractional occupation disabled.
  Guess Type is READ.
  Energy threshold   = 1.00e-10
  Density threshold  = 1.00e-10
  Integral threshold = 0.00e+00

  ==> Primary Basis <==

  Basis Set: AUG-CC-PVTZ
    Blend: AUG-CC-PVTZ
    Number of shells: 259
    Number of basis function: 805
    Number of Cartesian functions: 945
    Spherical Harmonics?: true
    Max angular momentum: 3

   => Loading Basis Set <=

    Name: (AUG-CC-PVTZ AUX)
    Role: JKFIT
    Keyword: DF_BASIS_SCF
    atoms 1-11  entry C          line   161 file /cbio/jclab/home/chayas/anaconda/envs/py35/share/psi4/basis/aug-cc-pvtz-jkfit.gbs 
    atoms 12    entry N          line   223 file /cbio/jclab/home/chayas/anaconda/envs/py35/share/psi4/basis/aug-cc-pvtz-jkfit.gbs 
    atoms 13    entry O          line   285 file /cbio/jclab/home/chayas/anaconda/envs/py35/share/psi4/basis/aug-cc-pvtz-jkfit.gbs 
    atoms 14    entry F          line   347 file /cbio/jclab/home/chayas/anaconda/envs/py35/share/psi4/basis/aug-cc-pvtz-jkfit.gbs 
    atoms 15-21 entry H          line    69 file /cbio/jclab/home/chayas/anaconda/envs/py35/share/psi4/basis/aug-cc-pvtz-jkfit.gbs 

  Reading orbitals from file 180, no projection.

  ==> Pre-Iterations <==

   -------------------------------------------------------
    Irrep   Nso     Nmo     Nalpha   Nbeta   Ndocc  Nsocc
   -------------------------------------------------------
     A        805     805       0       0       0       0
   -------------------------------------------------------
    Total     805     805      49      49      49       0
   -------------------------------------------------------

  ==> Integral Setup <==

  ==> DFJK: Density-Fitted J/K Matrices <==

    J tasked:                  Yes
    K tasked:                  Yes
    wK tasked:                  No
    OpenMP threads:              8
    Integrals threads:           8
    Memory (MB):              3576
    Algorithm:                Disk
    Integral Cache:           NONE
    Schwarz Cutoff:          1E-12
    Fitting Condition:       1E-12

   => Auxiliary Basis Set <=

  Basis Set: (AUG-CC-PVTZ AUX)
    Blend: AUG-CC-PVTZ-JKFIT
    Number of shells: 518
    Number of basis function: 1778
    Number of Cartesian functions: 2219
    Spherical Harmonics?: true
    Max angular momentum: 4

  Minimum eigenvalue in the overlap matrix is 7.5110797536E-07.
  Using Symmetric Orthogonalization.

  SCF Guess: Orbitals guess was supplied from a previous computation.

  ==> Iterations <==

                           Total Energy        Delta E     RMS |[F,P]|

   @DF-RHF iter   0:  -649.70093217796921   -6.49701e+02   5.39001e-04 
   @DF-RHF iter   1:  -649.61591777156900    8.50144e-02   1.12777e-04 
   @DF-RHF iter   2:  -649.61638157600476   -4.63804e-04   7.81630e-05 DIIS
   @DF-RHF iter   3:  -649.61662272703711   -2.41151e-04   1.13087e-05 DIIS
   @DF-RHF iter   4:  -649.61662960370870   -6.87667e-06   4.85469e-06 DIIS
   @DF-RHF iter   5:  -649.61663149164121   -1.88793e-06   1.52960e-06 DIIS
   @DF-RHF iter   6:  -649.61663184317581   -3.51535e-07   8.39418e-07 DIIS
   @DF-RHF iter   7:  -649.61663195233962   -1.09164e-07   3.25090e-07 DIIS
   @DF-RHF iter   8:  -649.61663198076099   -2.84214e-08   1.66132e-07 DIIS
   @DF-RHF iter   9:  -649.61663198498763   -4.22665e-09   5.94713e-08 DIIS
   @DF-RHF iter  10:  -649.61663198563474   -6.47105e-10   1.95567e-08 DIIS
   @DF-RHF iter  11:  -649.61663198568510   -5.03633e-11   7.48160e-09 DIIS
   @DF-RHF iter  12:  -649.61663198569920   -1.40972e-11   3.51758e-09 DIIS
   @DF-RHF iter  13:  -649.61663198568192    1.72804e-11   1.55028e-09 DIIS
   @DF-RHF iter  14:  -649.61663198568897   -7.04858e-12   7.22316e-10 DIIS
   @DF-RHF iter  15:  -649.61663198570045   -1.14824e-11   2.91110e-10 DIIS
   @DF-RHF iter  16:  -649.61663198569113    9.32232e-12   1.30250e-10 DIIS
   @DF-RHF iter  17:  -649.61663198569408   -2.95586e-12   5.59273e-11 DIIS

  ==> Post-Iterations <==

    Orbital Energies (a.u.)
    -----------------------

    Doubly Occupied:                                                      

       1A    -26.188812     2A    -20.313199     3A    -15.448505  
       4A    -11.194572     5A    -11.165672     6A    -11.163262  
       7A    -11.148398     8A    -11.134371     9A    -11.120123  
      10A    -11.114854    11A    -11.112449    12A    -11.087137  
[...]
	 R(6,20)          =         2.046294	       1.082852
	 R(7,12)          =         2.530442	       1.339052
	 R(7,21)          =         2.046020	       1.082707
	 R(8,9)           =         2.723422	       1.441173
	 R(8,11)          =         2.642513	       1.398358
	 R(10,13)         =         2.381340	       1.260151
	 R(11,14)         =         2.592000	       1.371628
	 B(1,2,10)        =         2.140094	     122.618376
	 B(1,2,16)        =         2.097010	     120.149800
	 B(1,8,9)         =         2.116749	     121.280810
	 B(1,8,11)        =         1.988158	     113.913077
	 B(2,1,8)         =         2.152898	     123.351984
	 B(2,1,15)        =         2.070641	     118.638963
	 B(2,10,5)        =         1.980366	     113.466602
	 B(2,10,13)       =         2.154787	     123.460209
	 B(3,6,12)        =         2.169523	     124.304517
	 B(3,6,20)        =         2.087088	     119.581309
	 B(3,9,4)         =         1.999247	     114.548432
	 B(3,9,8)         =         2.117460	     121.321545
	 B(4,7,12)        =         2.176212	     124.687744
	 B(4,7,21)        =         2.083098	     119.352702
	 B(4,9,8)         =         2.166473	     124.129779
	 B(5,10,13)       =         2.148028	     123.072954
	 B(5,11,8)        =         2.176974	     124.731404
	 B(5,11,14)       =         2.042272	     117.013577
	 B(6,3,9)         =         2.109626	     120.872661
	 B(6,3,17)        =         2.081552	     119.264128
	 B(6,12,7)        =         2.009070	     115.111233
	 B(7,4,9)         =         2.102519	     120.465453
	 B(7,4,18)        =         2.083889	     119.398039
	 B(8,1,15)        =         2.058866	     117.964349
	 B(8,11,14)       =         2.062860	     118.193183
	 B(9,3,17)        =         2.091789	     119.850691
	 B(9,4,18)        =         2.096525	     120.122057
	 B(9,8,11)        =         2.177954	     124.787545
	 B(10,2,16)       =         2.045982	     117.226158
	 B(10,5,11)       =         2.127601	     121.902532
	 B(10,5,19)       =         2.072830	     118.764390
	 B(11,5,19)       =         2.082718	     119.330953
	 B(12,6,20)       =         2.026410	     116.104735
	 B(12,7,21)       =         2.023842	     115.957630
	 D(1,2,10,5)      =        -0.011354	      -0.650527
	 D(1,2,10,13)     =         3.133235	     179.521155
	 D(1,8,9,3)       =         0.520649	      29.830963
	 D(1,8,9,4)       =        -2.617639	    -149.979662
	 D(1,8,11,5)      =        -0.022685	      -1.299766
	 D(1,8,11,14)     =        -3.112754	    -178.347660
	 D(2,1,8,9)       =         3.120254	     178.777408
	 D(2,1,8,11)      =         0.004763	       0.272909
	 D(2,10,5,11)     =        -0.005669	      -0.324795
	 D(2,10,5,19)     =         3.126603	     179.141172
	 D(3,6,12,7)      =         0.002745	       0.157270
	 D(3,9,4,7)       =        -0.013888	      -0.795732
	 D(3,9,4,18)      =        -3.131202	    -179.404687
	 D(3,9,8,11)      =        -2.649998	    -151.833728
	 D(4,7,12,6)      =         0.004719	       0.270356
	 D(4,9,3,6)       =         0.020813	       1.192512
	 D(4,9,3,17)      =        -3.098149	    -177.510889
	 D(4,9,8,11)      =         0.494899	      28.355647
	 D(5,10,2,16)     =         3.115128	     178.483667
	 D(5,11,8,9)      =        -3.137116	    -179.743504
	 D(6,3,9,8)       =        -3.117772	    -178.635151
	 D(6,12,7,21)     =         3.137414	     179.760572
	 D(7,4,9,8)       =         3.124600	     179.026415
	 D(7,12,6,20)     =         3.124684	     179.031195
	 D(8,1,2,10)      =         0.011982	       0.686516
	 D(8,1,2,16)      =        -3.114071	    -178.423153
	 D(8,9,3,17)      =         0.046451	       2.661448
	 D(8,9,4,18)      =         0.007286	       0.417461
	 D(8,11,5,10)     =         0.023923	       1.370693
	 D(8,11,5,19)     =        -3.108298	    -178.092332
	 D(9,3,6,12)      =        -0.016337	      -0.936016
	 D(9,3,6,20)      =        -3.137635	    -179.773246
	 D(9,4,7,12)      =         0.001375	       0.078789
	 D(9,4,7,21)      =        -3.131039	    -179.395344
	 D(9,8,1,15)      =         0.021746	       1.245950
	 D(9,8,11,14)     =         0.056001	       3.208602
	 D(10,2,1,15)     =         3.110216	     178.202264
	 D(10,5,11,14)    =         3.114544	     178.450224
	 D(11,5,10,13)    =         3.132941	     179.504282
	 D(11,8,1,15)     =        -3.093745	    -177.258550
	 D(12,6,3,17)     =         3.102757	     177.774891
	 D(12,7,4,18)     =         3.118864	     178.697759
	 D(13,10,2,16)    =        -0.023469	      -1.344651
	 D(13,10,5,19)    =        -0.017973	      -1.029751
	 D(14,11,5,19)    =        -0.017677	      -1.012801
	 D(15,1,2,16)     =        -0.015837	      -0.907405
	 D(17,3,6,20)     =        -0.018541	      -1.062339
	 D(18,4,7,21)     =        -0.013550	      -0.776374
	 R(4,14)          =         5.338097	       2.824799

	Current energy   :      -652.3360864587

	Energy change for the previous step:
		Projected    :         0.0000391090
		Actual       :        -0.0000001578

	Performing BFGS update.
	Previous computed or guess Hessian on step 1.
	Steps to be used in Hessian update: 8 7
	Adding user-defined constraint: Fragment 1; Coordinate 59:
		Value =     0.520649; Fixed value    =     0.523600
		Force =     0.002066; Force constant =     0.700000
	Removing off-diagonal coupling between coordinate 59 and others.
	Taking RFO optimization step.
	Going to follow RFO solution 1.
	Using RFO vector 1.
	Norm of target step-size    0.02180
	Projected energy change by RFO approximation:        -0.0000057785

	Back-transformation to cartesian coordinates...
	Could not converge backtransformation.
	Using first guess instead.

	--- Internal Coordinate Step in ANG or DEG, aJ/ANG or AJ/DEG ---
	 ---------------------------------------------------------------------------
	   Coordinate                Previous        Force       Change         New 
	   ----------                --------       ------       ------       ------
	    1 R(1,2)          =      1.372922    -0.000707    -0.000072     1.372850
	    2 R(1,8)          =      1.408777     0.001234     0.000102     1.408879
	    3 R(1,15)         =      1.082368    -0.000558    -0.000059     1.082310
	    4 R(2,10)         =      1.436880     0.000254     0.000073     1.436953
	    5 R(2,16)         =      1.081021    -0.000478    -0.000057     1.080964
	    6 R(3,6)          =      1.382501    -0.000841    -0.000076     1.382426
	    7 R(3,9)          =      1.402189     0.000606     0.000066     1.402255
	    8 R(3,17)         =      1.079645    -0.000675    -0.000082     1.079563
	    9 R(4,7)          =      1.383448    -0.000633    -0.000060     1.383388
	   10 R(4,9)          =      1.402023     0.000273     0.000038     1.402061
	   11 R(4,18)         =      1.077228    -0.000921    -0.000123     1.077104
	   12 R(5,10)         =      1.434724    -0.000712    -0.000001     1.434723
	   13 R(5,11)         =      1.366355    -0.000022    -0.000057     1.366299
	   14 R(5,19)         =      1.079169    -0.000320    -0.000041     1.079128
	   15 R(6,12)         =      1.338996    -0.000751    -0.000078     1.338917
	   16 R(6,20)         =      1.082852    -0.000216    -0.000018     1.082835
	   17 R(7,12)         =      1.339052    -0.001151    -0.000098     1.338955
	   18 R(7,21)         =      1.082707    -0.000052    -0.000007     1.082700
	   19 R(8,9)          =      1.441173     0.000313     0.000014     1.441187
	   20 R(8,11)         =      1.398358    -0.001331    -0.000113     1.398244
	   21 R(10,13)        =      1.260151     0.000208    -0.000028     1.260122
	   22 R(11,14)        =      1.371628    -0.000966    -0.000030     1.371597
	   23 B(1,2,10)       =    122.618376     0.000001     0.007029   122.625405
	   24 B(1,2,16)       =    120.149800    -0.000004    -0.008558   120.141241
	   25 B(1,8,9)        =    121.280810     0.000003     0.004736   121.285546
	   26 B(1,8,11)       =    113.913077    -0.000005    -0.016372   113.896705
	   27 B(2,1,8)        =    123.351984     0.000002     0.008037   123.360020
	   28 B(2,1,15)       =    118.638963     0.000000    -0.001808   118.637155
	   29 B(2,10,5)       =    113.466602    -0.000005    -0.017509   113.449092
	   30 B(2,10,13)      =    123.460209     0.000002     0.009224   123.469434
	   31 B(3,6,12)       =    124.304517     0.000003     0.005055   124.309571
	   32 B(3,6,20)       =    119.581309    -0.000001    -0.001461   119.579848
	   33 B(3,9,4)        =    114.548432    -0.000005    -0.011599   114.536833
	   34 B(3,9,8)        =    121.321545     0.000008     0.011607   121.333152
	   35 B(4,7,12)       =    124.687744    -0.000002    -0.003058   124.684687
	   36 B(4,7,21)       =    119.352702     0.000001    -0.000757   119.351945
	   37 B(4,9,8)        =    124.129779    -0.000004    -0.000059   124.129721
	   38 B(5,10,13)      =    123.072954     0.000003     0.007969   123.080923
	   39 B(5,11,8)       =    124.731404     0.000002     0.014797   124.746201
	   40 B(5,11,14)      =    117.013577    -0.000005    -0.003794   117.009783
	   41 B(6,3,9)        =    120.872661    -0.000003     0.000885   120.873547
	   42 B(6,3,17)       =    119.264128    -0.000005    -0.015239   119.248889
	   43 B(6,12,7)       =    115.111233     0.000003     0.001375   115.112607
	   44 B(7,4,9)        =    120.465453     0.000003     0.008219   120.473673
	   45 B(7,4,18)       =    119.398039    -0.000000    -0.005321   119.392718
	   46 B(8,1,15)       =    117.964349    -0.000002    -0.012152   117.952197
	   47 B(8,11,14)      =    118.193183     0.000004     0.005519   118.198702
	   48 B(9,3,17)       =    119.850691     0.000008     0.014200   119.864891
	   49 B(9,4,18)       =    120.122057    -0.000002     0.001621   120.123678
	   50 B(9,8,11)       =    124.787545     0.000001     0.012284   124.799829
	   51 B(10,2,16)      =    117.226158     0.000003     0.001774   117.227932
	   52 B(10,5,11)      =    121.902532     0.000005     0.010191   121.912723
	   53 B(10,5,19)      =    118.764390     0.000004     0.007232   118.771622
	   54 B(11,5,19)      =    119.330953    -0.000009    -0.018092   119.312861
	   55 B(12,6,20)      =    116.104735    -0.000001     0.002667   116.107402
	   56 B(12,7,21)      =    115.957630     0.000001     0.005201   115.962831
	   57 D(1,2,10,5)     =     -0.650527     0.000000     0.028026    -0.622501
	   58 D(1,2,10,13)    =    179.521155     0.000001     0.119326   179.640481
	   59 D(1,8,9,3)      =     29.830963     0.000003     0.057513    29.888476
	   60 D(1,8,9,4)      =   -149.979662     0.000002     0.076343  -149.903318
	   61 D(1,8,11,5)     =     -1.299766     0.000002     0.326423    -0.973342
	   62 D(1,8,11,14)    =   -178.347660    -0.000002    -0.098215  -178.445874
	   63 D(2,1,8,9)      =    178.777408    -0.000001    -0.086351   178.691057
	   64 D(2,1,8,11)     =      0.272909    -0.000000    -0.112851     0.160058
	   65 D(2,10,5,11)    =     -0.324795     0.000001     0.173195    -0.151600
	   66 D(2,10,5,19)    =    179.141172     0.000001     0.094707   179.235879
	   67 D(3,6,12,7)     =      0.157270    -0.000001    -0.100078     0.057192
	   68 D(3,9,4,7)      =     -0.795732    -0.000001    -0.059825    -0.855557
	   69 D(3,9,4,18)     =   -179.404687    -0.000003    -0.297582  -179.702268
	   70 D(3,9,8,11)     =   -151.833728     0.000002     0.086563  -151.747166
	   71 D(4,7,12,6)     =      0.270356     0.000000    -0.025304     0.245052
	   72 D(4,9,3,6)      =      1.192512     0.000000    -0.055484     1.137028
	   73 D(4,9,3,17)     =   -177.510889     0.000000    -0.047342  -177.558231
	   74 D(4,9,8,11)     =     28.355647     0.000001     0.105392    28.461040
	   75 D(5,10,2,16)    =    178.483667     0.000000     0.046815   178.530481
	   76 D(5,11,8,9)     =   -179.743504     0.000003     0.298997  -179.444507
	   77 D(6,3,9,8)      =   -178.635151    -0.000001    -0.038366  -178.673518
	   78 D(6,12,7,21)    =    179.760572     0.000002     0.215193   179.975765
	   79 D(7,4,9,8)      =    179.026415     0.000000    -0.077467   178.948948
	   80 D(7,12,6,20)    =    179.031195     0.000002     0.372506   179.403701
	   81 D(8,1,2,10)     =      0.686516    -0.000001    -0.053084     0.633432
	   82 D(8,1,2,16)     =   -178.423153    -0.000000    -0.072494  -178.495647
	   83 D(8,9,3,17)     =      2.661448    -0.000001    -0.030224     2.631224
	   84 D(8,9,4,18)     =      0.417461    -0.000002    -0.315223     0.102237
	   85 D(8,11,5,10)    =      1.370693    -0.000002    -0.373241     0.997452
	   86 D(8,11,5,19)    =   -178.092332    -0.000002    -0.294473  -178.386806
	   87 D(9,3,6,12)     =     -0.936016     0.000001     0.144333    -0.791683
	   88 D(9,3,6,20)     =   -179.773246    -0.000002    -0.343678  -180.116925
	   89 D(9,4,7,12)     =      0.078789     0.000001     0.106723     0.185511
	   90 D(9,4,7,21)     =   -179.395344    -0.000001    -0.141376  -179.536721
	   91 D(9,8,1,15)     =      1.245950    -0.000000     0.072071     1.318020
	   92 D(9,8,11,14)    =      3.208602    -0.000001    -0.125641     3.082961
	   93 D(10,2,1,15)    =    178.202264    -0.000002    -0.212767   177.989496
	   94 D(10,5,11,14)   =    178.450224     0.000001     0.047053   178.497277
	   95 D(11,5,10,13)   =    179.504282     0.000001     0.082304   179.586586
	   96 D(11,8,1,15)    =   -177.258550     0.000001     0.045570  -177.212979
	   97 D(12,6,3,17)    =    177.774891     0.000001     0.136616   177.911507
	   98 D(12,7,4,18)    =    178.697759     0.000003     0.342845   179.040605
	   99 D(13,10,2,16)   =     -1.344651     0.000001     0.138114    -1.206537
	  100 D(13,10,5,19)   =     -1.029751     0.000000     0.003816    -1.025935
	  101 D(14,11,5,19)   =     -1.012801     0.000002     0.125821    -0.886980
	  102 D(15,1,2,16)    =     -0.907405    -0.000001    -0.232177    -1.139583
	  103 D(17,3,6,20)    =     -1.062339    -0.000002    -0.351396    -1.413734
	  104 D(18,4,7,21)    =     -0.776374     0.000001     0.094747    -0.681627
	  105 R(4,14)         =      2.824799    -0.000170     0.000715     2.825514
	 ---------------------------------------------------------------------------
	Successfully symmetrized geometry.
	 Forces used to impose fixed constraints are not included.
	  Forces zeroed: 59 

  ==> Convergence Check <==

  Measures of convergence in internal coordinates in au.
  Criteria marked as inactive (o), active & met (*), and active & unmet ( ).
  ---------------------------------------------------------------------------------------------
   Step     Total Energy     Delta E     MAX Force     RMS Force      MAX Disp      RMS Disp   
  ---------------------------------------------------------------------------------------------
    Convergence Criteria    1.00e-06 *    3.00e-04 *             o    1.20e-03 *             o
  ---------------------------------------------------------------------------------------------
      9    -652.33608646   -1.58e-07 *    1.62e-04 *    7.28e-05 o    6.51e-03      2.13e-03 o  ~
  ---------------------------------------------------------------------------------------------


  **** Optimization is complete! (in 9 steps) ****

  ==> Optimization Summary <==

  Measures of convergence in internal coordinates in au.
  --------------------------------------------------------------------------------------------------------------- ~
   Step         Total Energy             Delta E       MAX Force       RMS Force        MAX Disp        RMS Disp  ~
  --------------------------------------------------------------------------------------------------------------- ~
      1    -652.322755000300   -652.322755000300      0.02679105      0.00743573      0.03225495      0.00975412  ~
      2    -652.328913280699     -0.006158280398      0.01636752      0.00495326      0.03274470      0.00975614  ~
      3    -652.332833252748     -0.003919972050      0.00931863      0.00283373      0.05386832      0.00976230  ~
      4    -652.334830490944     -0.001997238196      0.00610311      0.00130850      0.08046416      0.00976604  ~
      5    -652.335645924857     -0.000815433913      0.00385571      0.00057387      0.08581413      0.00976586  ~
      6    -652.335990733098     -0.000344808241      0.00174218      0.00026754      0.07327195      0.00939351  ~
      7    -652.336086296973     -0.000095563874      0.00062330      0.00014138      0.01631335      0.00400003  ~
      8    -652.336086300892     -0.000000003919      0.00062073      0.00014480      0.01571012      0.00387878  ~
      9    -652.336086458724     -0.000000157832      0.00016650      0.00007461      0.00651429      0.00212731  ~
  --------------------------------------------------------------------------------------------------------------- ~

	Writing optimization data to binary file.
	Final energy is   -652.3360864587237
	Final (previous) structure:
	Cartesian Geometry (in Angstrom)
	    C    -1.3263301210   0.7761324631  -0.7360691381
	    C    -2.4119460729   1.3406479566  -0.1134330350
	    C     1.2606973463   0.0413176486  -1.9885360239
	    C     1.5763279629  -1.5302079026  -0.2576401786
	    C    -1.4712299417   0.7415271358   2.0128368545
	    C     2.3051196923  -0.5609437843  -2.6651255499
	    C     2.6131818549  -2.0616560793  -1.0035801609
	    C    -0.2660968051   0.1632935279  -0.0396599457
	    C     0.8401945805  -0.4388466240  -0.7400356012
	    C    -2.5569387893   1.3691014429   1.3158300749
	    C    -0.4193281629   0.1746215346   1.3502305434
	    N     2.9999953198  -1.6078819154  -2.2025484894
	    O    -3.5419191129   1.8904650669   1.9040256971
	    F     0.5798380211  -0.3689096688   2.1167830701
	    H    -1.2970130577   0.7641457169  -1.8179739760
	    H    -3.2091909261   1.7751026560  -0.7001663999
	    H     0.7794247883   0.9051224224  -2.4219536670
	    H     1.3234347834  -1.9765927186   0.6895687936
	    H    -1.4861740079   0.7268051196   3.0918019362
	    H     2.6150826210  -0.1705664364  -3.6264254361
	    H     3.1633770397  -2.9107689679  -0.6181615152
	Saving final (previous) structure.
			--------------------------
			 OPTKING Finished Execution 
			--------------------------

    Final optimized geometry and variables:
    Molecular point group: c1
    Full point group: C1

    Geometry (in Angstrom), charge = -1, multiplicity = 1:

    C           -1.326330120995     0.776132463144    -0.736069138070
    C           -2.411946072907     1.340647956632    -0.113433035046
    C            1.260697346326     0.041317648570    -1.988536023939
    C            1.576327962874    -1.530207902596    -0.257640178620
    C           -1.471229941713     0.741527135765     2.012836854464
    C            2.305119692320    -0.560943784339    -2.665125549864
    C            2.613181854867    -2.061656079329    -1.003580160942
    C           -0.266096805134     0.163293527906    -0.039659945660
    C            0.840194580490    -0.438846623954    -0.740035601180
    C           -2.556938789332     1.369101442878     1.315830074945
    C           -0.419328162945     0.174621534552     1.350230543446
    N            2.999995319840    -1.607881915435    -2.202548489445
    O           -3.541919112918     1.890465066905     1.904025697124
    F            0.579838021132    -0.368909668841     2.116783070124
    H           -1.297013057692     0.764145716886    -1.817973975959
    H           -3.209190926073     1.775102656030    -0.700166399896
    H            0.779424788290     0.905122422415    -2.421953666958
    H            1.323434783443    -1.976592718635     0.689568793621
    H           -1.486174007940     0.726805119575     3.091801936161
    H            2.615082621015    -0.170566436415    -3.626425436123
    H            3.163377039697    -2.910768967911    -0.618161515248

	Cleaning optimization helper files.

*** Psi4 exiting successfully. Buy a developer a beer!
