
    -----------------------------------------------------------------------
          Psi4: An Open-Source Ab Initio Electronic Structure Package
                               Psi4 1.1 release

                         Git: Rev {HEAD} add49b9 


    R. M. Parrish, L. A. Burns, D. G. A. Smith, A. C. Simmonett,
    A. E. DePrince III, E. G. Hohenstein, U. Bozkaya, A. Yu. Sokolov,
    R. Di Remigio, R. M. Richard, J. F. Gonthier, A. M. James,
    H. R. McAlexander, A. Kumar, M. Saitow, X. Wang, B. P. Pritchard,
    P. Verma, H. F. Schaefer III, K. Patkowski, R. A. King, E. F. Valeev,
    F. A. Evangelista, J. M. Turney, T. D. Crawford, and C. D. Sherrill,
    J. Chem. Theory Comput. in press (2017).
    (doi: 10.1021/acs.jctc.7b00174)

    -----------------------------------------------------------------------


    Psi4 started on: Saturday, 11 November 2017 06:12PM

    Process ID:  14994
    PSIDATADIR: /cbio/jclab/home/chayas/anaconda/envs/py35/share/psi4
    Memory:     500.0 MiB
    Threads:    8
    
  ==> Input File <==

--------------------------------------------------------------------------

memory 5 Gb

molecule phepyrF {
  symmetry C1
  0 1 
  C      1.885   -1.036   -0.112
  C      0.807   -0.463   0.561
  C      2.921   -1.631   0.608
  C      0.764   -0.484   1.955
  C      5.179   -1.622   2.869
  C      3.770   -3.513   3.339
  C      6.178   -2.255   3.592
  C      4.831   -4.062   4.041
  C      2.878   -1.652   2.002
  C      3.955   -2.270   2.745
  C      1.800   -1.079   2.676
  N      6.035   -3.463   4.183
  F      1.744   -1.089   4.016
  H      1.918   -1.020   -1.198
  H      0.000   -0.000   -0.000
  H      3.755   -2.073   0.068
  H      -0.076   -0.038   2.480
  H      5.362   -0.651   2.421
  H      2.829   -4.049   3.263
  H      7.150   -1.791   3.720
  H      4.738   -5.030   4.521
  units Angstrom
}

dih_string = "3 9 10 5 75"
set optking fixed_dihedral = $dih_string

optimize('MP2/aug-cc-PVTZ')
--------------------------------------------------------------------------

  Memory set to   4.657 GiB by Python driver.
gradient() will perform analytic gradient computation.

*** tstart() called on gpu-2-12.local
*** at Sat Nov 11 18:12:59 2017

    SCF Algorithm Type (re)set to DF.

*** tstart() called on gpu-2-12.local
*** at Sat Nov 11 18:12:59 2017

   => Loading Basis Set <=

    Name: AUG-CC-PVTZ
    Role: ORBITAL
    Keyword: BASIS
    atoms 1-11  entry C          line   221 file /cbio/jclab/home/chayas/anaconda/envs/py35/share/psi4/basis/aug-cc-pvtz.gbs 
    atoms 12    entry N          line   267 file /cbio/jclab/home/chayas/anaconda/envs/py35/share/psi4/basis/aug-cc-pvtz.gbs 
    atoms 13    entry F          line   359 file /cbio/jclab/home/chayas/anaconda/envs/py35/share/psi4/basis/aug-cc-pvtz.gbs 
    atoms 14-21 entry H          line    34 file /cbio/jclab/home/chayas/anaconda/envs/py35/share/psi4/basis/aug-cc-pvtz.gbs 


         ---------------------------------------------------------
                                   SCF
            by Justin Turney, Rob Parrish, and Andy Simmonett
                              RHF Reference
                        8 Threads,   4768 MiB Core
         ---------------------------------------------------------

  ==> Geometry <==

    Molecular point group: c1
    Full point group: C1

    Geometry (in Angstrom), charge = 0, multiplicity = 1:

       Center              X                  Y                   Z               Mass       
    ------------   -----------------  -----------------  -----------------  -----------------
           C         -1.368908555417     0.840487388244    -2.663534551195    12.000000000000
           C         -2.446908555417     1.413487388244    -1.990534551195    12.000000000000
           C         -0.332908555417     0.245487388244    -1.943534551195    12.000000000000
           C         -2.489908555417     1.392487388244    -0.596534551195    12.000000000000
           C          1.925091444583     0.254487388244     0.317465448805    12.000000000000
           C          0.516091444583    -1.636512611756     0.787465448805    12.000000000000
           C          2.924091444583    -0.378512611756     1.040465448805    12.000000000000
           C          1.577091444583    -2.185512611756     1.489465448805    12.000000000000
           C         -0.375908555417     0.224487388244    -0.549534551195    12.000000000000
           C          0.701091444583    -0.393512611756     0.193465448805    12.000000000000
           C         -1.453908555417     0.797487388244     0.124465448805    12.000000000000
           N          2.781091444583    -1.586512611756     1.631465448805    14.003074004780
           F         -1.509908555417     0.787487388244     1.464465448805    18.998403224000
           H         -1.335908555417     0.856487388244    -3.749534551195     1.007825032070
           H         -3.253908555417     1.876487388244    -2.551534551195     1.007825032070
           H          0.501091444583    -0.196512611756    -2.483534551195     1.007825032070
           H         -3.329908555417     1.838487388244    -0.071534551195     1.007825032070
           H          2.108091444583     1.225487388244    -0.130534551195     1.007825032070
           H         -0.424908555417    -2.172512611756     0.711465448805     1.007825032070
           H          3.896091444583     0.085487388244     1.168465448805     1.007825032070
           H          1.484091444583    -3.153512611756     1.969465448805     1.007825032070

  Running in c1 symmetry.

  Rotational constants: A =      0.06383  B =      0.01744  C =      0.01559 [cm^-1]
  Rotational constants: A =   1913.67996  B =    522.87458  C =    467.37679 [MHz]
  Nuclear repulsion =  714.581061932621083

  Charge       = 0
  Multiplicity = 1
  Electrons    = 90
  Nalpha       = 45
  Nbeta        = 45

  ==> Algorithm <==

  SCF Algorithm Type is DF.
  DIIS enabled.
  MOM disabled.
  Fractional occupation disabled.
  Guess Type is SAD.
  Energy threshold   = 1.00e-10
  Density threshold  = 1.00e-10
  Integral threshold = 0.00e+00

  ==> Primary Basis <==

  Basis Set: AUG-CC-PVTZ
    Blend: AUG-CC-PVTZ
    Number of shells: 254
    Number of basis function: 782
    Number of Cartesian functions: 915
    Spherical Harmonics?: true
    Max angular momentum: 3

   => Loading Basis Set <=

    Name: (AUG-CC-PVTZ AUX)
    Role: JKFIT
    Keyword: DF_BASIS_SCF
    atoms 1-11  entry C          line   161 file /cbio/jclab/home/chayas/anaconda/envs/py35/share/psi4/basis/aug-cc-pvtz-jkfit.gbs 
    atoms 12    entry N          line   223 file /cbio/jclab/home/chayas/anaconda/envs/py35/share/psi4/basis/aug-cc-pvtz-jkfit.gbs 
    atoms 13    entry F          line   347 file /cbio/jclab/home/chayas/anaconda/envs/py35/share/psi4/basis/aug-cc-pvtz-jkfit.gbs 
    atoms 14-21 entry H          line    69 file /cbio/jclab/home/chayas/anaconda/envs/py35/share/psi4/basis/aug-cc-pvtz-jkfit.gbs 

  ==> Pre-Iterations <==

   -------------------------------------------------------
    Irrep   Nso     Nmo     Nalpha   Nbeta   Ndocc  Nsocc
   -------------------------------------------------------
     A        782     782       0       0       0       0
   -------------------------------------------------------
    Total     782     782      45      45      45       0
   -------------------------------------------------------

  ==> Integral Setup <==

  ==> DFJK: Density-Fitted J/K Matrices <==

    J tasked:                  Yes
    K tasked:                  Yes
    wK tasked:                  No
    OpenMP threads:              8
    Integrals threads:           8
    Memory (MB):              3576
    Algorithm:                Disk
    Integral Cache:           NONE
    Schwarz Cutoff:          1E-12
    Fitting Condition:       1E-12

   => Auxiliary Basis Set <=

  Basis Set: (AUG-CC-PVTZ AUX)
    Blend: AUG-CC-PVTZ-JKFIT
    Number of shells: 502
    Number of basis function: 1720
    Number of Cartesian functions: 2143
    Spherical Harmonics?: true
    Max angular momentum: 4

  Minimum eigenvalue in the overlap matrix is 6.5780299431E-07.
  Using Symmetric Orthogonalization.

  SCF Guess: Superposition of Atomic Densities via on-the-fly atomic UHF.

  ==> Iterations <==

                           Total Energy        Delta E     RMS |[F,P]|

   @DF-RHF iter   0:  -581.14537376455746   -5.81145e+02   1.46367e-02 
   @DF-RHF iter   1:  -574.94014706515850    6.20523e+00   1.86548e-03 
   @DF-RHF iter   2:  -575.22582531653961   -2.85678e-01   6.54376e-04 DIIS
   @DF-RHF iter   3:  -575.26746930051718   -4.16440e-02   4.55050e-04 DIIS
   @DF-RHF iter   4:  -575.28100476906843   -1.35355e-02   1.31318e-04 DIIS
   @DF-RHF iter   5:  -575.28253899500487   -1.53423e-03   5.37513e-05 DIIS
   @DF-RHF iter   6:  -575.28280591797420   -2.66923e-04   1.50231e-05 DIIS
   @DF-RHF iter   7:  -575.28283878515515   -3.28672e-05   4.17315e-06 DIIS
   @DF-RHF iter   8:  -575.28284060943724   -1.82428e-06   1.61924e-06 DIIS
   @DF-RHF iter   9:  -575.28284085544169   -2.46004e-07   5.41637e-07 DIIS
   @DF-RHF iter  10:  -575.28284089513261   -3.96909e-08   2.34349e-07 DIIS
   @DF-RHF iter  11:  -575.28284090522698   -1.00944e-08   9.57603e-08 DIIS
   @DF-RHF iter  12:  -575.28284090746899   -2.24202e-09   4.28412e-08 DIIS
   @DF-RHF iter  13:  -575.28284090787110   -4.02110e-10   1.81033e-08 DIIS
   @DF-RHF iter  14:  -575.28284090794432   -7.32143e-11   5.75281e-09 DIIS
   @DF-RHF iter  15:  -575.28284090793954    4.77485e-12   2.36823e-09 DIIS
   @DF-RHF iter  16:  -575.28284090793989   -3.41061e-13   9.62545e-10 DIIS
   @DF-RHF iter  17:  -575.28284090795921   -1.93268e-11   4.10759e-10 DIIS
   @DF-RHF iter  18:  -575.28284090794455    1.46656e-11   1.93957e-10 DIIS
   @DF-RHF iter  19:  -575.28284090795069   -6.13909e-12   9.44780e-11 DIIS

  ==> Post-Iterations <==

    Orbital Energies (a.u.)
    -----------------------

    Doubly Occupied:                                                      

       1A    -26.321066     2A    -15.567688     3A    -11.340427  
       4A    -11.276769     5A    -11.276292     6A    -11.267304  
       7A    -11.260481     8A    -11.257675     9A    -11.256878  
      10A    -11.254544    11A    -11.249570    12A    -11.241826  
      13A    -11.241086    14A     -1.639352    15A     -1.252224  
      16A     -1.182731    17A     -1.113794    18A     -1.037144  
      19A     -1.033237    20A     -1.025510    21A     -0.891938  
      22A     -0.863324    23A     -0.853590    24A     -0.822667  
      25A     -0.755484    26A     -0.723354    27A     -0.712112  
      28A     -0.706045    29A     -0.668665    30A     -0.666964  
      31A     -0.652094    32A     -0.624907    33A     -0.612268  
      34A     -0.601144    35A     -0.587992    36A     -0.546902  
      37A     -0.533091    38A     -0.527947    39A     -0.513511  
      40A     -0.508394    41A     -0.421232    42A     -0.383698  
      43A     -0.356022    44A     -0.349627    45A     -0.345071  

    Virtual:                                                              

      46A      0.023592    47A      0.031235    48A      0.033652  
      49A      0.035582    50A      0.043670    51A      0.048351  
      52A      0.051662    53A      0.053166    54A      0.076836  
      55A      0.083178    56A      0.086916    57A      0.089924  
      58A      0.091624    59A      0.094077    60A      0.097075  
      61A      0.102673    62A      0.104203    63A      0.107587  
      64A      0.112096    65A      0.113474    66A      0.115298  
      67A      0.117158    68A      0.123214    69A      0.126155  
      70A      0.127165    71A      0.131985    72A      0.133833  
      73A      0.137160    74A      0.138743    75A      0.141513  
      76A      0.143709    77A      0.145243    78A      0.153270  
      79A      0.155743    80A      0.157900    81A      0.168628  
      82A      0.173083    83A      0.176283    84A      0.188212  
      85A      0.190833    86A      0.194609    87A      0.196735  
      88A      0.211013    89A      0.214215    90A      0.226597  
      91A      0.234758    92A      0.236046    93A      0.237771  
      94A      0.242361    95A      0.243505    96A      0.246851  
      97A      0.253076    98A      0.256500    99A      0.261559  
     100A      0.264220   101A      0.267737   102A      0.270948  
     103A      0.271698   104A      0.278488   105A      0.280071  
     106A      0.285784   107A      0.294494   108A      0.297690  
     109A      0.302620   110A      0.305920   111A      0.310259  
     112A      0.311095   113A      0.316583   114A      0.321208  
     115A      0.322974   116A      0.324451   117A      0.325783  
     118A      0.332337   119A      0.336649   120A      0.345772  
     121A      0.346836   122A      0.354651   123A      0.356774  
     124A      0.358190   125A      0.371837   126A      0.379380  
     127A      0.383615   128A      0.389483   129A      0.394169  
     130A      0.397349   131A      0.404951   132A      0.407391  
     133A      0.410774   134A      0.416413   135A      0.421145  
     136A      0.424430   137A      0.429655   138A      0.432784  
     139A      0.435476   140A      0.441883   141A      0.445800  
     142A      0.450544   143A      0.453134   144A      0.456624  
     145A      0.462750   146A      0.465454   147A      0.472822  
     148A      0.474546   149A      0.478020   150A      0.479623  
     151A      0.483856   152A      0.485868   153A      0.490797  
     154A      0.495288   155A      0.499748   156A      0.503055  
     157A      0.507534   158A      0.509871   159A      0.512898  
     160A      0.517224   161A      0.519286   162A      0.520110  
     163A      0.524824   164A      0.527786   165A      0.535850  
     166A      0.539819   167A      0.542679   168A      0.546970  
     169A      0.553709   170A      0.554504   171A      0.558915  
     172A      0.562344   173A      0.571052   174A      0.576560  
     175A      0.578714   176A      0.583142   177A      0.592501  
     178A      0.600694   179A      0.605768   180A      0.611496  
     181A      0.617542   182A      0.626550   183A      0.631670  
     184A      0.634917   185A      0.636011   186A      0.639784  
     187A      0.656578   188A      0.661430   189A      0.665297  
     190A      0.668561   191A      0.672446   192A      0.679523  
     193A      0.686576   194A      0.695905   195A      0.699892  
     196A      0.703932   197A      0.711128   198A      0.711840  
     199A      0.716060   200A      0.723846   201A      0.732940  
     202A      0.737484   203A      0.741250   204A      0.755512  
     205A      0.757172   206A      0.761420   207A      0.766753  
     208A      0.773088   209A      0.775856   210A      0.785231  
     211A      0.787845   212A      0.790375   213A      0.792082  
     214A      0.802757   215A      0.814353   216A      0.823496  
     217A      0.826174   218A      0.832298   219A      0.846960  
     220A      0.852307   221A      0.863264   222A      0.868660  
     223A      0.872813   224A      0.875244   225A      0.879200  
     226A      0.880283   227A      0.883537   228A      0.890255  
     229A      0.893528   230A      0.906431   231A      0.908348  
     232A      0.912093   233A      0.912704   234A      0.920447  
     235A      0.922104   236A      0.926221   237A      0.935103  
     238A      0.940151   239A      0.943125   240A      0.945876  
     241A      0.949852   242A      0.953085   243A      0.962153  
     244A      0.969097   245A      0.970982   246A      0.972075  
     247A      0.976841   248A      0.988789   249A      0.990850  
     250A      0.995058   251A      1.003031   252A      1.009520  
     253A      1.009821   254A      1.015642   255A      1.019111  
     256A      1.026523   257A      1.028626   258A      1.035049  
     259A      1.041026   260A      1.044546   261A      1.049812  
     262A      1.056741   263A      1.066692   264A      1.069475  
     265A      1.073188   266A      1.074544   267A      1.080597  
     268A      1.085485   269A      1.091404   270A      1.094106  
     271A      1.097892   272A      1.101508   273A      1.110954  
     274A      1.112653   275A      1.117826   276A      1.124788  
     277A      1.128332   278A      1.135825   279A      1.139992  
     280A      1.141355   281A      1.154977   282A      1.160775  
     283A      1.166282   284A      1.170558   285A      1.176560  
     286A      1.178892   287A      1.182512   288A      1.185246  
     289A      1.192583   290A      1.194928   291A      1.199948  
     292A      1.205266   293A      1.205793   294A      1.214515  
     295A      1.220680   296A      1.225818   297A      1.234088  
     298A      1.238360   299A      1.240338   300A      1.246988  
     301A      1.251510   302A      1.259216   303A      1.268814  
     304A      1.275072   305A      1.279801   306A      1.284682  
     307A      1.292810   308A      1.301768   309A      1.305925  
     310A      1.308527   311A      1.314098   312A      1.321604  
     313A      1.334134   314A      1.335509   315A      1.347003  
     316A      1.348970   317A      1.364333   318A      1.373198  
     319A      1.376155   320A      1.384100   321A      1.386004  
     322A      1.400552   323A      1.404062   324A      1.414146  
     325A      1.417909   326A      1.423799   327A      1.431248  
     328A      1.432931   329A      1.441410   330A      1.447991  
     331A      1.467294   332A      1.474749   333A      1.485240  
     334A      1.493186   335A      1.495811   336A      1.499643  
     337A      1.514873   338A      1.531480   339A      1.537420  
     340A      1.548385   341A      1.553175   342A      1.562599  
     343A      1.566839   344A      1.568722   345A      1.575410  
     346A      1.592291   347A      1.594775   348A      1.597627  
     349A      1.605756   350A      1.621466   351A      1.626697  
     352A      1.633529   353A      1.642087   354A      1.660487  
     355A      1.669047   356A      1.677208   357A      1.681598  
     358A      1.684642   359A      1.694930   360A      1.699166  
     361A      1.707736   362A      1.715284   363A      1.719440  
     364A      1.727454   365A      1.736005   366A      1.740958  
     367A      1.749533   368A      1.757804   369A      1.760735  
     370A      1.770882   371A      1.772952   372A      1.780590  
     373A      1.789495   374A      1.802140   375A      1.809941  
     376A      1.823865   377A      1.826674   378A      1.831346  
     379A      1.850328   380A      1.855416   381A      1.861122  
     382A      1.871817   383A      1.881473   384A      1.892219  
     385A      1.892804   386A      1.897234   387A      1.906960  
     388A      1.913247   389A      1.916950   390A      1.924668  
     391A      1.941011   392A      1.950256   393A      1.960638  
     394A      1.966440   395A      1.979099   396A      1.983888  
     397A      1.989054   398A      2.003787   399A      2.009150  
     400A      2.014477   401A      2.020785   402A      2.028849  
     403A      2.039065   404A      2.045680   405A      2.053180  
     406A      2.057776   407A      2.068475   408A      2.073587  
     409A      2.076852   410A      2.091356   411A      2.093011  
     412A      2.105478   413A      2.111248   414A      2.112579  
     415A      2.124729   416A      2.132053   417A      2.142889  
     418A      2.144122   419A      2.153687   420A      2.164749  
     421A      2.169822   422A      2.182763   423A      2.190293  
     424A      2.194169   425A      2.205021   426A      2.211100  
     427A      2.219167   428A      2.225659   429A      2.242860  
     430A      2.257781   431A      2.260311   432A      2.272002  
     433A      2.277097   434A      2.286511   435A      2.291642  
     436A      2.311437   437A      2.318811   438A      2.327186  
     439A      2.328678   440A      2.344662   441A      2.356511  
     442A      2.362559   443A      2.376109   444A      2.388565  
     445A      2.402327   446A      2.404794   447A      2.424054  
     448A      2.441120   449A      2.449827   450A      2.464625  
     451A      2.470937   452A      2.480414   453A      2.509379  
     454A      2.517429   455A      2.529315   456A      2.550974  
     457A      2.564384   458A      2.572946   459A      2.574650  
     460A      2.589287   461A      2.594466   462A      2.597113  
     463A      2.610267   464A      2.640121   465A      2.661937  
     466A      2.678111   467A      2.687624   468A      2.716165  
     469A      2.732628   470A      2.753661   471A      2.760989  
     472A      2.767694   473A      2.801215   474A      2.818571  
     475A      2.826108   476A      2.840193   477A      2.863257  
     478A      2.893629   479A      2.940018   480A      2.952034  
     481A      2.982264   482A      3.021217   483A      3.038762  
     484A      3.048996   485A      3.052038   486A      3.062016  
     487A      3.094756   488A      3.123963   489A      3.145128  
     490A      3.149442   491A      3.153031   492A      3.171332  
     493A      3.172175   494A      3.179189   495A      3.200509  
     496A      3.211479   497A      3.225545   498A      3.239416  
     499A      3.256401   500A      3.280725   501A      3.300820  
     502A      3.310178   503A      3.317955   504A      3.321927  
     505A      3.337356   506A      3.358054   507A      3.377069  
     508A      3.388395   509A      3.398027   510A      3.409767  
     511A      3.417656   512A      3.428793   513A      3.430058  
     514A      3.437980   515A      3.439197   516A      3.446782  
     517A      3.457410   518A      3.462142   519A      3.470887  
     520A      3.481402   521A      3.491613   522A      3.502734  
     523A      3.513770   524A      3.518409   525A      3.531331  
     526A      3.535218   527A      3.539325   528A      3.547837  
     529A      3.554227   530A      3.571916   531A      3.578641  
     532A      3.585069   533A      3.586082   534A      3.598723  
     535A      3.605294   536A      3.612931   537A      3.621398  
     538A      3.623642   539A      3.631224   540A      3.649283  
     541A      3.655412   542A      3.679770   543A      3.686674  
     544A      3.701756   545A      3.706951   546A      3.707777  
     547A      3.711592   548A      3.713692   549A      3.726702  
     550A      3.735563   551A      3.746004   552A      3.752329  
     553A      3.772932   554A      3.784710   555A      3.802060  
     556A      3.807626   557A      3.811947   558A      3.822116  
     559A      3.827559   560A      3.832936   561A      3.845176  
     562A      3.855118   563A      3.861524   564A      3.863486  
     565A      3.868050   566A      3.886637   567A      3.900700  
     568A      3.905885   569A      3.912220   570A      3.922289  
     571A      3.932212   572A      3.940248   573A      3.942842  
     574A      3.953434   575A      3.960992   576A      3.963599  
     577A      3.972370   578A      3.981039   579A      4.000008  
     580A      4.004675   581A      4.006796   582A      4.021688  
     583A      4.026873   584A      4.035970   585A      4.050816  
     586A      4.059616   587A      4.061828   588A      4.068775  
     589A      4.077456   590A      4.095373   591A      4.100580  
     592A      4.107231   593A      4.122103   594A      4.124231  
     595A      4.133616   596A      4.150431   597A      4.152024  
     598A      4.159258   599A      4.172588   600A      4.196788  
     601A      4.206116   602A      4.211222   603A      4.213639  
     604A      4.225810   605A      4.237272   606A      4.244519  
     607A      4.248360   608A      4.262295   609A      4.267591  
     610A      4.271881   611A      4.287883   612A      4.294914  
     613A      4.301005   614A      4.317635   615A      4.330980  
     616A      4.340419   617A      4.349842   618A      4.355387  
     619A      4.369141   620A      4.377751   621A      4.387773  
     622A      4.398573   623A      4.407673   624A      4.413636  
     625A      4.428540   626A      4.432323   627A      4.435893  
     628A      4.445681   629A      4.446234   630A      4.464935  
     631A      4.470031   632A      4.492192   633A      4.499665  
     634A      4.508601   635A      4.518863   636A      4.523071  
     637A      4.554951   638A      4.556402   639A      4.579232  
     640A      4.597557   641A      4.602475   642A      4.620069  
     643A      4.644286   644A      4.647956   645A      4.663367  
     646A      4.682357   647A      4.686463   648A      4.699781  
     649A      4.725211   650A      4.737505   651A      4.750611  
     652A      4.756932   653A      4.766134   654A      4.778656  
     655A      4.803927   656A      4.827995   657A      4.846890  
     658A      4.865433   659A      4.868045   660A      4.895604  
     661A      4.905307   662A      4.913441   663A      4.930021  
     664A      4.948785   665A      4.961879   666A      4.967317  
     667A      4.984510   668A      4.994772   669A      5.007755  
     670A      5.020306   671A      5.023609   672A      5.032269  
     673A      5.049877   674A      5.057007   675A      5.078408  
     676A      5.087112   677A      5.113094   678A      5.115717  
     679A      5.122245   680A      5.139631   681A      5.141288  
     682A      5.157837   683A      5.162850   684A      5.166922  
     685A      5.171583   686A      5.175388   687A      5.185433  
     688A      5.196156   689A      5.200591   690A      5.229234  
     691A      5.272372   692A      5.284875   693A      5.309836  
     694A      5.325877   695A      5.332623   696A      5.347138  
     697A      5.353584   698A      5.364564   699A      5.383268  
     700A      5.391771   701A      5.428452   702A      5.435630  
     703A      5.453844   704A      5.470658   705A      5.480686  
     706A      5.525406   707A      5.533652   708A      5.547693  
     709A      5.555047   710A      5.588185   711A      5.629850  
     712A      5.633541   713A      5.653812   714A      5.689479  
     715A      5.729181   716A      5.752106   717A      5.787745  
     718A      5.789778   719A      5.800801   720A      5.831920  
     721A      5.840261   722A      5.878476   723A      5.884335  
     724A      5.909326   725A      5.948518   726A      6.004025  
     727A      6.050042   728A      6.077644   729A      6.107291  
     730A      6.173764   731A      6.196284   732A      6.220672  
     733A      6.229744   734A      6.245745   735A      6.273774  
     736A      6.285124   737A      6.340896   738A      6.348461  
     739A      6.370662   740A      6.470352   741A      6.506578  
     742A      6.558245   743A      6.567245   744A      6.668633  
     745A      6.691579   746A      6.702173   747A      6.738013  
     748A      6.824182   749A      6.873419   750A      6.922266  
     751A      6.986976   752A      7.035162   753A      7.056854  
     754A      7.065143   755A      7.284824   756A      7.406705  
     757A      7.479565   758A      8.991012   759A      9.046241  
     760A      9.271977   761A      9.288394   762A      9.404472  
     763A      9.510696   764A      9.532944   765A      9.588041  
     766A      9.655988   767A      9.713825   768A     10.018441  
     769A     10.074449   770A     15.559606   771A     16.057293  
     772A     16.444052   773A     16.540316   774A     16.714768  
     775A     18.472285   776A     18.743055   777A     19.016636  
     778A     19.408610   779A     20.066052   780A     20.127882  
     781A     20.202783   782A     21.847596  

    Final Occupation by Irrep:
              A 
    DOCC [    45 ]

  Energy converged.

  @DF-RHF Final Energy:  -575.28284090795069

   => Energetics <=

    Nuclear Repulsion Energy =            714.5810619326210826
    One-Electron Energy =               -2201.0805264316572902
    Two-Electron Energy =                 911.2166235910854084
    DFT Exchange-Correlation Energy =       0.0000000000000000
    Empirical Dispersion Energy =           0.0000000000000000
    PCM Polarization Energy =               0.0000000000000000
    EFP Energy =                            0.0000000000000000
    Total Energy =                       -575.2828409079506855



Properties will be evaluated at   0.000000,   0.000000,   0.000000 Bohr

Properties computed using the SCF density matrix

  Nuclear Dipole Moment: (a.u.)
     X:     1.0832      Y:    -0.4009      Z:    -6.2023

  Electronic Dipole Moment: (a.u.)
     X:    -1.8034      Y:     0.8261      Z:     5.0758

  Dipole Moment: (a.u.)
     X:    -0.7201      Y:     0.4252      Z:    -1.1265     Total:     1.4030

  Dipole Moment: (Debye)
     X:    -1.8304      Y:     1.0807      Z:    -2.8633     Total:     3.5661


*** tstop() called on gpu-2-12.local at Sat Nov 11 18:20:25 2017
Module time:
	user time   =    1238.81 seconds =      20.65 minutes
	system time =      46.54 seconds =       0.78 minutes
	total time  =        446 seconds =       7.43 minutes
Total time:
	user time   =    1238.82 seconds =      20.65 minutes
	system time =      46.54 seconds =       0.78 minutes
	total time  =        446 seconds =       7.43 minutes

  //>>>>>>>>>>>>>>>>>>>>>>>>>>>>>>>>>>>//
  //               DFMP2               //
  //<<<<<<<<<<<<<<<<<<<<<<<<<<<<<<<<<<<//

   => Loading Basis Set <=

    Name: (AUG-CC-PVTZ AUX)
    Role: RIFIT
    Keyword: DF_BASIS_MP2
    atoms 1-11  entry C          line   147 file /cbio/jclab/home/chayas/anaconda/envs/py35/share/psi4/basis/aug-cc-pvtz-ri.gbs 
    atoms 12    entry N          line   205 file /cbio/jclab/home/chayas/anaconda/envs/py35/share/psi4/basis/aug-cc-pvtz-ri.gbs 
    atoms 13    entry F          line   321 file /cbio/jclab/home/chayas/anaconda/envs/py35/share/psi4/basis/aug-cc-pvtz-ri.gbs 
    atoms 14-21 entry H          line    29 file /cbio/jclab/home/chayas/anaconda/envs/py35/share/psi4/basis/aug-cc-pvtz-ri.gbs 

	 --------------------------------------------------------
	                          DF-MP2                         
	      2nd-Order Density-Fitted Moller-Plesset Theory     
	              RMP2 Wavefunction,   8 Threads             
	                                                         
	        Rob Parrish, Justin Turney, Andy Simmonett,      
	           Ed Hohenstein, and C. David Sherrill          
	 --------------------------------------------------------

   => Auxiliary Basis Set <=

  Basis Set: (AUG-CC-PVTZ AUX)
    Blend: AUG-CC-PVTZ-RI
    Number of shells: 476
    Number of basis function: 1746
    Number of Cartesian functions: 2208
    Spherical Harmonics?: true
    Max angular momentum: 4

	 --------------------------------------------------------
	                 NBF =   782, NAUX =  1746
	 --------------------------------------------------------
	   CLASS    FOCC     OCC    AOCC    AVIR     VIR    FVIR
	   PAIRS       0      45      45     737     737       0
	 --------------------------------------------------------


         ------------------------------------------------------------
                                     CPHF                           
                                  Rob Parrish                       
         ------------------------------------------------------------

  ==> Geometry <==

    Molecular point group: c1
    Full point group: C1

    Geometry (in Angstrom), charge = 0, multiplicity = 1:

       Center              X                  Y                   Z               Mass       
    ------------   -----------------  -----------------  -----------------  -----------------
           C         -1.368908555417     0.840487388244    -2.663534551195    12.000000000000
           C         -2.446908555417     1.413487388244    -1.990534551195    12.000000000000
           C         -0.332908555417     0.245487388244    -1.943534551195    12.000000000000
           C         -2.489908555417     1.392487388244    -0.596534551195    12.000000000000
           C          1.925091444583     0.254487388244     0.317465448805    12.000000000000
           C          0.516091444583    -1.636512611756     0.787465448805    12.000000000000
           C          2.924091444583    -0.378512611756     1.040465448805    12.000000000000
           C          1.577091444583    -2.185512611756     1.489465448805    12.000000000000
           C         -0.375908555417     0.224487388244    -0.549534551195    12.000000000000
           C          0.701091444583    -0.393512611756     0.193465448805    12.000000000000
           C         -1.453908555417     0.797487388244     0.124465448805    12.000000000000
           N          2.781091444583    -1.586512611756     1.631465448805    14.003074004780
           F         -1.509908555417     0.787487388244     1.464465448805    18.998403224000
           H         -1.335908555417     0.856487388244    -3.749534551195     1.007825032070
           H         -3.253908555417     1.876487388244    -2.551534551195     1.007825032070
           H          0.501091444583    -0.196512611756    -2.483534551195     1.007825032070
           H         -3.329908555417     1.838487388244    -0.071534551195     1.007825032070
           H          2.108091444583     1.225487388244    -0.130534551195     1.007825032070
           H         -0.424908555417    -2.172512611756     0.711465448805     1.007825032070
           H          3.896091444583     0.085487388244     1.168465448805     1.007825032070
           H          1.484091444583    -3.153512611756     1.969465448805     1.007825032070

  Nuclear repulsion =  714.581061932621083
  Reference energy  = -575.282840907950686

  ==> Basis Set <==

  Basis Set: AUG-CC-PVTZ
    Blend: AUG-CC-PVTZ
    Number of shells: 254
    Number of basis function: 782
    Number of Cartesian functions: 915
    Spherical Harmonics?: true
    Max angular momentum: 3

  ==> CGRSolver (by Rob Parrish) <==

   Number of roots    =         1
   Preconditioning    =    JACOBI
   Convergence cutoff =     1E-06
   Maximum iterations =       100

  ==> CPHFRHamiltonian (by Rob Parrish) <== 

  ==> DFJK: Density-Fitted J/K Matrices <==

    J tasked:                  Yes
    K tasked:                  Yes
    wK tasked:                  No
    OpenMP threads:              8
    Integrals threads:           8
    Memory (MB):              3576
    Algorithm:                Disk
    Integral Cache:           NONE
    Schwarz Cutoff:          1E-12
    Fitting Condition:       1E-12

   => Auxiliary Basis Set <=

  Basis Set: (AUG-CC-PVTZ AUX)
    Blend: AUG-CC-PVTZ-JKFIT
    Number of shells: 502
    Number of basis function: 1720
    Number of Cartesian functions: 2143
    Spherical Harmonics?: true
    Max angular momentum: 4

  ==> CPHF Iterations <==

  => Iterations <=

             Iter  Converged  Remaining    Residual
  CGR           1          0          1   9.740E-02
  CGR           2          0          1   2.966E-02
  CGR           3          0          1   1.886E-02
  CGR           4          0          1   9.387E-03
  CGR           5          0          1   3.634E-03
  CGR           6          0          1   1.295E-03
  CGR           7          0          1   3.704E-04
  CGR           8          0          1   1.224E-04
  CGR           9          0          1   4.300E-05
  CGR          10          0          1   1.147E-05
  CGR          11          0          1   4.780E-06
  CGR          12          0          1   1.968E-06
  CGR          13          1          0   9.166E-07

    CGRSolver converged.

  ==> DFCorrGrad: Density-Fitted Correlated Gradients <==

    OpenMP threads:              8
    Integrals threads:           8
    Memory (MB):              3576
    Schwarz Cutoff:          0E+00
    Fitting Condition:       1E-12

   => Auxiliary Basis Set <=

  Basis Set: (AUG-CC-PVTZ AUX)
    Blend: AUG-CC-PVTZ-JKFIT
    Number of shells: 502
    Number of basis function: 1720
    Number of Cartesian functions: 2143
    Spherical Harmonics?: true
    Max angular momentum: 4

	-----------------------------------------------------------
	 ==================> DF-MP2 Energies <==================== 
	-----------------------------------------------------------
	 Reference Energy          =    -575.2828409079506855 [Eh]
	 Singles Energy            =      -0.0000000000000002 [Eh]
	 Same-Spin Energy          =      -0.6075446363662791 [Eh]
	 Opposite-Spin Energy      =      -1.8318892463900367 [Eh]
	 Correlation Energy        =      -2.4394338827563158 [Eh]
	 Total Energy              =    -577.7222747907070470 [Eh]
	-----------------------------------------------------------
	 ================> DF-SCS-MP2 Energies <================== 
	-----------------------------------------------------------
	 SCS Same-Spin Scale       =       0.3333333333333333 [-]
	 SCS Opposite-Spin Scale   =       1.2000000000000000 [-]
	 SCS Same-Spin Energy      =      -0.2025148787887597 [Eh]
	 SCS Opposite-Spin Energy  =      -2.1982670956680441 [Eh]
	 SCS Correlation Energy    =      -2.4007819744568040 [Eh]
	 SCS Total Energy          =    -577.6836228824074624 [Eh]
	-----------------------------------------------------------


  -Total Gradient:
     Atom            X                  Y                   Z
    ------   -----------------  -----------------  -----------------
       1       -0.000498016935     0.000269065043     0.000779359963
       2       -0.004095308348     0.002282294322    -0.002088013856
       3        0.010622139448    -0.007699980547     0.005393883241
       4        0.001180689452    -0.000331211032    -0.003998394618
       5       -0.002666137130     0.006382589254    -0.003254380194
       6       -0.006201739677    -0.000337100524    -0.003371496498
       7       -0.003536287311     0.012061403226    -0.007374931798
       8       -0.013545786513    -0.001815084919    -0.003831568706
       9        0.005071492650    -0.002630679543     0.000221580130
      10       -0.003192963482     0.001332012347    -0.004056372716
      11        0.009213378222    -0.004531471976     0.023226546254
      12        0.013112955499    -0.007994890090     0.009086812757
      13       -0.002769209660     0.001352601401     0.002512331514
      14        0.000175535102     0.000148762522    -0.005311681233
      15       -0.003569486797     0.002120416830    -0.003850075214
      16        0.002786645195    -0.001041647348    -0.006656609618
      17       -0.005031577757     0.002549547103     0.000881261008
      18        0.003058624567     0.003568652593    -0.001129725600
      19       -0.003171732313    -0.004024876774     0.000759599414
      20        0.002566297198     0.000551870146     0.000717759638
      21        0.000490488578    -0.002212272036     0.001344116130


*** tstop() called on gpu-2-12.local at Sat Nov 11 18:48:49 2017
Module time:
	user time   =    5072.78 seconds =      84.55 minutes
	system time =     101.76 seconds =       1.70 minutes
	total time  =       2150 seconds =      35.83 minutes
Total time:
	user time   =    5072.79 seconds =      84.55 minutes
	system time =     101.76 seconds =       1.70 minutes
	total time  =       2150 seconds =      35.83 minutes

			-----------------------------------------
			 OPTKING 2.0: for geometry optimizations 
			  - R.A. King,  Bethel University        
			-----------------------------------------

	Internal coordinates to be generated automatically.
	Detected frag 1 with atoms:  1 2 3 4 5 6 7 8 9 10 11 12 13 14 15 16 17 18 19 20
	 21
	---Fragment 1 Bond Connectivity---
	 1 : 2 3 14
	 2 : 1 4 15
	 3 : 1 9 16
	 4 : 2 11 17
	 5 : 7 10 18
	 6 : 8 10 19
	 7 : 5 12 20
	 8 : 6 12 21
	 9 : 3 10 11
	 10 : 5 6 9
	 11 : 4 9 13
	 12 : 7 8
	 13 : 11
	 14 : 1
	 15 : 2
	 16 : 3
	 17 : 4
	 18 : 5
	 19 : 6
	 20 : 7
	 21 : 8

	Assuming in current code that numbering for constraints corresponds to unified fragment.
	Fixed dihedral atom list: 
	     3     9    10     5
	---Fragment 1 Geometry and Gradient---
	 C          -2.5868622707        1.5882909819       -5.0333508472
	 C          -4.6239870420        2.6711040561       -3.7615651598
	 C          -0.6291059970        0.4639039329       -3.6727480316
	 C          -4.7052452657        2.6314198073       -1.1272869306
	 C           3.6378956110        0.4809114681        0.5999227549
	 C           0.9752714898       -3.0925606492        1.4880940374
	 C           5.5257320178       -0.7152851741        1.9661947490
	 C           2.9802709168       -4.1300202962        2.8146817826
	 C          -0.7103642207        0.4242196841       -1.0384698023
	 C           1.3248708244       -0.7436310661        0.3655967144
	 C          -2.7474889920        1.5070327582        0.2352056112
	 N           5.2555011808       -2.9980743426        3.0830228935
	 F          -2.8533136554        1.4881354969        2.7674386293
	 H          -2.5245013083        1.6185266001       -7.0855934275
	 H          -6.1489960312        3.5460472556       -4.8217015204
	 H           0.9469255978       -0.3713550179       -4.6932001433
	 H          -6.2926152173        3.4742376625       -0.1351807108
	 H           3.9837154933        2.3158355431       -0.2466745526
	 H          -0.8029608013       -4.1054538565        1.3444748513
	 H           7.3625458189        0.1615477516        2.2080796940
	 H           2.8045263864       -5.9592751928        3.7217503264
	            -0.0004980169        0.0002690650        0.0007793600
	            -0.0040953083        0.0022822943       -0.0020880139
	             0.0106221394       -0.0076999805        0.0053938832
	             0.0011806895       -0.0003312110       -0.0039983946
	            -0.0026661371        0.0063825893       -0.0032543802
	            -0.0062017397       -0.0003371005       -0.0033714965
	            -0.0035362873        0.0120614032       -0.0073749318
	            -0.0135457865       -0.0018150849       -0.0038315687
	             0.0050714927       -0.0026306795        0.0002215801
	            -0.0031929635        0.0013320123       -0.0040563727
	             0.0092133782       -0.0045314720        0.0232265463
	             0.0131129555       -0.0079948901        0.0090868128
	            -0.0027692097        0.0013526014        0.0025123315
	             0.0001755351        0.0001487625       -0.0053116812
	            -0.0035694868        0.0021204168       -0.0038500752
	             0.0027866452       -0.0010416473       -0.0066566096
	            -0.0050315778        0.0025495471        0.0008812610
	             0.0030586246        0.0035686526       -0.0011297256
	            -0.0031717323       -0.0040248768        0.0007595994
	             0.0025662972        0.0005518701        0.0007177596
	             0.0004904886       -0.0022122720        0.0013441161

	Previous optimization step data not found.  Starting new optimization.

	---Fragment 1 Intrafragment Coordinates---
	 - Coordinate -           - BOHR/RAD -       - ANG/DEG -
	 R(1,2)           =         2.634350	       1.394038
	 R(1,3)           =         2.635962	       1.394891
	 R(1,14)          =         2.053412	       1.086619
	 R(2,4)           =         2.635830	       1.394821
	 R(2,15)          =         2.053063	       1.086434
	 R(3,9)           =         2.635830	       1.394821
	 R(3,16)          =         2.054959	       1.087437
	 R(4,11)          =         2.636938	       1.395407
	 R(4,17)          =         2.052891	       1.086343
	 R(5,7)           =         2.619449	       1.386153
	 R(5,10)          =         2.627641	       1.390488
	 R(5,18)          =         2.050187	       1.084912
	 R(6,8)           =         2.618431	       1.385614
	 R(6,10)          =         2.626726	       1.390004
	 R(6,19)          =         2.051509	       1.085612
	 R(7,12)          =         2.555671	       1.352403
	 R(7,20)          =         2.049690	       1.084649
	 R(8,12)          =         2.555383	       1.352250
	 R(8,21)          =         2.049349	       1.084469
	 R(9,10)          =         2.734494	       1.447032
	 R(9,11)          =         2.635263	       1.394521
	 R(11,13)         =         2.534514	       1.341207
	 B(1,2,4)         =         2.094553	     120.009056
	 B(1,2,15)        =         2.094721	     120.018646
	 B(1,3,9)         =         2.093692	     119.959722
	 B(1,3,16)        =         2.079074	     119.122177
	 B(2,1,3)         =         2.094940	     120.031219
	 B(2,1,14)        =         2.094311	     119.995189
	 B(2,4,11)        =         2.094306	     119.994870
	 B(2,4,17)        =         2.095140	     120.042665
	 B(3,1,14)        =         2.093934	     119.973570
	 B(3,9,10)        =         2.090528	     119.778448
	 B(3,9,11)        =         2.095181	     120.045019
	 B(4,2,15)        =         2.093912	     119.972298
	 B(4,11,9)        =         2.093699	     119.960108
	 B(4,11,13)       =         2.081063	     119.236128
	 B(5,7,12)        =         2.164734	     124.030099
	 B(5,7,20)        =         2.108365	     120.800399
	 B(5,10,6)        =         2.089537	     119.721638
	 B(5,10,9)        =         2.096621	     120.127523
	 B(6,8,12)        =         2.164542	     124.019144
	 B(6,8,21)        =         2.108586	     120.813098
	 B(6,10,9)        =         2.097027	     120.150798
	 B(7,5,10)        =         2.057945	     117.911535
	 B(7,5,18)        =         2.097318	     120.167458
	 B(7,12,8)        =         2.030769	     116.354494
	 B(8,6,10)        =         2.058844	     117.963074
	 B(8,6,19)        =         2.098522	     120.236447
	 B(9,3,16)        =         2.110419	     120.918077
	 B(9,11,13)       =         2.108422	     120.803676
	 B(10,5,18)       =         2.127922	     121.920975
	 B(10,6,19)       =         2.125819	     121.800466
	 B(10,9,11)       =         2.097476	     120.176533
	 B(11,4,17)       =         2.093740	     119.962450
	 B(12,7,20)       =         2.010086	     115.169424
	 B(12,8,21)       =         2.010054	     115.167616
	 D(1,2,4,11)      =        -0.000325	      -0.018609
	 D(1,2,4,17)      =        -3.141151	    -179.974682
	 D(1,3,9,10)      =        -3.141334	    -179.985190
	 D(1,3,9,11)      =         0.000325	       0.018608
	 D(2,1,3,9)       =        -0.000348	      -0.019945
	 D(2,1,3,16)      =        -3.140969	    -179.964243
	 D(2,4,11,9)      =         0.000301	       0.017261
	 D(2,4,11,13)     =         3.140029	     179.910408
	 D(3,1,2,4)       =         0.000348	       0.019955
	 D(3,1,2,15)      =        -3.141142	    -179.974167
	 D(3,9,10,5)      =         1.308979	      74.998947
	 D(3,9,10,6)      =        -1.833902	    -105.074868
	 D(3,9,11,4)      =        -0.000301	      -0.017270
	 D(3,9,11,13)     =        -3.139999	    -179.908714
	 D(4,2,1,14)      =         3.141002	     179.966134
	 D(4,11,9,10)     =         3.141358	     179.986543
	 D(5,7,12,8)      =        -0.000707	      -0.040515
	 D(5,10,6,8)      =         0.000105	       0.006025
	 D(5,10,6,19)     =        -3.140769	    -179.952814
	 D(5,10,9,11)     =        -1.832680	    -105.004855
	 D(6,8,12,7)      =         0.000786	       0.045062
	 D(6,10,5,7)      =        -0.000034	      -0.001942
	 D(6,10,5,18)     =        -3.140489	    -179.936769
	 D(6,10,9,11)     =         1.307624	      74.921329
	 D(7,5,10,9)      =         3.140276	     179.924561
	 D(7,12,8,21)     =         3.139999	     179.908719
	 D(8,6,10,9)      =        -3.140204	    -179.920460
	 D(8,12,7,20)     =         3.139130	     179.858916
	 D(9,3,1,14)      =        -3.141002	    -179.966136
	 D(9,10,5,18)     =        -0.000179	      -0.010267
	 D(9,10,6,19)     =         0.002107	       0.120700
	 D(9,11,4,17)     =         3.141128	     179.973370
	 D(10,5,7,12)     =         0.000352	       0.020178
	 D(10,5,7,20)     =        -3.139391	    -179.873857
	 D(10,6,8,12)     =        -0.000506	      -0.028984
	 D(10,6,8,21)     =        -3.139591	    -179.885302
	 D(10,9,3,16)     =        -0.000731	      -0.041910
	 D(10,9,11,13)    =         0.001660	       0.095099
	 D(11,4,2,15)     =         3.141165	     179.975516
	 D(11,9,3,16)     =         3.140927	     179.961888
	 D(12,7,5,18)     =         3.140828	     179.956195
	 D(12,8,6,19)     =         3.140380	     179.930525
	 D(13,11,4,17)    =        -0.002330	      -0.133484
	 D(14,1,2,15)     =        -0.000488	      -0.027988
	 D(14,1,3,16)     =         0.001563	       0.089566
	 D(15,2,4,17)     =         0.000339	       0.019443
	 D(18,5,7,20)     =         0.001085	       0.062161
	 D(19,6,8,21)     =         0.001295	       0.074207
	 R(6,13)          =         6.105536	       3.230910

	Current energy   :      -577.7222747907

	Generating empirical Hessian (Schlegel '84) for each fragment.
	Adding user-defined constraint: Fragment 1; Coordinate 67:
		Value =     1.308979; Fixed value    =     1.308997
		Force =     0.000009; Force constant =     0.500000
	Removing off-diagonal coupling between coordinate 67 and others.
	Taking RFO optimization step.
	Going to follow RFO solution 1.
	Using RFO vector 1.

	Determining step-restricting scale parameter for RS-RFO.
	Maximum step size allowed    0.10000

	 Iter      |step|        alpha        rfo_root  
	------------------------------------------------
	    0     0.14719       1.00000           1
	    1     0.12473       7.60760           1
	    2     0.10712      19.44913           1
	    3     0.10078      25.90088           1
	    4     0.10001      26.79444           1
	    5     0.10000      26.80749           1
	------------------------------------------------
	Norm of target step-size    0.10000
	Projected energy change by RFO approximation:        -0.0042272546

	Back-transformation to cartesian coordinates...
	Could not converge backtransformation.
	Using first guess instead.

	--- Internal Coordinate Step in ANG or DEG, aJ/ANG or AJ/DEG ---
	 ---------------------------------------------------------------------------
	   Coordinate                Previous        Force       Change         New 
	   ----------                --------       ------       ------       ------
	    1 R(1,2)          =      1.394038    -0.048365    -0.005276     1.388762
	    2 R(1,3)          =      1.394891    -0.051153    -0.005534     1.389357
	    3 R(1,14)         =      1.086619    -0.043800    -0.005994     1.080625
	    4 R(2,4)          =      1.394821    -0.067451    -0.007516     1.387305
	    5 R(2,15)         =      1.086434    -0.045668    -0.006220     1.080214
	    6 R(3,9)          =      1.394821    -0.030055    -0.003126     1.391695
	    7 R(3,16)         =      1.087437    -0.048330    -0.006586     1.080851
	    8 R(4,11)         =      1.395407    -0.103832    -0.011467     1.383941
	    9 R(4,17)         =      1.086343    -0.044185    -0.005921     1.080422
	   10 R(5,7)          =      1.386153     0.003536     0.000359     1.386511
	   11 R(5,10)         =      1.390488    -0.024752    -0.002206     1.388281
	   12 R(5,18)         =      1.084912    -0.034408    -0.004687     1.080225
	   13 R(6,8)          =      1.385614     0.003408     0.000370     1.385984
	   14 R(6,10)         =      1.390004    -0.020478    -0.001702     1.388302
	   15 R(6,19)         =      1.085612    -0.038584    -0.005266     1.080346
	   16 R(7,12)         =      1.352403    -0.124680    -0.012404     1.339999
	   17 R(7,20)         =      1.084649    -0.021590    -0.002939     1.081710
	   18 R(8,12)         =      1.352250    -0.121020    -0.012039     1.340211
	   19 R(8,21)         =      1.084469    -0.020824    -0.002824     1.081645
	   20 R(9,10)         =      1.447032     0.153887     0.019726     1.466758
	   21 R(9,11)         =      1.394521    -0.061739    -0.006622     1.387899
	   22 R(11,13)        =      1.341207    -0.021477    -0.001928     1.339279
	   23 B(1,2,4)        =    120.009056     0.000044     0.098141   120.107197
	   24 B(1,2,15)       =    120.018646     0.000068     0.197918   120.216563
	   25 B(1,3,9)        =    119.959722     0.000286     0.682609   120.642331
	   26 B(1,3,16)       =    119.122177     0.000195     0.581645   119.703822
	   27 B(2,1,3)        =    120.031219    -0.000094    -0.176200   119.855019
	   28 B(2,1,14)       =    119.995189     0.000049     0.092447   120.087636
	   29 B(2,4,11)       =    119.994870    -0.000272    -0.642475   119.352395
	   30 B(2,4,17)       =    120.042665     0.000288     0.736433   120.779098
	   31 B(3,1,14)       =    119.973570     0.000045     0.083742   120.057311
	   32 B(3,9,10)       =    119.778448     0.000490     0.981160   120.759608
	   33 B(3,9,11)       =    120.045019    -0.000745    -1.538214   118.506805
	   34 B(4,2,15)       =    119.972298    -0.000112    -0.296062   119.676236
	   35 B(4,11,9)       =    119.960108     0.000780     1.576099   121.536208
	   36 B(4,11,13)      =    119.236128    -0.000104    -0.222224   119.013904
	   37 B(5,7,12)       =    124.030099    -0.000020    -0.125066   123.905034
	   38 B(5,7,20)       =    120.800399    -0.000047    -0.093627   120.706772
	   39 B(5,10,6)       =    119.721638    -0.000801    -1.534566   118.187072
	   40 B(5,10,9)       =    120.127523     0.000381     0.717728   120.845251
	   41 B(6,8,12)       =    124.019144    -0.000019    -0.115565   123.903579
	   42 B(6,8,21)       =    120.813098    -0.000048    -0.100117   120.712981
	   43 B(6,10,9)       =    120.150798     0.000420     0.816790   120.967588
	   44 B(7,5,10)       =    117.911535     0.000352     0.844066   118.755601
	   45 B(7,5,18)       =    120.167458     0.000012     0.090547   120.258005
	   46 B(7,12,8)       =    116.354494     0.000154     0.117675   116.472169
	   47 B(8,6,10)       =    117.963074     0.000335     0.813383   118.776458
	   48 B(8,6,19)       =    120.236447     0.000005     0.063373   120.299820
	   49 B(9,3,16)       =    120.918077    -0.000481    -1.264231   119.653846
	   50 B(9,11,13)      =    120.803676    -0.000675    -1.354012   119.449664
	   51 B(10,5,18)      =    121.920975    -0.000364    -0.934608   120.986366
	   52 B(10,6,19)      =    121.800466    -0.000340    -0.876787   120.923679
	   53 B(10,9,11)      =    120.176533     0.000255     0.556955   120.733488
	   54 B(11,4,17)      =    119.962450    -0.000016    -0.093948   119.868502
	   55 B(12,7,20)      =    115.169424     0.000067     0.218615   115.388040
	   56 B(12,8,21)      =    115.167616     0.000068     0.215735   115.383351
	   57 D(1,2,4,11)     =     -0.018609    -0.000000    -0.002871    -0.021480
	   58 D(1,2,4,17)     =   -179.974682    -0.000001    -0.021329  -179.996010
	   59 D(1,3,9,10)     =   -179.985190    -0.000002    -0.077490  -180.062679
	   60 D(1,3,9,11)     =      0.018608     0.000000     0.031882     0.050489
	   61 D(2,1,3,9)      =     -0.019945     0.000001     0.013675    -0.006270
	   62 D(2,1,3,16)     =   -179.964243    -0.000002    -0.052940  -180.017183
	   63 D(2,4,11,9)     =      0.017261     0.000002     0.050674     0.067935
	   64 D(2,4,11,13)    =    179.910408    -0.000001    -0.015723   179.894685
	   65 D(3,1,2,4)      =      0.019955    -0.000001    -0.028604    -0.008649
	   66 D(3,1,2,15)     =   -179.974167    -0.000001    -0.012429  -179.986596
	   67 D(3,9,10,5)     =     74.998947    -0.000011    -0.111853    74.887094
	   68 D(3,9,10,6)     =   -105.074868    -0.000011    -0.148894  -105.223762
	   69 D(3,9,11,4)     =     -0.017270    -0.000002    -0.064673    -0.081943
	   70 D(3,9,11,13)    =   -179.908714     0.000001     0.000760  -179.907953
	   71 D(4,2,1,14)     =    179.966134    -0.000001    -0.041279   179.924855
	   72 D(4,11,9,10)    =    179.986543     0.000001     0.044653   180.031195
	   73 D(5,7,12,8)     =     -0.040515     0.000001     0.012428    -0.028088
	   74 D(5,10,6,8)     =      0.006025    -0.000003    -0.099429    -0.093404
	   75 D(5,10,6,19)    =   -179.952814    -0.000002    -0.065693  -180.018507
	   76 D(5,10,9,11)    =   -105.004855    -0.000013    -0.223748  -105.228604
	   77 D(6,8,12,7)     =      0.045062    -0.000000    -0.005688     0.039375
	   78 D(6,10,5,7)     =     -0.001942     0.000004     0.105547     0.103606
	   79 D(6,10,5,18)    =   -179.936769     0.000003     0.100407  -179.836363
	   80 D(6,10,9,11)    =     74.921329    -0.000013    -0.260789    74.660540
	   81 D(7,5,10,9)     =    179.924561     0.000004     0.071201   179.995762
	   82 D(7,12,8,21)    =    179.908719     0.000001     0.023045   179.931763
	   83 D(8,6,10,9)     =   -179.920460    -0.000004    -0.064962  -179.985422
	   84 D(8,12,7,20)    =    179.858916    -0.000001    -0.029590   179.829327
	   85 D(9,3,1,14)     =   -179.966136     0.000001     0.026341  -179.939795
	   86 D(9,10,5,18)    =     -0.010267     0.000004     0.066061     0.055794
	   87 D(9,10,6,19)    =      0.120700    -0.000003    -0.031226     0.089474
	   88 D(9,11,4,17)    =    179.973370     0.000002     0.069332   180.042701
	   89 D(10,5,7,12)    =      0.020178    -0.000002    -0.064088    -0.043911
	   90 D(10,5,7,20)    =   -179.873857    -0.000001    -0.020232  -179.894089
	   91 D(10,6,8,12)    =     -0.028984     0.000002     0.050796     0.021812
	   92 D(10,6,8,21)    =   -179.885302     0.000001     0.020198  -179.865104
	   93 D(10,9,3,16)    =     -0.041910     0.000001    -0.009862    -0.051772
	   94 D(10,9,11,13)   =      0.095099     0.000003     0.110086     0.205185
	   95 D(11,4,2,15)    =    179.975516    -0.000001    -0.018929   179.956587
	   96 D(11,9,3,16)    =    179.961888     0.000003     0.099509   180.061397
	   97 D(12,7,5,18)    =    179.956195    -0.000002    -0.059687   179.896508
	   98 D(12,8,6,19)    =    179.930525     0.000000     0.016871   179.947396
	   99 D(13,11,4,17)   =     -0.133484     0.000000     0.002935    -0.130549
	  100 D(14,1,2,15)    =     -0.027988    -0.000001    -0.025104    -0.053092
	  101 D(14,1,3,16)    =      0.089566    -0.000001    -0.040274     0.049292
	  102 D(15,2,4,17)    =      0.019443    -0.000002    -0.037387    -0.017944
	  103 D(18,5,7,20)    =      0.062161    -0.000001    -0.015831     0.046329
	  104 D(19,6,8,21)    =      0.074207    -0.000001    -0.013727     0.060480
	  105 R(6,13)         =      3.230910    -0.000311    -0.000186     3.230724
	 ---------------------------------------------------------------------------
	Successfully symmetrized geometry.
	 Forces used to impose fixed constraints are not included.
	  Forces zeroed: 67 

  ==> Convergence Check <==

  Measures of convergence in internal coordinates in au.
  Criteria marked as inactive (o), active & met (*), and active & unmet ( ).
  --------------------------------------------------------------------------------------------- ~
   Step     Total Energy     Delta E     MAX Force     RMS Force      MAX Disp      RMS Disp    ~
  --------------------------------------------------------------------------------------------- ~
    Convergence Criteria    1.00e-06 *    3.00e-04 *             o    1.20e-03 *             o  ~
  --------------------------------------------------------------------------------------------- ~
      1    -577.72227479   -5.78e+02      1.87e-02      4.41e-03 o    3.73e-02      9.76e-03 o  ~
  ---------------------------------------------------------------------------------------------

	Writing optimization data to binary file.
	Structure for next step:
	Cartesian Geometry (in Angstrom)
	    C    -1.3864529080   0.8521055549  -2.6709912217
	    C    -2.4589307714   1.4198941280  -1.9956642489
	    C    -0.3535733427   0.2598025412  -1.9549949887
	    C    -2.4996656214   1.3959588494  -0.6091637101
	    C     1.9353376387   0.2355753983   0.3301449746
	    C     0.5369109357  -1.6355482144   0.7978896653
	    C     2.9337400913  -0.3952836199   1.0565215602
	    C     1.5956491834  -2.1847651910   1.5038539240
	    C    -0.3814253171   0.2289810908  -0.5639197878
	    C     0.7069364444  -0.3968439951   0.1944944117
	    C    -1.4635145462   0.8017005399   0.0897927364
	    N     2.7886697739  -1.5905763680   1.6445920156
	    F    -1.5087261707   0.7842996131   1.4281956630
	    H    -1.3556368249   0.8698536657  -3.7510307364
	    H    -3.2652362515   1.8817498019  -2.5465027019
	    H     0.4797999814  -0.1816106529  -2.4830885288
	    H    -3.3287570947   1.8343409595  -0.0727496028
	    H     2.1161185919   1.2014766287  -0.1184511423
	    H    -0.4007325682  -2.1666168529   0.7208331413
	    H     3.9021333961   0.0696428399   1.1836225458
	    H     1.4982757160  -3.1489015641   1.9843904562
			--------------------------
			 OPTKING Finished Execution 
			--------------------------

    Structure for next step:
    Molecular point group: c1
    Full point group: C1

    Geometry (in Angstrom), charge = 0, multiplicity = 1:

    C           -1.386510095600     0.852283766223    -2.666227607789
    C           -2.458987958999     1.420072339282    -1.990900634992
    C           -0.353630530353     0.259980752565    -1.950231374765
    C           -2.499722809066     1.396137060769    -0.604400096152
    C            1.935280451102     0.235753609676     0.334908588557
    C            0.536853748076    -1.635370003053     0.802653279235
    C            2.933682903661    -0.395105408537     1.061285174171
    C            1.595591995767    -2.184586979683     1.508617537966
    C           -0.381482504722     0.229159302113    -0.559156173845
    C            0.706879256752    -0.396665783743     0.199258025655
    C           -1.463571733827     0.801878751200     0.094556350354
    N            2.788612586261    -1.590398156668     1.649355629534
    F           -1.508783358314     0.784477824444     1.432959276969
    H           -1.355694012521     0.870031876994    -3.746267122482
    H           -3.265293439144     1.881928013254    -2.541739087932
    H            0.479742793801    -0.181432441616    -2.478324914902
    H           -3.328814282306     1.834519170837    -0.067985988892
    H            2.116061404211     1.201654840074    -0.113687528325
    H           -0.400789755883    -2.166438641529     0.725596755221
    H            3.902076208417     0.069821051201     1.188386159718
    H            1.498218528367    -3.148723352787     1.989154070091

gradient() will perform analytic gradient computation.

*** tstart() called on gpu-2-12.local
*** at Sat Nov 11 18:48:50 2017

    SCF Algorithm Type (re)set to DF.

*** tstart() called on gpu-2-12.local
*** at Sat Nov 11 18:48:50 2017

   => Loading Basis Set <=

    Name: AUG-CC-PVTZ
    Role: ORBITAL
    Keyword: BASIS
    atoms 1-11  entry C          line   221 file /cbio/jclab/home/chayas/anaconda/envs/py35/share/psi4/basis/aug-cc-pvtz.gbs 
    atoms 12    entry N          line   267 file /cbio/jclab/home/chayas/anaconda/envs/py35/share/psi4/basis/aug-cc-pvtz.gbs 
    atoms 13    entry F          line   359 file /cbio/jclab/home/chayas/anaconda/envs/py35/share/psi4/basis/aug-cc-pvtz.gbs 
    atoms 14-21 entry H          line    34 file /cbio/jclab/home/chayas/anaconda/envs/py35/share/psi4/basis/aug-cc-pvtz.gbs 


         ---------------------------------------------------------
                                   SCF
            by Justin Turney, Rob Parrish, and Andy Simmonett
                              RHF Reference
                        8 Threads,   4768 MiB Core
         ---------------------------------------------------------

  ==> Geometry <==

    Molecular point group: c1
    Full point group: C1

    Geometry (in Angstrom), charge = 0, multiplicity = 1:

       Center              X                  Y                   Z               Mass       
    ------------   -----------------  -----------------  -----------------  -----------------
           C         -1.386510095600     0.852283766223    -2.666227607789    12.000000000000
           C         -2.458987958999     1.420072339282    -1.990900634992    12.000000000000
           C         -0.353630530353     0.259980752565    -1.950231374765    12.000000000000
           C         -2.499722809066     1.396137060769    -0.604400096152    12.000000000000
           C          1.935280451102     0.235753609676     0.334908588557    12.000000000000
           C          0.536853748076    -1.635370003053     0.802653279235    12.000000000000
           C          2.933682903661    -0.395105408537     1.061285174171    12.000000000000
           C          1.595591995767    -2.184586979683     1.508617537966    12.000000000000
           C         -0.381482504722     0.229159302113    -0.559156173845    12.000000000000
           C          0.706879256752    -0.396665783743     0.199258025655    12.000000000000
           C         -1.463571733827     0.801878751200     0.094556350354    12.000000000000
           N          2.788612586261    -1.590398156668     1.649355629534    14.003074004780
           F         -1.508783358314     0.784477824444     1.432959276969    18.998403224000
           H         -1.355694012521     0.870031876994    -3.746267122482     1.007825032070
           H         -3.265293439144     1.881928013254    -2.541739087932     1.007825032070
           H          0.479742793801    -0.181432441616    -2.478324914902     1.007825032070
           H         -3.328814282306     1.834519170837    -0.067985988892     1.007825032070
           H          2.116061404211     1.201654840074    -0.113687528325     1.007825032070
           H         -0.400789755883    -2.166438641529     0.725596755221     1.007825032070
           H          3.902076208417     0.069821051201     1.188386159718     1.007825032070
           H          1.498218528367    -3.148723352787     1.989154070091     1.007825032070

  Running in c1 symmetry.

  Rotational constants: A =      0.06507  B =      0.01724  C =      0.01546 [cm^-1]
  Rotational constants: A =   1950.86072  B =    516.90306  C =    463.49821 [MHz]
  Nuclear repulsion =  715.089594617384591

  Charge       = 0
  Multiplicity = 1
  Electrons    = 90
  Nalpha       = 45
  Nbeta        = 45

  ==> Algorithm <==

  SCF Algorithm Type is DF.
  DIIS enabled.
  MOM disabled.
  Fractional occupation disabled.
  Guess Type is READ.
  Energy threshold   = 1.00e-10
  Density threshold  = 1.00e-10
  Integral threshold = 0.00e+00

  ==> Primary Basis <==

  Basis Set: AUG-CC-PVTZ
    Blend: AUG-CC-PVTZ
    Number of shells: 254
    Number of basis function: 782
    Number of Cartesian functions: 915
    Spherical Harmonics?: true
    Max angular momentum: 3

   => Loading Basis Set <=

    Name: (AUG-CC-PVTZ AUX)
    Role: JKFIT
    Keyword: DF_BASIS_SCF
    atoms 1-11  entry C          line   161 file /cbio/jclab/home/chayas/anaconda/envs/py35/share/psi4/basis/aug-cc-pvtz-jkfit.gbs 
    atoms 12    entry N          line   223 file /cbio/jclab/home/chayas/anaconda/envs/py35/share/psi4/basis/aug-cc-pvtz-jkfit.gbs 
    atoms 13    entry F          line   347 file /cbio/jclab/home/chayas/anaconda/envs/py35/share/psi4/basis/aug-cc-pvtz-jkfit.gbs 
    atoms 14-21 entry H          line    69 file /cbio/jclab/home/chayas/anaconda/envs/py35/share/psi4/basis/aug-cc-pvtz-jkfit.gbs 

  Reading orbitals from file 180, no projection.

  ==> Pre-Iterations <==

   -------------------------------------------------------
    Irrep   Nso     Nmo     Nalpha   Nbeta   Ndocc  Nsocc
   -------------------------------------------------------
     A        782     782       0       0       0       0
   -------------------------------------------------------
    Total     782     782      45      45      45       0
   -------------------------------------------------------

  ==> Integral Setup <==

  ==> DFJK: Density-Fitted J/K Matrices <==

    J tasked:                  Yes
    K tasked:                  Yes
    wK tasked:                  No
    OpenMP threads:              8
    Integrals threads:           8
    Memory (MB):              3576
    Algorithm:                Disk
    Integral Cache:           NONE
    Schwarz Cutoff:          1E-12
    Fitting Condition:       1E-12

   => Auxiliary Basis Set <=

  Basis Set: (AUG-CC-PVTZ AUX)
    Blend: AUG-CC-PVTZ-JKFIT
    Number of shells: 502
    Number of basis function: 1720
    Number of Cartesian functions: 2143
    Spherical Harmonics?: true
    Max angular momentum: 4

  Minimum eigenvalue in the overlap matrix is 6.3386083737E-07.
  Using Symmetric Orthogonalization.

  SCF Guess: Orbitals guess was supplied from a previous computation.

  ==> Iterations <==

                           Total Energy        Delta E     RMS |[F,P]|

   @DF-RHF iter   0:  -575.34703759968716   -5.75347e+02   4.04718e-04 
   @DF-RHF iter   1:  -575.28807809963234    5.89595e-02   7.45606e-05 
   @DF-RHF iter   2:  -575.28838927664572   -3.11177e-04   4.86675e-05 DIIS
   @DF-RHF iter   3:  -575.28855428844292   -1.65012e-04   1.08037e-05 DIIS
   @DF-RHF iter   4:  -575.28856019712578   -5.90868e-06   4.41070e-06 DIIS
   @DF-RHF iter   5:  -575.28856215208771   -1.95496e-06   1.39808e-06 DIIS
   @DF-RHF iter   6:  -575.28856267141657   -5.19329e-07   8.21760e-07 DIIS
   @DF-RHF iter   7:  -575.28856287564349   -2.04227e-07   3.83367e-07 DIIS
   @DF-RHF iter   8:  -575.28856291753095   -4.18875e-08   1.21854e-07 DIIS
   @DF-RHF iter   9:  -575.28856292019339   -2.66243e-09   3.93067e-08 DIIS
   @DF-RHF iter  10:  -575.28856292042121   -2.27828e-10   1.24150e-08 DIIS
   @DF-RHF iter  11:  -575.28856292045339   -3.21734e-11   3.25187e-09 DIIS
   @DF-RHF iter  12:  -575.28856292043611    1.72804e-11   1.41614e-09 DIIS
   @DF-RHF iter  13:  -575.28856292043872   -2.61480e-12   5.35749e-10 DIIS
   @DF-RHF iter  14:  -575.28856292045066   -1.19371e-11   3.60061e-10 DIIS
   @DF-RHF iter  15:  -575.28856292045543   -4.77485e-12   1.26804e-10 DIIS
   @DF-RHF iter  16:  -575.28856292046419   -8.75389e-12   4.59893e-11 DIIS

  ==> Post-Iterations <==

    Orbital Energies (a.u.)
    -----------------------

    Doubly Occupied:                                                      

       1A    -26.318372     2A    -15.565740     3A    -11.337277  
       4A    -11.274613     5A    -11.274151     6A    -11.268462  
       7A    -11.260284     8A    -11.255937     9A    -11.254936  
      10A    -11.250912    11A    -11.247007    12A    -11.240679  
      13A    -11.239946    14A     -1.638671    15A     -1.258716  
      16A     -1.184839    17A     -1.114673    18A     -1.037319  
      19A     -1.035447    20A     -1.028248    21A     -0.891318  
      22A     -0.864912    23A     -0.855692    24A     -0.825016  
      25A     -0.756434    26A     -0.723797    27A     -0.712384  
      28A     -0.705301    29A     -0.670686    30A     -0.668657  
      31A     -0.652427    32A     -0.625895    33A     -0.612653  
      34A     -0.599537    35A     -0.590430    36A     -0.548745  
      37A     -0.534747    38A     -0.529222    39A     -0.515664  
      40A     -0.510273    41A     -0.420741    42A     -0.386344  
      43A     -0.356930    44A     -0.349527    45A     -0.346201  

    Virtual:                                                              

      46A      0.023615    47A      0.031222    48A      0.033714  
      49A      0.035706    50A      0.043606    51A      0.048446  
      52A      0.051720    53A      0.053135    54A      0.077038  
      55A      0.083957    56A      0.087044    57A      0.090124  
      58A      0.091670    59A      0.094849    60A      0.097269  
      61A      0.102621    62A      0.104619    63A      0.107739  
      64A      0.112088    65A      0.113505    66A      0.115173  
      67A      0.117262    68A      0.123212    69A      0.126003  
      70A      0.127029    71A      0.132094    72A      0.133816  
      73A      0.137158    74A      0.138984    75A      0.141717  
      76A      0.143721    77A      0.145584    78A      0.153182  
      79A      0.155676    80A      0.157664    81A      0.168723  
      82A      0.172505    83A      0.175957    84A      0.188256  
      85A      0.190815    86A      0.194689    87A      0.196831  
      88A      0.210710    89A      0.214939    90A      0.226117  
      91A      0.234570    92A      0.235858    93A      0.237754  
      94A      0.242644    95A      0.243397    96A      0.246107  
      97A      0.252734    98A      0.256415    99A      0.261143  
     100A      0.264059   101A      0.267698   102A      0.271302  
     103A      0.271706   104A      0.278628   105A      0.279925  
     106A      0.286345   107A      0.294021   108A      0.298522  
     109A      0.303058   110A      0.306808   111A      0.311149  
     112A      0.312121   113A      0.317835   114A      0.322196  
     115A      0.324342   116A      0.325792   117A      0.326837  
     118A      0.332399   119A      0.336701   120A      0.346306  
     121A      0.347294   122A      0.354416   123A      0.356848  
     124A      0.358824   125A      0.372668   126A      0.379724  
     127A      0.385663   128A      0.389438   129A      0.394675  
     130A      0.398097   131A      0.405372   132A      0.408080  
     133A      0.410768   134A      0.416614   135A      0.420988  
     136A      0.424809   137A      0.430048   138A      0.433625  
     139A      0.435597   140A      0.442175   141A      0.446002  
     142A      0.451744   143A      0.453678   144A      0.457517  
     145A      0.463896   146A      0.465889   147A      0.473792  
     148A      0.475269   149A      0.478099   150A      0.479784  
     151A      0.484419   152A      0.486469   153A      0.491397  
     154A      0.495405   155A      0.500022   156A      0.503313  
     157A      0.508259   158A      0.509610   159A      0.513404  
     160A      0.516949   161A      0.520165   162A      0.521171  
     163A      0.526235   164A      0.528060   165A      0.535835  
     166A      0.541193   167A      0.544396   168A      0.549032  
     169A      0.553033   170A      0.555264   171A      0.558269  
     172A      0.561416   173A      0.571271   174A      0.576699  
     175A      0.580823   176A      0.584215   177A      0.592768  
     178A      0.600677   179A      0.606362   180A      0.609175  
     181A      0.617702   182A      0.626413   183A      0.630543  
     184A      0.635695   185A      0.637636   186A      0.640213  
     187A      0.655237   188A      0.662218   189A      0.666768  
     190A      0.669432   191A      0.673160   192A      0.679256  
     193A      0.686167   194A      0.696194   195A      0.700050  
     196A      0.705013   197A      0.711412   198A      0.712333  
     199A      0.717788   200A      0.724597   201A      0.734455  
     202A      0.738739   203A      0.742760   204A      0.756623  
     205A      0.758285   206A      0.762627   207A      0.767367  
     208A      0.773476   209A      0.777257   210A      0.785459  
     211A      0.787392   212A      0.791119   213A      0.792167  
     214A      0.802123   215A      0.815930   216A      0.823525  
     217A      0.828783   218A      0.835443   219A      0.847112  
     220A      0.853141   221A      0.865218   222A      0.869040  
     223A      0.872635   224A      0.876102   225A      0.879598  
     226A      0.882095   227A      0.883938   228A      0.890249  
     229A      0.894252   230A      0.905347   231A      0.907850  
     232A      0.911769   233A      0.913457   234A      0.920368  
     235A      0.922215   236A      0.928657   237A      0.935739  
     238A      0.937776   239A      0.942443   240A      0.945068  
     241A      0.949525   242A      0.953122   243A      0.961250  
     244A      0.969272   245A      0.971721   246A      0.974014  
     247A      0.977285   248A      0.988331   249A      0.991356  
     250A      0.995121   251A      1.003726   252A      1.009454  
     253A      1.010899   254A      1.014435   255A      1.018182  
     256A      1.026627   257A      1.028752   258A      1.034656  
     259A      1.041479   260A      1.044752   261A      1.050828  
     262A      1.055552   263A      1.068110   264A      1.069768  
     265A      1.073204   266A      1.075753   267A      1.081612  
     268A      1.085543   269A      1.090380   270A      1.094626  
     271A      1.097964   272A      1.101059   273A      1.111357  
     274A      1.114347   275A      1.118271   276A      1.125448  
     277A      1.129212   278A      1.136815   279A      1.141190  
     280A      1.143089   281A      1.154852   282A      1.162309  
     283A      1.167866   284A      1.171930   285A      1.178000  
     286A      1.179718   287A      1.184006   288A      1.186162  
     289A      1.193746   290A      1.195958   291A      1.200810  
     292A      1.206209   293A      1.207514   294A      1.214710  
     295A      1.221346   296A      1.224575   297A      1.234939  
     298A      1.238997   299A      1.240406   300A      1.246735  
     301A      1.254946   302A      1.261593   303A      1.267420  
     304A      1.275682   305A      1.280230   306A      1.286263  
     307A      1.293493   308A      1.301648   309A      1.305894  
     310A      1.311196   311A      1.316170   312A      1.323175  
     313A      1.334736   314A      1.339022   315A      1.347819  
     316A      1.352323   317A      1.366526   318A      1.374372  
     319A      1.378490   320A      1.385775   321A      1.389439  
     322A      1.400059   323A      1.404348   324A      1.418193  
     325A      1.419080   326A      1.426317   327A      1.433019  
     328A      1.435828   329A      1.442472   330A      1.449639  
     331A      1.468729   332A      1.472574   333A      1.486622  
     334A      1.492107   335A      1.495941   336A      1.501617  
     337A      1.517538   338A      1.532763   339A      1.536917  
     340A      1.547768   341A      1.551908   342A      1.563185  
     343A      1.566049   344A      1.571144   345A      1.577968  
     346A      1.593080   347A      1.594412   348A      1.599872  
     349A      1.608515   350A      1.623236   351A      1.628211  
     352A      1.635286   353A      1.643610   354A      1.661784  
     355A      1.671444   356A      1.680794   357A      1.682365  
     358A      1.686328   359A      1.695369   360A      1.699036  
     361A      1.709568   362A      1.715507   363A      1.725334  
     364A      1.733735   365A      1.738373   366A      1.743278  
     367A      1.750211   368A      1.760323   369A      1.763561  
     370A      1.773999   371A      1.775199   372A      1.781829  
     373A      1.792503   374A      1.806839   375A      1.814075  
     376A      1.824913   377A      1.828889   378A      1.835025  
     379A      1.851593   380A      1.860190   381A      1.861950  
     382A      1.876183   383A      1.880650   384A      1.894913  
     385A      1.896418   386A      1.902424   387A      1.912466  
     388A      1.915370   389A      1.919688   390A      1.928252  
     391A      1.942428   392A      1.951786   393A      1.959801  
     394A      1.966928   395A      1.978772   396A      1.987763  
     397A      1.990414   398A      2.003170   399A      2.010197  
     400A      2.013815   401A      2.022802   402A      2.030761  
     403A      2.043213   404A      2.049308   405A      2.055029  
     406A      2.061208   407A      2.064764   408A      2.076713  
     409A      2.080707   410A      2.092217   411A      2.095047  
     412A      2.106565   413A      2.113776   414A      2.115247  
     415A      2.122242   416A      2.134815   417A      2.142664  
     418A      2.146723   419A      2.154341   420A      2.167953  
     421A      2.169816   422A      2.184729   423A      2.189565  
[...]
	 R(5,7)           =         2.620873	       1.386906
	 R(5,10)          =         2.624554	       1.388854
	 R(5,18)          =         2.040331	       1.079696
	 R(6,8)           =         2.619420	       1.386137
	 R(6,10)          =         2.624861	       1.389017
	 R(6,19)          =         2.040056	       1.079551
	 R(7,12)          =         2.521942	       1.334554
	 R(7,20)          =         2.042675	       1.080937
	 R(8,12)          =         2.523154	       1.335196
	 R(8,21)          =         2.042600	       1.080897
	 R(9,10)          =         2.773139	       1.467482
	 R(9,11)          =         2.620909	       1.386925
	 R(11,13)         =         2.542412	       1.345387
	 B(1,2,4)         =         2.096703	     120.132230
	 B(1,2,15)        =         2.099949	     120.318243
	 B(1,3,9)         =         2.113131	     121.073469
	 B(1,3,16)        =         2.102643	     120.472561
	 B(2,1,3)         =         2.092159	     119.871900
	 B(2,1,14)        =         2.097082	     120.153946
	 B(2,4,11)        =         2.073291	     118.790835
	 B(2,4,17)        =         2.127180	     121.878432
	 B(3,1,14)        =         2.093933	     119.973530
	 B(3,9,10)        =         2.120267	     121.482353
	 B(3,9,11)        =         2.050038	     117.458551
	 B(4,2,15)        =         2.086530	     119.549381
	 B(4,11,9)        =         2.140983	     122.669290
	 B(4,11,13)       =         2.071587	     118.693190
	 B(5,7,12)        =         2.156754	     123.572922
	 B(5,7,20)        =         2.097399	     120.172100
	 B(5,10,6)        =         2.051772	     117.557899
	 B(5,10,9)        =         2.114396	     121.145994
	 B(6,8,12)        =         2.157582	     123.620360
	 B(6,8,21)        =         2.097118	     120.155986
	 B(6,10,9)        =         2.116882	     121.288388
	 B(7,5,10)        =         2.079835	     119.165781
	 B(7,5,18)        =         2.102920	     120.488418
	 B(7,12,8)        =         2.040964	     116.938606
	 B(8,6,10)        =         2.079344	     119.137657
	 B(8,6,19)        =         2.103031	     120.494810
	 B(9,3,16)        =         2.067409	     118.453799
	 B(9,11,13)       =         2.070597	     118.636465
	 B(10,5,18)       =         2.100430	     120.345796
	 B(10,6,19)       =         2.100806	     120.367334
	 B(10,9,11)       =         2.112480	     121.036216
	 B(11,4,17)       =         2.082714	     119.330713
	 B(12,7,20)       =         2.029024	     116.254511
	 B(12,8,21)       =         2.028485	     116.223651
	 D(1,2,4,11)      =         0.000601	       0.034414
	 D(1,2,4,17)      =         3.141277	     179.981936
	 D(1,3,9,10)      =         3.122815	     178.924148
	 D(1,3,9,11)      =         0.011294	       0.647104
	 D(2,1,3,9)       =        -0.004377	      -0.250809
	 D(2,1,3,16)      =         3.134552	     179.596624
	 D(2,4,11,9)      =         0.006901	       0.395424
	 D(2,4,11,13)     =        -3.141306	    -179.983558
	 D(3,1,2,4)       =        -0.001774	      -0.101629
	 D(3,1,2,15)      =        -3.140935	    -179.962328
	 D(3,9,10,5)      =         1.305182	      74.781417
	 D(3,9,10,6)      =        -1.854483	    -106.254067
	 D(3,9,11,4)      =        -0.012705	      -0.727917
	 D(3,9,11,13)     =         3.135499	     179.650860
	 D(4,2,1,14)      =         3.134802	     179.610925
	 D(4,11,9,10)     =        -3.124368	    -179.013088
	 D(5,7,12,8)      =        -0.002295	      -0.131481
	 D(5,10,6,8)      =        -0.014977	      -0.858133
	 D(5,10,6,19)     =         3.129437	     179.303511
	 D(5,10,9,11)     =        -1.867553	    -107.002895
	 D(6,8,12,7)      =         0.003969	       0.227410
	 D(6,10,5,7)      =         0.016510	       0.945956
	 D(6,10,5,18)     =        -3.124638	    -179.028585
	 D(6,10,9,11)     =         1.255967	      71.961622
	 D(7,5,10,9)      =         3.140682	     179.947829
	 D(7,12,8,21)     =        -3.137940	    -179.790719
	 D(8,6,10,9)      =        -3.139123	    -179.858501
	 D(8,12,7,20)     =         3.134957	     179.619799
	 D(9,3,1,14)      =        -3.140962	    -179.963887
	 D(9,10,5,18)     =        -0.000466	      -0.026712
	 D(9,10,6,19)     =         0.005291	       0.303142
	 D(9,11,4,17)     =        -3.133799	    -179.553461
	 D(10,5,7,12)     =        -0.008176	      -0.468446
	 D(10,5,7,20)     =         3.137920	     179.789572
	 D(10,6,8,12)     =         0.004877	       0.279447
	 D(10,6,8,21)     =        -3.136387	    -179.701744
	 D(10,9,3,16)     =        -0.016167	      -0.926293
	 D(10,9,11,13)    =         0.023836	       1.365689
	 D(11,4,2,15)     =         3.139781	     179.896185
	 D(11,9,3,16)     =        -3.127688	    -179.203337
	 D(12,7,5,18)     =         3.132972	     179.506058
	 D(12,8,6,19)     =        -3.139540	    -179.882408
	 D(13,11,4,17)    =         0.001179	       0.067557
	 D(14,1,2,15)     =        -0.004359	      -0.249774
	 D(14,1,3,16)     =        -0.002032	      -0.116454
	 D(15,2,4,17)     =        -0.002728	      -0.156292
	 D(18,5,7,20)     =        -0.004118	      -0.235924
	 D(19,6,8,21)     =         0.002381	       0.136400
	 R(6,13)          =         6.040121	       3.196295

	Current energy   :      -577.7254454718

	Energy change for the previous step:
		Projected    :        -0.0000008949
		Actual       :         0.0000005296

	Performing BFGS update.
	Previous computed or guess Hessian on step 1.
	Steps to be used in Hessian update: 5 4
	Adding user-defined constraint: Fragment 1; Coordinate 67:
		Value =     1.305182; Fixed value    =     1.309000
		Force =     0.002386; Force constant =     0.625000
	Removing off-diagonal coupling between coordinate 67 and others.
	Taking RFO optimization step.
	Going to follow RFO solution 1.
	Using RFO vector 1.
	Norm of target step-size    0.01329
	Projected energy change by RFO approximation:         0.0000017943

	Back-transformation to cartesian coordinates...
	Could not converge backtransformation.
	Using first guess instead.

	--- Internal Coordinate Step in ANG or DEG, aJ/ANG or AJ/DEG ---
	 ---------------------------------------------------------------------------
	   Coordinate                Previous        Force       Change         New 
	   ----------                --------       ------       ------       ------
	    1 R(1,2)          =      1.388036     0.000046     0.000067     1.388102
	    2 R(1,3)          =      1.386774     0.000176     0.000001     1.386776
	    3 R(1,14)         =      1.078518    -0.000059    -0.000026     1.078493
	    4 R(2,4)          =      1.387265     0.000011    -0.000054     1.387211
	    5 R(2,15)         =      1.078821    -0.000018    -0.000049     1.078772
	    6 R(3,9)          =      1.392994    -0.000314    -0.000045     1.392949
	    7 R(3,16)         =      1.079808    -0.000083    -0.000066     1.079742
	    8 R(4,11)         =      1.379901     0.000045    -0.000060     1.379842
	    9 R(4,17)         =      1.077815    -0.000035    -0.000017     1.077797
	   10 R(5,7)          =      1.386906     0.000127    -0.000066     1.386841
	   11 R(5,10)         =      1.388854    -0.000421    -0.000072     1.388782
	   12 R(5,18)         =      1.079696    -0.000071    -0.000063     1.079633
	   13 R(6,8)          =      1.386137     0.000059    -0.000078     1.386059
	   14 R(6,10)         =      1.389017    -0.000204    -0.000030     1.388987
	   15 R(6,19)         =      1.079551    -0.000079    -0.000067     1.079484
	   16 R(7,12)         =      1.334554    -0.000219     0.000054     1.334609
	   17 R(7,20)         =      1.080937    -0.000123    -0.000007     1.080930
	   18 R(8,12)         =      1.335196    -0.000149     0.000062     1.335258
	   19 R(8,21)         =      1.080897    -0.000136     0.000002     1.080899
	   20 R(9,10)         =      1.467482     0.000811     0.000089     1.467571
	   21 R(9,11)         =      1.386925     0.000437    -0.000067     1.386859
	   22 R(11,13)        =      1.345387    -0.000817    -0.000053     1.345334
	   23 B(1,2,4)        =    120.132230     0.000001    -0.000280   120.131950
	   24 B(1,2,15)       =    120.318243    -0.000001    -0.009961   120.308283
	   25 B(1,3,9)        =    121.073469     0.000000    -0.008794   121.064676
	   26 B(1,3,16)       =    120.472561    -0.000001    -0.018663   120.453898
	   27 B(2,1,3)        =    119.871900    -0.000000     0.005187   119.877087
	   28 B(2,1,14)       =    120.153946     0.000000    -0.005382   120.148564
	   29 B(2,4,11)       =    118.790835     0.000000    -0.009020   118.781815
	   30 B(2,4,17)       =    121.878432    -0.000002    -0.002114   121.876318
	   31 B(3,1,14)       =    119.973530     0.000000     0.000126   119.973656
	   32 B(3,9,10)       =    121.482353     0.000004     0.055553   121.537906
	   33 B(3,9,11)       =    117.458551     0.000001     0.000490   117.459041
	   34 B(4,2,15)       =    119.549381     0.000000     0.010231   119.559612
	   35 B(4,11,9)       =    122.669290    -0.000001     0.012087   122.681377
	   36 B(4,11,13)      =    118.693190     0.000000     0.007446   118.700636
	   37 B(5,7,12)       =    123.572922     0.000001    -0.001831   123.571092
	   38 B(5,7,20)       =    120.172100     0.000001     0.014986   120.187086
	   39 B(5,10,6)       =    117.557899    -0.000001     0.003474   117.561373
	   40 B(5,10,9)       =    121.145994     0.000003     0.035090   121.181084
	   41 B(6,8,12)       =    123.620360     0.000001    -0.006340   123.614020
	   42 B(6,8,21)       =    120.155986     0.000001     0.018512   120.174498
	   43 B(6,10,9)       =    121.288388    -0.000002    -0.040598   121.247790
	   44 B(7,5,10)       =    119.165781     0.000001    -0.000523   119.165259
	   45 B(7,5,18)       =    120.488418    -0.000001    -0.009771   120.478647
	   46 B(7,12,8)       =    116.938606    -0.000002     0.001656   116.940262
	   47 B(8,6,10)       =    119.137657     0.000001     0.003148   119.140805
	   48 B(8,6,19)       =    120.494810    -0.000000    -0.007090   120.487720
	   49 B(9,3,16)       =    118.453799     0.000001     0.027470   118.481269
	   50 B(9,11,13)      =    118.636465     0.000001    -0.019342   118.617123
	   51 B(10,5,18)      =    120.345796    -0.000000     0.010298   120.356094
	   52 B(10,6,19)      =    120.367334    -0.000001     0.003908   120.371242
	   53 B(10,9,11)      =    121.036216    -0.000005    -0.058423   120.977793
	   54 B(11,4,17)      =    119.330713     0.000001     0.011136   119.341849
	   55 B(12,7,20)      =    116.254511    -0.000002    -0.013210   116.241300
	   56 B(12,8,21)      =    116.223651    -0.000002    -0.012171   116.211480
	   57 D(1,2,4,11)     =      0.034414     0.000000     0.010760     0.045173
	   58 D(1,2,4,17)     =    179.981936    -0.000000     0.013986   179.995922
	   59 D(1,3,9,10)     =    178.924148    -0.000000    -0.053613   178.870535
	   60 D(1,3,9,11)     =      0.647104     0.000000     0.034870     0.681974
	   61 D(2,1,3,9)      =     -0.250809     0.000000    -0.020943    -0.271752
	   62 D(2,1,3,16)     =    179.596624     0.000000    -0.014992   179.581633
	   63 D(2,4,11,9)     =      0.395424     0.000000     0.004472     0.399896
	   64 D(2,4,11,13)    =   -179.983558    -0.000000     0.040393  -179.943165
	   65 D(3,1,2,4)      =     -0.101629    -0.000000    -0.002589    -0.104218
	   66 D(3,1,2,15)     =   -179.962328    -0.000000     0.001822  -179.960506
	   67 D(3,9,10,5)     =     74.781417     0.000000    -0.020424    74.760993
	   68 D(3,9,10,6)     =   -106.254067     0.000000    -0.148801  -106.402867
	   69 D(3,9,11,4)     =     -0.727917    -0.000000    -0.026986    -0.754903
	   70 D(3,9,11,13)    =    179.650860     0.000000    -0.062976   179.587885
	   71 D(4,2,1,14)     =    179.610925     0.000000    -0.018017   179.592908
	   72 D(4,11,9,10)    =   -179.013088     0.000000     0.058903  -178.954185
	   73 D(5,7,12,8)     =     -0.131481     0.000000     0.000676    -0.130804
	   74 D(5,10,6,8)     =     -0.858133    -0.000000    -0.029954    -0.888087
	   75 D(5,10,6,19)    =    179.303511    -0.000000    -0.016817   179.286693
	   76 D(5,10,9,11)    =   -107.002895     0.000000    -0.110902  -107.113797
	   77 D(6,8,12,7)     =      0.227410    -0.000000    -0.002351     0.225058
	   78 D(6,10,5,7)     =      0.945956     0.000000     0.028416     0.974373
	   79 D(6,10,5,18)    =   -179.028585     0.000000     0.012839  -179.015746
	   80 D(6,10,9,11)    =     71.961622     0.000000    -0.239279    71.722343
	   81 D(7,5,10,9)     =    179.947829    -0.000000    -0.095846   179.851983
	   82 D(7,12,8,21)    =   -179.790719    -0.000000     0.003084  -179.787635
	   83 D(8,6,10,9)     =   -179.858501     0.000000     0.093596  -179.764905
	   84 D(8,12,7,20)    =    179.619799    -0.000000    -0.013490   179.606310
	   85 D(9,3,1,14)     =   -179.963887    -0.000000    -0.005526  -179.969414
	   86 D(9,10,5,18)    =     -0.026712    -0.000000    -0.111424    -0.138136
	   87 D(9,10,6,19)    =      0.303142     0.000000     0.106733     0.409875
	   88 D(9,11,4,17)    =   -179.553461     0.000000     0.001336  -179.552125
	   89 D(10,5,7,12)    =     -0.468446    -0.000000    -0.014266    -0.482712
	   90 D(10,5,7,20)    =    179.789572     0.000000     0.000502   179.790074
	   91 D(10,6,8,12)    =      0.279447     0.000000     0.017546     0.296993
	   92 D(10,6,8,21)    =   -179.701744    -0.000000     0.011911  -179.689833
	   93 D(10,9,3,16)    =     -0.926293    -0.000000    -0.059382    -0.985675
	   94 D(10,9,11,13)   =      1.365689     0.000000     0.022914     1.388603
	   95 D(11,4,2,15)    =    179.896185     0.000000     0.006353   179.902539
	   96 D(11,9,3,16)    =   -179.203337     0.000000     0.029101  -179.174236
	   97 D(12,7,5,18)    =    179.506058    -0.000000     0.001336   179.507394
	   98 D(12,8,6,19)    =   -179.882408     0.000000     0.004412  -179.877996
	   99 D(13,11,4,17)   =      0.067557    -0.000000     0.037257     0.104814
	  100 D(14,1,2,15)    =     -0.249774     0.000000    -0.013606    -0.263380
	  101 D(14,1,3,16)    =     -0.116454    -0.000000     0.000425    -0.116029
	  102 D(15,2,4,17)    =     -0.156292    -0.000000     0.009580    -0.146713
	  103 D(18,5,7,20)    =     -0.235924     0.000000     0.016104    -0.219820
	  104 D(19,6,8,21)    =      0.136400    -0.000000    -0.001223     0.135177
	  105 R(6,13)         =      3.196295    -0.000548    -0.005895     3.190400
	 ---------------------------------------------------------------------------
	Successfully symmetrized geometry.
	 Forces used to impose fixed constraints are not included.
	  Forces zeroed: 67 

  ==> Convergence Check <==

  Measures of convergence in internal coordinates in au.
  Criteria marked as inactive (o), active & met (*), and active & unmet ( ).
  ---------------------------------------------------------------------------------------------
   Step     Total Energy     Delta E     MAX Force     RMS Force      MAX Disp      RMS Disp   
  ---------------------------------------------------------------------------------------------
    Convergence Criteria    1.00e-06 *    3.00e-04 *             o    1.20e-03 *             o
  ---------------------------------------------------------------------------------------------
      6    -577.72544547    5.30e-07 *    9.92e-05 *    2.25e-05 o    1.11e-02      1.30e-03 o  ~
  ---------------------------------------------------------------------------------------------


  **** Optimization is complete! (in 6 steps) ****

  ==> Optimization Summary <==

  Measures of convergence in internal coordinates in au.
  --------------------------------------------------------------------------------------------------------------- ~
   Step         Total Energy             Delta E       MAX Force       RMS Force        MAX Disp        RMS Disp  ~
  --------------------------------------------------------------------------------------------------------------- ~
      1    -577.722274790707   -577.722274790707      0.01867856      0.00441385      0.03727740      0.00976063  ~
      2    -577.725033221259     -0.002758430552      0.00401178      0.00123483      0.02283403      0.00754574  ~
      3    -577.725417627633     -0.000384406374      0.00182677      0.00026520      0.01869263      0.00300896  ~
      4    -577.725438838550     -0.000021210917      0.00051288      0.00008059      0.01752399      0.00257212  ~
      5    -577.725446001363     -0.000007162814      0.00027910      0.00005785      0.00601228      0.00085152  ~
      6    -577.725445471789      0.000000529575      0.00009921      0.00002264      0.01113963      0.00129716  ~
  --------------------------------------------------------------------------------------------------------------- ~

	Writing optimization data to binary file.
	Final energy is   -577.7254454717886
	Final (previous) structure:
	Cartesian Geometry (in Angstrom)
	    C    -1.3913440581   0.8671627589  -2.6682198312
	    C    -2.4704949015   1.4164896832  -1.9897539422
	    C    -0.3526118080   0.2847858127  -1.9575758464
	    C    -2.5123286503   1.3818955456  -0.6035515342
	    C     1.9511332157   0.2268596352   0.3357806761
	    C     0.5355120561  -1.6190006833   0.8175626211
	    C     2.9452323463  -0.4094016839   1.0640987716
	    C     1.5880200049  -2.1763897993   1.5267321645
	    C    -0.3680391120   0.2441940918  -0.5652590563
	    C     0.7149550899  -0.3903571068   0.1949856003
	    C    -1.4660843397   0.7950807920   0.0784665953
	    N     2.7827368252  -1.5944217624   1.6560087222
	    F    -1.5088362329   0.7623136390   1.4227744804
	    H    -1.3614363110   0.8882787332  -3.7461166665
	    H    -3.2827445473   1.8707961934  -2.5353825255
	    H     0.4884854523  -0.1512147117  -2.4756921156
	    H    -3.3360920279   1.8000145816  -0.0483266709
	    H     2.1345302730   1.1900893467  -0.1162131492
	    H    -0.4109671560  -2.1334417042   0.7471512910
	    H     3.9144431640   0.0546618461   1.1811488379
	    H     1.4680111475  -3.1339631671   2.0135481528
	Saving final (previous) structure.
			--------------------------
			 OPTKING Finished Execution 
			--------------------------

    Final optimized geometry and variables:
    Molecular point group: c1
    Full point group: C1

    Geometry (in Angstrom), charge = 0, multiplicity = 1:

    C           -1.391344058090     0.867162758891    -2.668219831163
    C           -2.470494901465     1.416489683246    -1.989753942201
    C           -0.352611807985     0.284785812741    -1.957575846400
    C           -2.512328650312     1.381895545557    -0.603551534240
    C            1.951133215740     0.226859635225     0.335780676131
    C            0.535512056069    -1.619000683330     0.817562621138
    C            2.945232346263    -0.409401683914     1.064098771648
    C            1.588020004943    -2.176389799303     1.526732164505
    C           -0.368039111978     0.244194091821    -0.565259056253
    C            0.714955089891    -0.390357106844     0.194985600277
    C           -1.466084339703     0.795080791955     0.078466595269
    N            2.782736825163    -1.594421762431     1.656008722155
    F           -1.508836232870     0.762313638958     1.422774480406
    H           -1.361436310995     0.888278733182    -3.746116666476
    H           -3.282744547326     1.870796193409    -2.535382525498
    H            0.488485452324    -0.151214711688    -2.475692115642
    H           -3.336092027852     1.800014581588    -0.048326670893
    H            2.134530272964     1.190089346692    -0.116213149189
    H           -0.410967156017    -2.133441704206     0.747151291003
    H            3.914443164034     0.054661846084     1.181148837863
    H            1.468011147535    -3.133963167119     2.013548152824

	Cleaning optimization helper files.

*** Psi4 exiting successfully. Buy a developer a beer!
