
    -----------------------------------------------------------------------
          Psi4: An Open-Source Ab Initio Electronic Structure Package
                               Psi4 1.1 release

                         Git: Rev {HEAD} add49b9 


    R. M. Parrish, L. A. Burns, D. G. A. Smith, A. C. Simmonett,
    A. E. DePrince III, E. G. Hohenstein, U. Bozkaya, A. Yu. Sokolov,
    R. Di Remigio, R. M. Richard, J. F. Gonthier, A. M. James,
    H. R. McAlexander, A. Kumar, M. Saitow, X. Wang, B. P. Pritchard,
    P. Verma, H. F. Schaefer III, K. Patkowski, R. A. King, E. F. Valeev,
    F. A. Evangelista, J. M. Turney, T. D. Crawford, and C. D. Sherrill,
    J. Chem. Theory Comput. in press (2017).
    (doi: 10.1021/acs.jctc.7b00174)

    -----------------------------------------------------------------------


    Psi4 started on: Sunday, 12 November 2017 02:42PM

    Process ID:  17136
    PSIDATADIR: /cbio/jclab/home/chayas/anaconda/envs/py35/share/psi4
    Memory:     500.0 MiB
    Threads:    8
    
  ==> Input File <==

--------------------------------------------------------------------------

memory 5 Gb

molecule phepyrOH_neutral {
  symmetry C1
  0 1 
  C      1.885   -1.036   -0.112
  C      2.878   -1.652   2.002
  C      0.807   -0.463   0.561
  C      1.800   -1.079   2.676
  C      3.862   -2.773   -1.356
  C      5.298   -2.250   0.501
  C      4.965   -3.329   -1.983
  C      6.337   -2.829   -0.209
  C      2.921   -1.631   0.608
  C      4.040   -2.225   -0.090
  C      0.764   -0.484   1.955
  N      6.202   -3.372   -1.440
  O      -0.288   0.076   2.612
  H      1.904   -1.012   -1.199
  H      3.678   -2.112   2.578
  H      0.003   -0.001   -0.006
  H      1.772   -1.098   3.762
  H      2.895   -2.772   -1.850
  H      5.475   -1.833   1.487
  H      4.879   -3.768   -2.972
  H      7.337   -2.875   0.208
  H      -1.124   -0.185   2.193
  units Angstrom
}

dih_string = "3 11 13 22 45"
set optking fixed_dihedral = $dih_string

optimize('MP2/aug-cc-PVTZ')
--------------------------------------------------------------------------

  Memory set to   4.657 GiB by Python driver.
gradient() will perform analytic gradient computation.

*** tstart() called on gpu-1-16.local
*** at Sun Nov 12 14:42:38 2017

    SCF Algorithm Type (re)set to DF.

*** tstart() called on gpu-1-16.local
*** at Sun Nov 12 14:42:38 2017

   => Loading Basis Set <=

    Name: AUG-CC-PVTZ
    Role: ORBITAL
    Keyword: BASIS
    atoms 1-11  entry C          line   221 file /cbio/jclab/home/chayas/anaconda/envs/py35/share/psi4/basis/aug-cc-pvtz.gbs 
    atoms 12    entry N          line   267 file /cbio/jclab/home/chayas/anaconda/envs/py35/share/psi4/basis/aug-cc-pvtz.gbs 
    atoms 13    entry O          line   313 file /cbio/jclab/home/chayas/anaconda/envs/py35/share/psi4/basis/aug-cc-pvtz.gbs 
    atoms 14-22 entry H          line    34 file /cbio/jclab/home/chayas/anaconda/envs/py35/share/psi4/basis/aug-cc-pvtz.gbs 


         ---------------------------------------------------------
                                   SCF
            by Justin Turney, Rob Parrish, and Andy Simmonett
                              RHF Reference
                        8 Threads,   4768 MiB Core
         ---------------------------------------------------------

  ==> Geometry <==

    Molecular point group: c1
    Full point group: C1

    Geometry (in Angstrom), charge = 0, multiplicity = 1:

       Center              X                  Y                   Z               Mass       
    ------------   -----------------  -----------------  -----------------  -----------------
           C         -1.247976899961     0.710630215950    -0.582479392064    12.000000000000
           C         -0.254976899961     0.094630215950     1.531520607936    12.000000000000
           C         -2.325976899961     1.283630215950     0.090520607936    12.000000000000
           C         -1.332976899961     0.667630215950     2.205520607936    12.000000000000
           C          0.729023100039    -1.026369784050    -1.826479392064    12.000000000000
           C          2.165023100039    -0.503369784050     0.030520607936    12.000000000000
           C          1.832023100039    -1.582369784050    -2.453479392064    12.000000000000
           C          3.204023100039    -1.082369784050    -0.679479392064    12.000000000000
           C         -0.211976899961     0.115630215950     0.137520607936    12.000000000000
           C          0.907023100039    -0.478369784050    -0.560479392064    12.000000000000
           C         -2.368976899961     1.262630215950     1.484520607936    12.000000000000
           N          3.069023100039    -1.625369784050    -1.910479392064    14.003074004780
           O         -3.420976899961     1.822630215950     2.141520607936    15.994914619560
           H         -1.228976899961     0.734630215950    -1.669479392064     1.007825032070
           H          0.545023100039    -0.365369784050     2.107520607936     1.007825032070
           H         -3.129976899961     1.745630215950    -0.476479392064     1.007825032070
           H         -1.360976899961     0.648630215950     3.291520607936     1.007825032070
           H         -0.237976899961    -1.025369784050    -2.320479392064     1.007825032070
           H          2.342023100039    -0.086369784050     1.016520607936     1.007825032070
           H          1.746023100039    -2.021369784050    -3.442479392064     1.007825032070
           H          4.204023100039    -1.128369784050    -0.262479392064     1.007825032070
           H         -4.256976899961     1.561630215950     1.722520607936     1.007825032070

  Running in c1 symmetry.

  Rotational constants: A =      0.09693  B =      0.01355  C =      0.01209 [cm^-1]
  Rotational constants: A =   2906.02940  B =    406.08873  C =    362.33504 [MHz]
  Nuclear repulsion =  698.530381807782874

  Charge       = 0
  Multiplicity = 1
  Electrons    = 90
  Nalpha       = 45
  Nbeta        = 45

  ==> Algorithm <==

  SCF Algorithm Type is DF.
  DIIS enabled.
  MOM disabled.
  Fractional occupation disabled.
  Guess Type is SAD.
  Energy threshold   = 1.00e-10
  Density threshold  = 1.00e-10
  Integral threshold = 0.00e+00

  ==> Primary Basis <==

  Basis Set: AUG-CC-PVTZ
    Blend: AUG-CC-PVTZ
    Number of shells: 263
    Number of basis function: 805
    Number of Cartesian functions: 940
    Spherical Harmonics?: true
    Max angular momentum: 3

   => Loading Basis Set <=

    Name: (AUG-CC-PVTZ AUX)
    Role: JKFIT
    Keyword: DF_BASIS_SCF
    atoms 1-11  entry C          line   161 file /cbio/jclab/home/chayas/anaconda/envs/py35/share/psi4/basis/aug-cc-pvtz-jkfit.gbs 
    atoms 12    entry N          line   223 file /cbio/jclab/home/chayas/anaconda/envs/py35/share/psi4/basis/aug-cc-pvtz-jkfit.gbs 
    atoms 13    entry O          line   285 file /cbio/jclab/home/chayas/anaconda/envs/py35/share/psi4/basis/aug-cc-pvtz-jkfit.gbs 
    atoms 14-22 entry H          line    69 file /cbio/jclab/home/chayas/anaconda/envs/py35/share/psi4/basis/aug-cc-pvtz-jkfit.gbs 

  ==> Pre-Iterations <==

   -------------------------------------------------------
    Irrep   Nso     Nmo     Nalpha   Nbeta   Ndocc  Nsocc
   -------------------------------------------------------
     A        805     805       0       0       0       0
   -------------------------------------------------------
    Total     805     805      45      45      45       0
   -------------------------------------------------------

  ==> Integral Setup <==

  ==> DFJK: Density-Fitted J/K Matrices <==

    J tasked:                  Yes
    K tasked:                  Yes
    wK tasked:                  No
    OpenMP threads:              8
    Integrals threads:           8
    Memory (MB):              3576
    Algorithm:                Disk
    Integral Cache:           NONE
    Schwarz Cutoff:          1E-12
    Fitting Condition:       1E-12

   => Auxiliary Basis Set <=

  Basis Set: (AUG-CC-PVTZ AUX)
    Blend: AUG-CC-PVTZ-JKFIT
    Number of shells: 516
    Number of basis function: 1766
    Number of Cartesian functions: 2198
    Spherical Harmonics?: true
    Max angular momentum: 4

  Minimum eigenvalue in the overlap matrix is 6.2532615354E-07.
  Using Symmetric Orthogonalization.

  SCF Guess: Superposition of Atomic Densities via on-the-fly atomic UHF.

  ==> Iterations <==

                           Total Energy        Delta E     RMS |[F,P]|

   @DF-RHF iter   0:  -556.83695363790071   -5.56837e+02   2.23823e-02 
   @DF-RHF iter   1:  -550.90395842807663    5.93300e+00   2.18689e-03 
   @DF-RHF iter   2:  -551.22056214179111   -3.16604e-01   9.02805e-04 DIIS
   @DF-RHF iter   3:  -551.26766523659342   -4.71031e-02   3.78785e-04 DIIS
   @DF-RHF iter   4:  -551.28146972057777   -1.38045e-02   1.28105e-04 DIIS
   @DF-RHF iter   5:  -551.28307674286521   -1.60702e-03   5.08005e-05 DIIS
   @DF-RHF iter   6:  -551.28338896083847   -3.12218e-04   1.96894e-05 DIIS
   @DF-RHF iter   7:  -551.28342786477094   -3.89039e-05   6.44618e-06 DIIS
   @DF-RHF iter   8:  -551.28343104222733   -3.17746e-06   1.50531e-06 DIIS
   @DF-RHF iter   9:  -551.28343129999269   -2.57765e-07   6.70504e-07 DIIS
   @DF-RHF iter  10:  -551.28343135641455   -5.64219e-08   3.22817e-07 DIIS
   @DF-RHF iter  11:  -551.28343137534432   -1.89298e-08   9.25634e-08 DIIS
   @DF-RHF iter  12:  -551.28343137917136   -3.82704e-09   4.28101e-08 DIIS
   @DF-RHF iter  13:  -551.28343137959837   -4.27008e-10   1.56981e-08 DIIS
   @DF-RHF iter  14:  -551.28343137965021   -5.18412e-11   7.36550e-09 DIIS
   @DF-RHF iter  15:  -551.28343137965101   -7.95808e-13   2.76175e-09 DIIS
   @DF-RHF iter  16:  -551.28343137966601   -1.50067e-11   1.70117e-09 DIIS
   @DF-RHF iter  17:  -551.28343137966522    7.95808e-13   7.36998e-10 DIIS
   @DF-RHF iter  18:  -551.28343137965282    1.23919e-11   3.41857e-10 DIIS
   @DF-RHF iter  19:  -551.28343137964373    9.09495e-12   1.53285e-10 DIIS
   @DF-RHF iter  20:  -551.28343137965533   -1.15961e-11   7.04003e-11 DIIS

  ==> Post-Iterations <==

    Orbital Energies (a.u.)
    -----------------------

    Doubly Occupied:                                                      

       1A    -20.594940     2A    -15.562062     3A    -11.311487  
       4A    -11.274336     5A    -11.274228     6A    -11.263486  
       7A    -11.253577     8A    -11.252765     9A    -11.246372  
      10A    -11.245154    11A    -11.243317    12A    -11.236679  
      13A    -11.236354    14A     -1.411693    15A     -1.248816  
      16A     -1.174056    17A     -1.103978    18A     -1.039509  
      19A     -1.028302    20A     -1.009028    21A     -0.880658  
      22A     -0.873090    23A     -0.836955    24A     -0.810562  
      25A     -0.748208    26A     -0.724154    27A     -0.683537  
      28A     -0.665342    29A     -0.648954    30A     -0.633070  
      31A     -0.629894    32A     -0.610400    33A     -0.597217  
      34A     -0.592091    35A     -0.555441    36A     -0.545120  
      37A     -0.528557    38A     -0.518946    39A     -0.506265  
      40A     -0.487931    41A     -0.417828    42A     -0.397728  
      43A     -0.354745    44A     -0.349179    45A     -0.310112  

    Virtual:                                                              

      46A      0.021916    47A      0.029363    48A      0.032098  
      49A      0.039399    50A      0.041384    51A      0.045967  
      52A      0.054352    53A      0.057080    54A      0.060157  
      55A      0.075750    56A      0.078270    57A      0.084343  
      58A      0.087992    59A      0.091508    60A      0.094353  
      61A      0.102256    62A      0.106300    63A      0.108027  
      64A      0.110229    65A      0.113237    66A      0.115957  
      67A      0.117377    68A      0.121631    69A      0.127901  
      70A      0.130103    71A      0.132632    72A      0.133675  
      73A      0.138411    74A      0.142338    75A      0.145428  
      76A      0.149040    77A      0.149670    78A      0.154006  
      79A      0.159668    80A      0.162941    81A      0.168119  
      82A      0.170793    83A      0.176737    84A      0.181988  
      85A      0.185461    86A      0.186750    87A      0.200972  
      88A      0.204348    89A      0.211368    90A      0.216006  
      91A      0.221919    92A      0.225099    93A      0.228561  
      94A      0.236276    95A      0.239939    96A      0.242057  
      97A      0.244344    98A      0.246236    99A      0.251641  
     100A      0.256638   101A      0.262822   102A      0.264668  
     103A      0.267162   104A      0.269086   105A      0.274713  
     106A      0.282245   107A      0.284727   108A      0.289205  
     109A      0.291837   110A      0.294661   111A      0.297796  
     112A      0.302208   113A      0.304317   114A      0.307382  
     115A      0.314377   116A      0.318966   117A      0.322307  
     118A      0.328112   119A      0.329180   120A      0.333517  
     121A      0.340111   122A      0.342458   123A      0.354098  
     124A      0.358106   125A      0.362349   126A      0.366009  
     127A      0.370940   128A      0.372357   129A      0.383679  
     130A      0.390631   131A      0.393418   132A      0.396897  
     133A      0.401889   134A      0.411896   135A      0.415174  
     136A      0.420760   137A      0.424792   138A      0.429534  
     139A      0.431865   140A      0.434984   141A      0.436460  
     142A      0.437559   143A      0.443142   144A      0.447721  
     145A      0.450981   146A      0.456336   147A      0.461101  
     148A      0.462252   149A      0.463109   150A      0.472785  
     151A      0.475374   152A      0.481891   153A      0.483918  
     154A      0.486574   155A      0.489523   156A      0.495929  
     157A      0.498922   158A      0.500593   159A      0.502056  
     160A      0.506020   161A      0.508387   162A      0.512085  
     163A      0.515163   164A      0.517986   165A      0.519399  
     166A      0.526635   167A      0.528764   168A      0.529787  
     169A      0.532307   170A      0.539414   171A      0.545747  
     172A      0.547205   173A      0.548820   174A      0.552669  
     175A      0.557160   176A      0.565152   177A      0.570636  
     178A      0.572673   179A      0.580227   180A      0.590831  
     181A      0.591510   182A      0.596603   183A      0.606884  
     184A      0.612521   185A      0.614741   186A      0.619604  
     187A      0.628255   188A      0.633343   189A      0.637359  
     190A      0.643459   191A      0.651337   192A      0.655047  
     193A      0.660565   194A      0.678871   195A      0.684717  
     196A      0.688570   197A      0.691688   198A      0.699274  
     199A      0.705025   200A      0.707220   201A      0.712190  
     202A      0.720294   203A      0.721262   204A      0.723893  
     205A      0.729673   206A      0.738594   207A      0.740786  
     208A      0.750354   209A      0.757540   210A      0.759450  
     211A      0.766596   212A      0.771065   213A      0.774499  
     214A      0.780247   215A      0.793839   216A      0.797530  
     217A      0.803998   218A      0.809493   219A      0.815760  
     220A      0.821791   221A      0.826195   222A      0.834856  
     223A      0.840708   224A      0.843578   225A      0.851024  
     226A      0.858330   227A      0.863812   228A      0.869299  
     229A      0.875406   230A      0.876216   231A      0.880746  
     232A      0.885673   233A      0.893726   234A      0.898153  
     235A      0.902447   236A      0.904508   237A      0.905877  
     238A      0.910359   239A      0.912238   240A      0.921687  
     241A      0.924787   242A      0.929278   243A      0.937763  
     244A      0.946833   245A      0.950241   246A      0.957138  
     247A      0.961583   248A      0.961802   249A      0.965701  
     250A      0.972543   251A      0.975961   252A      0.977134  
     253A      0.982478   254A      0.984418   255A      0.989188  
     256A      0.997044   257A      1.003546   258A      1.007997  
     259A      1.010868   260A      1.013430   261A      1.017694  
     262A      1.023098   263A      1.028300   264A      1.031777  
     265A      1.035619   266A      1.039420   267A      1.043229  
     268A      1.045563   269A      1.048195   270A      1.051032  
     271A      1.054361   272A      1.063688   273A      1.066778  
     274A      1.076905   275A      1.080653   276A      1.085544  
     277A      1.090148   278A      1.094066   279A      1.099948  
     280A      1.102101   281A      1.103202   282A      1.108349  
     283A      1.110483   284A      1.116179   285A      1.121723  
     286A      1.123038   287A      1.126677   288A      1.140616  
     289A      1.148753   290A      1.157023   291A      1.163751  
     292A      1.167744   293A      1.170083   294A      1.173941  
     295A      1.176431   296A      1.184544   297A      1.186903  
     298A      1.188563   299A      1.189962   300A      1.198502  
     301A      1.205727   302A      1.207427   303A      1.211871  
     304A      1.217076   305A      1.218828   306A      1.221816  
     307A      1.222697   308A      1.229157   309A      1.241464  
     310A      1.253510   311A      1.258266   312A      1.266470  
     313A      1.277433   314A      1.280988   315A      1.284447  
     316A      1.291758   317A      1.296479   318A      1.302041  
     319A      1.305404   320A      1.307517   321A      1.313600  
     322A      1.316618   323A      1.326997   324A      1.332783  
     325A      1.339400   326A      1.354495   327A      1.361595  
     328A      1.366646   329A      1.373981   330A      1.379986  
     331A      1.385054   332A      1.397712   333A      1.402830  
     334A      1.415490   335A      1.421297   336A      1.422178  
     337A      1.434680   338A      1.447604   339A      1.452709  
     340A      1.454842   341A      1.468600   342A      1.472945  
     343A      1.486692   344A      1.494170   345A      1.507380  
     346A      1.508242   347A      1.516926   348A      1.521052  
     349A      1.522106   350A      1.537298   351A      1.541295  
     352A      1.543681   353A      1.560157   354A      1.575325  
     355A      1.583214   356A      1.592586   357A      1.602656  
     358A      1.608207   359A      1.617129   360A      1.623323  
     361A      1.626735   362A      1.631281   363A      1.637241  
     364A      1.656486   365A      1.665905   366A      1.673778  
     367A      1.675064   368A      1.692116   369A      1.696399  
     370A      1.701559   371A      1.704763   372A      1.708070  
     373A      1.718859   374A      1.722603   375A      1.736197  
     376A      1.738568   377A      1.742717   378A      1.748438  
     379A      1.752984   380A      1.769527   381A      1.778609  
     382A      1.783299   383A      1.790790   384A      1.807676  
     385A      1.812842   386A      1.814424   387A      1.824831  
     388A      1.831364   389A      1.842619   390A      1.847715  
     391A      1.852119   392A      1.862227   393A      1.870888  
     394A      1.876082   395A      1.886603   396A      1.899055  
     397A      1.908393   398A      1.909538   399A      1.915635  
     400A      1.928712   401A      1.936487   402A      1.943587  
     403A      1.952695   404A      1.956081   405A      1.966809  
     406A      1.972221   407A      1.975235   408A      1.990571  
     409A      2.001937   410A      2.004991   411A      2.012609  
     412A      2.015055   413A      2.028948   414A      2.031921  
     415A      2.035196   416A      2.046531   417A      2.049650  
     418A      2.056541   419A      2.062712   420A      2.076448  
     421A      2.082794   422A      2.085909   423A      2.089433  
     424A      2.102058   425A      2.111256   426A      2.117162  
     427A      2.119284   428A      2.126193   429A      2.132522  
     430A      2.143727   431A      2.148130   432A      2.153387  
     433A      2.167810   434A      2.183382   435A      2.193225  
     436A      2.202218   437A      2.203924   438A      2.215813  
     439A      2.220958   440A      2.227047   441A      2.234537  
     442A      2.240097   443A      2.259082   444A      2.261389  
     445A      2.278903   446A      2.294875   447A      2.309219  
     448A      2.310013   449A      2.316211   450A      2.323605  
     451A      2.340895   452A      2.356663   453A      2.367451  
     454A      2.369798   455A      2.375460   456A      2.380710  
     457A      2.399993   458A      2.405760   459A      2.409281  
     460A      2.410947   461A      2.415323   462A      2.429836  
     463A      2.434500   464A      2.458350   465A      2.465785  
     466A      2.489733   467A      2.496078   468A      2.517638  
     469A      2.523501   470A      2.545374   471A      2.551494  
     472A      2.558488   473A      2.564019   474A      2.573957  
     475A      2.582514   476A      2.590478   477A      2.603520  
     478A      2.613751   479A      2.623710   480A      2.641457  
     481A      2.658799   482A      2.686346   483A      2.699591  
     484A      2.704126   485A      2.732183   486A      2.743126  
     487A      2.749184   488A      2.776281   489A      2.786338  
     490A      2.805387   491A      2.815158   492A      2.826308  
     493A      2.844608   494A      2.855304   495A      2.866871  
     496A      2.887558   497A      2.891143   498A      2.907453  
     499A      2.936188   500A      2.960694   501A      2.990978  
     502A      3.002223   503A      3.020615   504A      3.050279  
     505A      3.053729   506A      3.075497   507A      3.086463  
     508A      3.115627   509A      3.142727   510A      3.166134  
     511A      3.190405   512A      3.205778   513A      3.210794  
     514A      3.221843   515A      3.241457   516A      3.246069  
     517A      3.278411   518A      3.291470   519A      3.300230  
     520A      3.315205   521A      3.328185   522A      3.339979  
     523A      3.348716   524A      3.366219   525A      3.371078  
     526A      3.372416   527A      3.394291   528A      3.401793  
     529A      3.416583   530A      3.423041   531A      3.426769  
     532A      3.435654   533A      3.444865   534A      3.457461  
     535A      3.459215   536A      3.476157   537A      3.481528  
     538A      3.489609   539A      3.502033   540A      3.512452  
     541A      3.521824   542A      3.535966   543A      3.539188  
     544A      3.543004   545A      3.556298   546A      3.560860  
     547A      3.563118   548A      3.571420   549A      3.575004  
     550A      3.582957   551A      3.595716   552A      3.605146  
     553A      3.609534   554A      3.627598   555A      3.633975  
     556A      3.639057   557A      3.651817   558A      3.657224  
     559A      3.677479   560A      3.687960   561A      3.700290  
     562A      3.712978   563A      3.718970   564A      3.735059  
     565A      3.737830   566A      3.750916   567A      3.776128  
     568A      3.776591   569A      3.781635   570A      3.784726  
     571A      3.790132   572A      3.806766   573A      3.814954  
     574A      3.830219   575A      3.836100   576A      3.846727  
     577A      3.860153   578A      3.863091   579A      3.871512  
     580A      3.877456   581A      3.883947   582A      3.891936  
     583A      3.902191   584A      3.915636   585A      3.923522  
     586A      3.933508   587A      3.936723   588A      3.940801  
     589A      3.945120   590A      3.948187   591A      3.969365  
     592A      3.975576   593A      3.987373   594A      4.000482  
     595A      4.009001   596A      4.013724   597A      4.023056  
     598A      4.028304   599A      4.031769   600A      4.039103  
     601A      4.040352   602A      4.042445   603A      4.071182  
     604A      4.086424   605A      4.092257   606A      4.110494  
     607A      4.122076   608A      4.133632   609A      4.136102  
     610A      4.143357   611A      4.155076   612A      4.162086  
     613A      4.172137   614A      4.177968   615A      4.179340  
     616A      4.204321   617A      4.205844   618A      4.210052  
     619A      4.230834   620A      4.237565   621A      4.254539  
     622A      4.259471   623A      4.262678   624A      4.268119  
     625A      4.282217   626A      4.285816   627A      4.300413  
     628A      4.301784   629A      4.313003   630A      4.330920  
     631A      4.336538   632A      4.343034   633A      4.358942  
     634A      4.365430   635A      4.380511   636A      4.384059  
     637A      4.392116   638A      4.396999   639A      4.409472  
     640A      4.415030   641A      4.427816   642A      4.433336  
     643A      4.443234   644A      4.446422   645A      4.462933  
     646A      4.470508   647A      4.471798   648A      4.490965  
     649A      4.496516   650A      4.509822   651A      4.512458  
     652A      4.517929   653A      4.526296   654A      4.540024  
     655A      4.552478   656A      4.567992   657A      4.588995  
     658A      4.595847   659A      4.620448   660A      4.631015  
     661A      4.637443   662A      4.648550   663A      4.668914  
     664A      4.687412   665A      4.694789   666A      4.697921  
     667A      4.720475   668A      4.736609   669A      4.741852  
     670A      4.745951   671A      4.759330   672A      4.793378  
     673A      4.799975   674A      4.818327   675A      4.836715  
     676A      4.854371   677A      4.863563   678A      4.874401  
     679A      4.877709   680A      4.908857   681A      4.918667  
     682A      4.927932   683A      4.938061   684A      4.951384  
     685A      4.961698   686A      4.976642   687A      4.993110  
     688A      4.997810   689A      5.012187   690A      5.027402  
     691A      5.030168   692A      5.039617   693A      5.048711  
     694A      5.057101   695A      5.084205   696A      5.088294  
     697A      5.095793   698A      5.115261   699A      5.128814  
     700A      5.135386   701A      5.136958   702A      5.146951  
     703A      5.159683   704A      5.165803   705A      5.172938  
     706A      5.179359   707A      5.203472   708A      5.215275  
     709A      5.226059   710A      5.241940   711A      5.263528  
     712A      5.282231   713A      5.290041   714A      5.306378  
     715A      5.313634   716A      5.344099   717A      5.354555  
     718A      5.362524   719A      5.384816   720A      5.396859  
     721A      5.425361   722A      5.436694   723A      5.439801  
     724A      5.453186   725A      5.467573   726A      5.481069  
     727A      5.492466   728A      5.518187   729A      5.554217  
     730A      5.567507   731A      5.567891   732A      5.599512  
     733A      5.615782   734A      5.631740   735A      5.656167  
     736A      5.699925   737A      5.706471   738A      5.740537  
     739A      5.759058   740A      5.768207   741A      5.800711  
     742A      5.807248   743A      5.827018   744A      5.846942  
     745A      5.873989   746A      5.880638   747A      5.914886  
     748A      5.935107   749A      5.985035   750A      6.047497  
     751A      6.086118   752A      6.115536   753A      6.155122  
     754A      6.186956   755A      6.221991   756A      6.248828  
     757A      6.276162   758A      6.288520   759A      6.366562  
     760A      6.404139   761A      6.424519   762A      6.467793  
     763A      6.482342   764A      6.512146   765A      6.523221  
     766A      6.598526   767A      6.622673   768A      6.709316  
     769A      6.714393   770A      6.722909   771A      6.741383  
     772A      6.883991   773A      6.886382   774A      6.908002  
     775A      6.923628   776A      6.938078   777A      6.945974  
     778A      6.976233   779A      7.092400   780A      7.104486  
     781A      7.138399   782A      7.268141   783A      7.305012  
     784A      7.410283   785A      7.433271   786A      7.538307  
     787A      7.648594   788A      7.663787   789A      7.799382  
     790A      7.919954   791A      8.287770   792A      8.596018  
     793A     15.622007   794A     16.367111   795A     16.731828  
     796A     16.783828   797A     16.825245   798A     18.428696  
     799A     18.821828   800A     19.175375   801A     19.655407  
     802A     20.066163   803A     20.089101   804A     20.587479  
     805A     21.767604  

    Final Occupation by Irrep:
              A 
    DOCC [    45 ]

  Energy converged.

  @DF-RHF Final Energy:  -551.28343137965533

   => Energetics <=

    Nuclear Repulsion Energy =            698.5303818077828737
    One-Electron Energy =               -2133.7953843614527614
    Two-Electron Energy =                 883.9815711740146753
    DFT Exchange-Correlation Energy =       0.0000000000000000
    Empirical Dispersion Energy =           0.0000000000000000
    PCM Polarization Energy =               0.0000000000000000
    EFP Energy =                            0.0000000000000000
    Total Energy =                       -551.2834313796553261



Properties will be evaluated at   0.000000,   0.000000,   0.000000 Bohr

Properties computed using the SCF density matrix

  Nuclear Dipole Moment: (a.u.)
     X:    -1.3170      Y:     0.0732      Z:    -0.0154

  Electronic Dipole Moment: (a.u.)
     X:     0.1434      Y:     0.1092      Z:     0.1933

  Dipole Moment: (a.u.)
     X:    -1.1736      Y:     0.1823      Z:     0.1780     Total:     1.2009

  Dipole Moment: (Debye)
     X:    -2.9829      Y:     0.4635      Z:     0.4523     Total:     3.0524


*** tstop() called on gpu-1-16.local at Sun Nov 12 14:50:06 2017
Module time:
	user time   =    1097.76 seconds =      18.30 minutes
	system time =      49.07 seconds =       0.82 minutes
	total time  =        448 seconds =       7.47 minutes
Total time:
	user time   =    1097.76 seconds =      18.30 minutes
	system time =      49.07 seconds =       0.82 minutes
	total time  =        448 seconds =       7.47 minutes

  //>>>>>>>>>>>>>>>>>>>>>>>>>>>>>>>>>>>//
  //               DFMP2               //
  //<<<<<<<<<<<<<<<<<<<<<<<<<<<<<<<<<<<//

   => Loading Basis Set <=

    Name: (AUG-CC-PVTZ AUX)
    Role: RIFIT
    Keyword: DF_BASIS_MP2
    atoms 1-11  entry C          line   147 file /cbio/jclab/home/chayas/anaconda/envs/py35/share/psi4/basis/aug-cc-pvtz-ri.gbs 
    atoms 12    entry N          line   205 file /cbio/jclab/home/chayas/anaconda/envs/py35/share/psi4/basis/aug-cc-pvtz-ri.gbs 
    atoms 13    entry O          line   263 file /cbio/jclab/home/chayas/anaconda/envs/py35/share/psi4/basis/aug-cc-pvtz-ri.gbs 
    atoms 14-22 entry H          line    29 file /cbio/jclab/home/chayas/anaconda/envs/py35/share/psi4/basis/aug-cc-pvtz-ri.gbs 

	 --------------------------------------------------------
	                          DF-MP2                         
	      2nd-Order Density-Fitted Moller-Plesset Theory     
	              RMP2 Wavefunction,   8 Threads             
	                                                         
	        Rob Parrish, Justin Turney, Andy Simmonett,      
	           Ed Hohenstein, and C. David Sherrill          
	 --------------------------------------------------------

   => Auxiliary Basis Set <=

  Basis Set: (AUG-CC-PVTZ AUX)
    Blend: AUG-CC-PVTZ-RI
    Number of shells: 490
    Number of basis function: 1792
    Number of Cartesian functions: 2263
    Spherical Harmonics?: true
    Max angular momentum: 4

	 --------------------------------------------------------
	                 NBF =   805, NAUX =  1792
	 --------------------------------------------------------
	   CLASS    FOCC     OCC    AOCC    AVIR     VIR    FVIR
	   PAIRS       0      45      45     760     760       0
	 --------------------------------------------------------


         ------------------------------------------------------------
                                     CPHF                           
                                  Rob Parrish                       
         ------------------------------------------------------------

  ==> Geometry <==

    Molecular point group: c1
    Full point group: C1

    Geometry (in Angstrom), charge = 0, multiplicity = 1:

       Center              X                  Y                   Z               Mass       
    ------------   -----------------  -----------------  -----------------  -----------------
           C         -1.247976899961     0.710630215950    -0.582479392064    12.000000000000
           C         -0.254976899961     0.094630215950     1.531520607936    12.000000000000
           C         -2.325976899961     1.283630215950     0.090520607936    12.000000000000
           C         -1.332976899961     0.667630215950     2.205520607936    12.000000000000
           C          0.729023100039    -1.026369784050    -1.826479392064    12.000000000000
           C          2.165023100039    -0.503369784050     0.030520607936    12.000000000000
           C          1.832023100039    -1.582369784050    -2.453479392064    12.000000000000
           C          3.204023100039    -1.082369784050    -0.679479392064    12.000000000000
           C         -0.211976899961     0.115630215950     0.137520607936    12.000000000000
           C          0.907023100039    -0.478369784050    -0.560479392064    12.000000000000
           C         -2.368976899961     1.262630215950     1.484520607936    12.000000000000
           N          3.069023100039    -1.625369784050    -1.910479392064    14.003074004780
           O         -3.420976899961     1.822630215950     2.141520607936    15.994914619560
           H         -1.228976899961     0.734630215950    -1.669479392064     1.007825032070
           H          0.545023100039    -0.365369784050     2.107520607936     1.007825032070
           H         -3.129976899961     1.745630215950    -0.476479392064     1.007825032070
           H         -1.360976899961     0.648630215950     3.291520607936     1.007825032070
           H         -0.237976899961    -1.025369784050    -2.320479392064     1.007825032070
           H          2.342023100039    -0.086369784050     1.016520607936     1.007825032070
           H          1.746023100039    -2.021369784050    -3.442479392064     1.007825032070
           H          4.204023100039    -1.128369784050    -0.262479392064     1.007825032070
           H         -4.256976899961     1.561630215950     1.722520607936     1.007825032070

  Nuclear repulsion =  698.530381807782874
  Reference energy  = -551.283431379655326

  ==> Basis Set <==

  Basis Set: AUG-CC-PVTZ
    Blend: AUG-CC-PVTZ
    Number of shells: 263
    Number of basis function: 805
    Number of Cartesian functions: 940
    Spherical Harmonics?: true
    Max angular momentum: 3

  ==> CGRSolver (by Rob Parrish) <==

   Number of roots    =         1
   Preconditioning    =    JACOBI
   Convergence cutoff =     1E-06
   Maximum iterations =       100

  ==> CPHFRHamiltonian (by Rob Parrish) <== 

  ==> DFJK: Density-Fitted J/K Matrices <==

    J tasked:                  Yes
    K tasked:                  Yes
    wK tasked:                  No
    OpenMP threads:              8
    Integrals threads:           8
    Memory (MB):              3576
    Algorithm:                Disk
    Integral Cache:           NONE
    Schwarz Cutoff:          1E-12
    Fitting Condition:       1E-12

   => Auxiliary Basis Set <=

  Basis Set: (AUG-CC-PVTZ AUX)
    Blend: AUG-CC-PVTZ-JKFIT
    Number of shells: 516
    Number of basis function: 1766
    Number of Cartesian functions: 2198
    Spherical Harmonics?: true
    Max angular momentum: 4

  ==> CPHF Iterations <==

  => Iterations <=

             Iter  Converged  Remaining    Residual
  CGR           1          0          1   8.822E-02
  CGR           2          0          1   3.596E-02
  CGR           3          0          1   2.517E-02
  CGR           4          0          1   1.025E-02
  CGR           5          0          1   4.008E-03
  CGR           6          0          1   1.677E-03
  CGR           7          0          1   4.913E-04
  CGR           8          0          1   1.729E-04
  CGR           9          0          1   8.787E-05
  CGR          10          0          1   3.910E-05
  CGR          11          0          1   1.379E-05
  CGR          12          0          1   5.077E-06
  CGR          13          0          1   1.494E-06
  CGR          14          1          0   4.895E-07

    CGRSolver converged.

  ==> DFCorrGrad: Density-Fitted Correlated Gradients <==

    OpenMP threads:              8
    Integrals threads:           8
    Memory (MB):              3576
    Schwarz Cutoff:          0E+00
    Fitting Condition:       1E-12

   => Auxiliary Basis Set <=

  Basis Set: (AUG-CC-PVTZ AUX)
    Blend: AUG-CC-PVTZ-JKFIT
    Number of shells: 516
    Number of basis function: 1766
    Number of Cartesian functions: 2198
    Spherical Harmonics?: true
    Max angular momentum: 4

	-----------------------------------------------------------
	 ==================> DF-MP2 Energies <==================== 
	-----------------------------------------------------------
	 Reference Energy          =    -551.2834313796553261 [Eh]
	 Singles Energy            =      -0.0000000000000002 [Eh]
	 Same-Spin Energy          =      -0.6049909172833513 [Eh]
	 Opposite-Spin Energy      =      -1.8306283546455555 [Eh]
	 Correlation Energy        =      -2.4356192719289069 [Eh]
	 Total Energy              =    -553.7190506515842117 [Eh]
	-----------------------------------------------------------
	 ================> DF-SCS-MP2 Energies <================== 
	-----------------------------------------------------------
	 SCS Same-Spin Scale       =       0.3333333333333333 [-]
	 SCS Opposite-Spin Scale   =       1.2000000000000000 [-]
	 SCS Same-Spin Energy      =      -0.2016636390944504 [Eh]
	 SCS Opposite-Spin Energy  =      -2.1967540255746667 [Eh]
	 SCS Correlation Energy    =      -2.3984176646691173 [Eh]
	 SCS Total Energy          =    -553.6818490443243945 [Eh]
	-----------------------------------------------------------


  -Total Gradient:
     Atom            X                  Y                   Z
    ------   -----------------  -----------------  -----------------
       1        0.009697794140    -0.002034706660    -0.006329893920
       2        0.008945992170    -0.008863550674    -0.003776263195
       3       -0.006572611239     0.003951045930     0.003867247970
       4       -0.002658084254    -0.001158725425    -0.000622901176
       5       -0.009938768526     0.001538811850     0.002166523186
       6       -0.004890048205     0.006226281268     0.006971715629
       7       -0.012669239641     0.002147739670    -0.000199588924
       8       -0.003101800107     0.006987322001     0.011041752998
       9        0.002767136516    -0.001593719609    -0.001873885726
      10        0.004355308864    -0.001921421366    -0.001761484607
      11       -0.002275291995     0.007265761177     0.010664511469
      12        0.012472717106    -0.006983726828    -0.008142456707
      13        0.010779245463     0.000852280695    -0.008958556493
      14       -0.001535856503    -0.001040365863    -0.006327438070
      15        0.005553421638    -0.001011085233     0.004154553224
      16       -0.002936348730     0.000817403482    -0.004121816695
      17        0.002803473153    -0.000841759203     0.005306996201
      18       -0.004516079682     0.001204314908    -0.003941940129
      19        0.001102315041     0.000249722629     0.005524930278
      20        0.000485099330    -0.001034642839    -0.002859578282
      21        0.002321259378    -0.000742336840     0.000444112348
      22       -0.010189633906    -0.004014643055    -0.001226539383


*** tstop() called on gpu-1-16.local at Sun Nov 12 15:22:13 2017
Module time:
	user time   =    5107.52 seconds =      85.13 minutes
	system time =     104.16 seconds =       1.74 minutes
	total time  =       2375 seconds =      39.58 minutes
Total time:
	user time   =    5107.52 seconds =      85.13 minutes
	system time =     104.16 seconds =       1.74 minutes
	total time  =       2375 seconds =      39.58 minutes

			-----------------------------------------
			 OPTKING 2.0: for geometry optimizations 
			  - R.A. King,  Bethel University        
			-----------------------------------------

	Internal coordinates to be generated automatically.
	Detected frag 1 with atoms:  1 2 3 4 5 6 7 8 9 10 11 12 13 14 15 16 17 18 19 20
	 21 22
	---Fragment 1 Bond Connectivity---
	 1 : 3 9 14
	 2 : 4 9 15
	 3 : 1 11 16
	 4 : 2 11 17
	 5 : 7 10 18
	 6 : 8 10 19
	 7 : 5 12 20
	 8 : 6 12 21
	 9 : 1 2 10
	 10 : 5 6 9
	 11 : 3 4 13
	 12 : 7 8
	 13 : 11 22
	 14 : 1
	 15 : 2
	 16 : 3
	 17 : 4
	 18 : 5
	 19 : 6
	 20 : 7
	 21 : 8
	 22 : 13

	Assuming in current code that numbering for constraints corresponds to unified fragment.
	Fixed dihedral atom list: 
	     3    11    13    22
	---Fragment 1 Geometry and Gradient---
	 C          -2.3583345611        1.3428964899       -1.1007265291
	 C          -0.4818365111        0.1788251920        2.8941545159
	 C          -4.3954593323        2.4257095640        0.1710591584
	 C          -2.5189612824        1.2616382662        4.1678299294
	 C           1.3776540036       -1.9395578029       -3.4515458384
	 C           4.0913007304       -0.9512310354        0.0576755904
	 C           3.4620219282       -2.9902455328       -4.6364041237
	 C           6.0547261825       -2.0453824664       -1.2840299639
	 C          -0.4005782874        0.2185094408        0.2598762866
	 C           1.7140252553       -0.9039878821       -1.0591525541
	 C          -4.4767175561        2.3860253153        2.8053373876
	 N           5.7996131546       -3.0715037565       -3.6102828335
	 O          -6.4647094479        3.4442719497        4.0468874569
	 H          -2.3224297646        1.3882499171       -3.1548588355
	 H           1.0299443952       -0.6904488291        3.9826367684
	 H          -5.9147991432        3.2987630374       -0.9004155590
	 H          -2.5718736141        1.2257334697        6.2200725097
	 H          -0.4497111669       -1.9376680768       -4.3850705480
	 H           4.4257822560       -0.1632152380        1.9209455574
	 H           3.2995054808       -3.8198353051       -6.5053432691
	 H           7.9444523154       -2.1323098685       -0.4960141665
	 H          -8.0445204949        2.9510534290        3.2550922073
	             0.0096977941       -0.0020347067       -0.0063298939
	             0.0089459922       -0.0088635507       -0.0037762632
	            -0.0065726112        0.0039510459        0.0038672480
	            -0.0026580843       -0.0011587254       -0.0006229012
	            -0.0099387685        0.0015388119        0.0021665232
	            -0.0048900482        0.0062262813        0.0069717156
	            -0.0126692396        0.0021477397       -0.0001995889
	            -0.0031018001        0.0069873220        0.0110417530
	             0.0027671365       -0.0015937196       -0.0018738857
	             0.0043553089       -0.0019214214       -0.0017614846
	            -0.0022752920        0.0072657612        0.0106645115
	             0.0124727171       -0.0069837268       -0.0081424567
	             0.0107792455        0.0008522807       -0.0089585565
	            -0.0015358565       -0.0010403659       -0.0063274381
	             0.0055534216       -0.0010110852        0.0041545532
	            -0.0029363487        0.0008174035       -0.0041218167
	             0.0028034732       -0.0008417592        0.0053069962
	            -0.0045160797        0.0012043149       -0.0039419401
	             0.0011023150        0.0002497226        0.0055249303
	             0.0004850993       -0.0010346428       -0.0028595783
	             0.0023212594       -0.0007423368        0.0004441123
	            -0.0101896339       -0.0040146431       -0.0012265394

	Previous optimization step data not found.  Starting new optimization.

	---Fragment 1 Intrafragment Coordinates---
	 - Coordinate -           - BOHR/RAD -       - ANG/DEG -
	 R(1,3)           =         2.634350	       1.394038
	 R(1,9)           =         2.635962	       1.394891
	 R(1,14)          =         2.054947	       1.087431
	 R(2,4)           =         2.635263	       1.394521
	 R(2,9)           =         2.635830	       1.394821
	 R(2,15)          =         2.055702	       1.087831
	 R(3,11)          =         2.635830	       1.394821
	 R(3,16)          =         2.053941	       1.086899
	 R(4,11)          =         2.636938	       1.395407
	 R(4,17)          =         2.053239	       1.086527
	 R(5,7)           =         2.617713	       1.385234
	 R(5,10)          =         2.628516	       1.390951
	 R(5,18)          =         2.052008	       1.085876
	 R(6,8)           =         2.617705	       1.385230
	 R(6,10)          =         2.626971	       1.390133
	 R(6,19)          =         2.050517	       1.085087
	 R(7,12)          =         2.554185	       1.351616
	 R(7,20)          =         2.051235	       1.085467
	 R(8,12)          =         2.555281	       1.352196
	 R(8,21)          =         2.049290	       1.084438
	 R(9,10)          =         2.733384	       1.446444
	 R(11,13)         =         2.571662	       1.360865
	 R(13,22)         =         1.834668	       0.970865
	 B(1,3,11)        =         2.094553	     120.009056
	 B(1,3,16)        =         2.088505	     119.662516
	 B(1,9,2)         =         2.093692	     119.959722
	 B(1,9,10)        =         2.095161	     120.043881
	 B(2,4,11)        =         2.093699	     119.960108
	 B(2,4,17)        =         2.089577	     119.723926
	 B(2,9,10)        =         2.094332	     119.996376
	 B(3,1,9)         =         2.094940	     120.031219
	 B(3,1,14)        =         2.079469	     119.144799
	 B(3,11,4)        =         2.094306	     119.994870
	 B(3,11,13)       =         2.094549	     120.008801
	 B(4,2,9)         =         2.095181	     120.045019
	 B(4,2,15)        =         2.078675	     119.099297
	 B(4,11,13)       =         2.094331	     119.996326
	 B(5,7,12)        =         2.164774	     124.032419
	 B(5,7,20)        =         2.107900	     120.773750
	 B(5,10,6)        =         2.089402	     119.713913
	 B(5,10,9)        =         2.096711	     120.132663
	 B(6,8,12)        =         2.164670	     124.026428
	 B(6,8,21)        =         2.108649	     120.816676
	 B(6,10,9)        =         2.097073	     120.153413
	 B(7,5,10)        =         2.058056	     117.917911
	 B(7,5,18)        =         2.098486	     120.234396
	 B(7,12,8)        =         2.031222	     116.380442
	 B(8,6,10)        =         2.058246	     117.928826
	 B(8,6,19)        =         2.099051	     120.266760
	 B(9,1,14)        =         2.108776	     120.823969
	 B(9,2,15)        =         2.109330	     120.855683
	 B(10,5,18)       =         2.126643	     121.847689
	 B(10,6,19)       =         2.125888	     121.804412
	 B(11,3,16)       =         2.100127	     120.328425
	 B(11,4,17)       =         2.099910	     120.315955
	 B(11,13,22)      =         1.924818	     110.283923
	 B(12,7,20)       =         2.010511	     115.193804
	 B(12,8,21)       =         2.009864	     115.156734
	 D(1,3,11,4)      =        -0.000325	      -0.018609
	 D(1,3,11,13)     =         3.140978	     179.964785
	 D(1,9,2,4)       =         0.000325	       0.018608
	 D(1,9,2,15)      =        -3.141497	    -179.994534
	 D(1,9,10,5)      =        -0.524224	     -30.035797
	 D(1,9,10,6)      =         2.616694	     149.925506
	 D(2,4,11,3)      =         0.000301	       0.017261
	 D(2,4,11,13)     =        -3.141002	    -179.966135
	 D(2,9,1,3)       =        -0.000348	      -0.019945
	 D(2,9,1,14)      =        -3.141221	    -179.978731
	 D(2,9,10,5)      =         2.618285	     150.016707
	 D(2,9,10,6)      =        -0.523983	     -30.021991
	 D(3,1,9,10)      =        -3.141025	    -179.967461
	 D(3,11,4,17)     =         3.141223	     179.978848
	 D(3,11,13,22)    =         0.785811	      45.023634
	 D(4,2,9,10)      =         3.141002	     179.966149
	 D(4,11,3,16)     =         3.141593	     180.000000
	 D(4,11,13,22)    =        -2.356072	    -134.992972
	 D(5,7,12,8)      =        -0.001332	      -0.076323
	 D(5,10,6,8)      =         0.000381	       0.021838
	 D(5,10,6,19)     =        -3.140989	    -179.965395
	 D(6,8,12,7)      =         0.001671	       0.095732
	 D(6,10,5,7)      =        -0.000077	      -0.004437
	 D(6,10,5,18)     =        -3.141299	    -179.983151
	 D(7,5,10,9)      =         3.140843	     179.957036
	 D(7,12,8,21)     =         3.140716	     179.949799
	 D(8,6,10,9)      =        -3.140539	    -179.939628
	 D(8,12,7,20)     =         3.139212	     179.863574
	 D(9,1,3,11)      =         0.000348	       0.019955
	 D(9,1,3,16)      =        -3.141571	    -179.998735
	 D(9,2,4,11)      =        -0.000301	      -0.017270
	 D(9,2,4,17)      =        -3.141228	    -179.979086
	 D(9,10,5,18)     =        -0.000378	      -0.021678
	 D(9,10,6,19)     =         0.001277	       0.073140
	 D(10,5,7,12)     =         0.000580	       0.033223
	 D(10,5,7,20)     =        -3.139908	    -179.903478
	 D(10,6,8,12)     =        -0.001235	      -0.070741
	 D(10,6,8,21)     =        -3.140143	    -179.916933
	 D(10,9,1,14)     =         0.001287	       0.073752
	 D(10,9,2,15)     =        -0.000820	      -0.046992
	 D(11,3,1,14)     =         3.141234	     179.979432
	 D(11,4,2,15)     =         3.141517	     179.995641
	 D(12,7,5,18)     =        -3.141378	    -179.987706
	 D(12,8,6,19)     =         3.140139	     179.916697
	 D(13,11,3,16)    =        -0.000286	      -0.016400
	 D(13,11,4,17)    =        -0.000079	      -0.004548
	 D(14,1,3,16)     =        -0.000685	      -0.039257
	 D(15,2,4,17)     =         0.000590	       0.033826
	 D(18,5,7,20)     =         0.001319	       0.075593
	 D(19,6,8,21)     =         0.001231	       0.070505

	Current energy   :      -553.7190506516

	Generating empirical Hessian (Schlegel '84) for each fragment.
	Adding user-defined constraint: Fragment 1; Coordinate 73:
		Value =     0.785811; Fixed value    =     0.785398
		Force =    -0.000206; Force constant =     0.500000
	Removing off-diagonal coupling between coordinate 73 and others.
	Taking RFO optimization step.
	Going to follow RFO solution 1.
	Using RFO vector 1.

	Determining step-restricting scale parameter for RS-RFO.
	Maximum step size allowed    0.10000

	 Iter      |step|        alpha        rfo_root  
	------------------------------------------------
	    0     0.30247       1.00000           1
	    1     0.20483       3.63393           1
	    2     0.15229       9.35402           1
	    3     0.12170      20.11694           1
	    4     0.10558      32.35713           1
	    5     0.10050      37.93073           1
	    6     0.10000      38.53721           1
	------------------------------------------------
	Norm of target step-size    0.10000
	Projected energy change by RFO approximation:        -0.0047273783

	Back-transformation to cartesian coordinates...
	Could not converge backtransformation.
	Using first guess instead.

	--- Internal Coordinate Step in ANG or DEG, aJ/ANG or AJ/DEG ---
	 ---------------------------------------------------------------------------
	   Coordinate                Previous        Force       Change         New 
	   ----------                --------       ------       ------       ------
	    1 R(1,3)          =      1.394038    -0.056360    -0.005557     1.388481
	    2 R(1,9)          =      1.394891    -0.007814    -0.000538     1.394353
	    3 R(1,14)         =      1.087431    -0.051699    -0.006206     1.081224
	    4 R(2,4)          =      1.394521    -0.056808    -0.005692     1.388829
	    5 R(2,9)          =      1.394821    -0.001372     0.000124     1.394945
	    6 R(2,15)         =      1.087831    -0.055293    -0.006656     1.081175
	    7 R(3,11)         =      1.394821    -0.041931    -0.004261     1.390560
	    8 R(3,16)         =      1.086899    -0.038473    -0.004601     1.082297
	    9 R(4,11)         =      1.395407    -0.083982    -0.008535     1.386873
	   10 R(4,17)         =      1.086527    -0.043228    -0.005168     1.081359
	   11 R(5,7)          =      1.385234     0.001580     0.000136     1.385370
	   12 R(5,10)         =      1.390951     0.003907     0.001019     1.391969
	   13 R(5,18)         =      1.085876    -0.047917    -0.005706     1.080170
	   14 R(6,8)          =      1.385230     0.001956     0.000181     1.385411
	   15 R(6,10)         =      1.390133     0.009119     0.001442     1.391575
	   16 R(6,19)         =      1.085087    -0.043634    -0.005201     1.079886
	   17 R(7,12)         =      1.351616    -0.122800    -0.011162     1.340454
	   18 R(7,20)         =      1.085467    -0.024596    -0.002939     1.082528
	   19 R(8,12)         =      1.352196    -0.126436    -0.011497     1.340700
	   20 R(8,21)         =      1.084438    -0.019302    -0.002286     1.082152
	   21 R(9,10)         =      1.446444     0.154357     0.017480     1.463924
	   22 R(11,13)        =      1.360865     0.054988     0.005218     1.366082
	   23 R(13,22)        =      0.970865    -0.085541    -0.007673     0.963192
	   24 B(1,3,11)       =    120.009056     0.000113     0.178038   120.187094
	   25 B(1,3,16)       =    119.662516     0.000096     0.248357   119.910873
	   26 B(1,9,2)        =    119.959722    -0.000786    -1.346814   118.612907
	   27 B(1,9,10)       =    120.043881     0.000378     0.646180   120.690061
	   28 B(2,4,11)       =    119.960108     0.000048     0.032183   119.992291
	   29 B(2,4,17)       =    119.723926     0.000205     0.493949   120.217875
	   30 B(2,9,10)       =    119.996376     0.000408     0.700600   120.696976
	   31 B(3,1,9)        =    120.031219     0.000309     0.599125   120.630344
	   32 B(3,1,14)       =    119.144799    -0.000087    -0.150934   118.993865
	   33 B(3,11,4)       =    119.994870    -0.000133    -0.301025   119.693845
	   34 B(3,11,13)      =    120.008801     0.000678     1.214237   121.223038
	   35 B(4,2,9)        =    120.045019     0.000448     0.837907   120.882926
	   36 B(4,2,15)       =    119.099297    -0.000174    -0.310633   118.788664
	   37 B(4,11,13)      =    119.996326    -0.000545    -0.915812   119.080514
	   38 B(5,7,12)       =    124.032419     0.000042    -0.001938   124.030481
	   39 B(5,7,20)       =    120.773750    -0.000072    -0.114521   120.659228
	   40 B(5,10,6)       =    119.713913    -0.001204    -1.997400   117.716513
	   41 B(5,10,9)       =    120.132663     0.000609     1.012395   121.145058
	   42 B(6,8,12)       =    124.026428     0.000040    -0.000843   124.025585
	   43 B(6,8,21)       =    120.816676    -0.000077    -0.125696   120.690980
	   44 B(6,10,9)       =    120.153413     0.000595     0.985007   121.138420
	   45 B(7,5,10)       =    117.917911     0.000530     1.047481   118.965392
	   46 B(7,5,18)       =    120.234396    -0.000208    -0.400995   119.833401
	   47 B(7,12,8)       =    116.380442     0.000065    -0.090130   116.290312
	   48 B(8,6,10)       =    117.928826     0.000527     1.042844   118.971670
	   49 B(8,6,19)       =    120.266760    -0.000213    -0.412220   119.854540
	   50 B(9,1,14)       =    120.823969    -0.000223    -0.449252   120.374717
	   51 B(9,2,15)       =    120.855683    -0.000275    -0.528372   120.327311
	   52 B(10,5,18)      =    121.847689    -0.000322    -0.646930   121.200760
	   53 B(10,6,19)      =    121.804412    -0.000314    -0.631104   121.173308
	   54 B(11,3,16)      =    120.328425    -0.000209    -0.426485   119.901940
	   55 B(11,4,17)      =    120.315955    -0.000253    -0.526122   119.789832
	   56 B(11,13,22)     =    110.283923    -0.000303    -0.670543   109.613380
	   57 B(12,7,20)      =    115.193804     0.000031     0.116450   115.310254
	   58 B(12,8,21)      =    115.156734     0.000036     0.126701   115.283435
	   59 D(1,3,11,4)     =     -0.018609     0.000015     0.263975     0.245366
	   60 D(1,3,11,13)    =    179.964785    -0.000016    -0.311750   179.653036
	   61 D(1,9,2,4)      =      0.018608     0.000008     0.132267     0.150874
	   62 D(1,9,2,15)     =   -179.994534    -0.000015    -0.240770  -180.235304
	   63 D(1,9,10,5)     =    -30.035797    -0.000029    -0.498059   -30.533855
	   64 D(1,9,10,6)     =    149.925506    -0.000029    -0.494414   149.431092
	   65 D(2,4,11,3)     =      0.017261    -0.000003    -0.077432    -0.060171
	   66 D(2,4,11,13)    =   -179.966135     0.000028     0.485565  -179.480570
	   67 D(2,9,1,3)      =     -0.019945     0.000004     0.055621     0.035676
	   68 D(2,9,1,14)     =   -179.978731    -0.000022    -0.366343  -180.345074
	   69 D(2,9,10,5)     =    150.016707    -0.000027    -0.463789   149.552918
	   70 D(2,9,10,6)     =    -30.021991    -0.000027    -0.460144   -30.482135
	   71 D(3,1,9,10)     =   -179.967461     0.000005     0.088132  -179.879330
	   72 D(3,11,4,17)    =    179.978848    -0.000002    -0.049946   179.928902
	   73 D(3,11,13,22)   =     45.023634    -0.000015    -0.095311    44.928323
	   74 D(4,2,9,10)     =    179.966149     0.000006     0.099725   180.065874
	   75 D(4,11,3,16)    =    180.000000     0.000020     0.356358   180.356358
	   76 D(4,11,13,22)   =   -134.992972    -0.000046    -0.667475  -135.660447
	   77 D(5,7,12,8)     =     -0.076323     0.000001     0.017185    -0.059137
	   78 D(5,10,6,8)     =      0.021838    -0.000000    -0.000650     0.021188
	   79 D(5,10,6,19)    =   -179.965395    -0.000016    -0.266291  -180.231686
	   80 D(6,8,12,7)     =      0.095732    -0.000001    -0.010974     0.084759
	   81 D(6,10,5,7)     =     -0.004437     0.000000     0.006454     0.002017
	   82 D(6,10,5,18)    =   -179.983151    -0.000016    -0.258628  -180.241780
	   83 D(7,5,10,9)     =    179.957036     0.000001     0.011090   179.968126
	   84 D(7,12,8,21)    =    179.949799     0.000008     0.136046   180.085845
	   85 D(8,6,10,9)     =   -179.939628    -0.000000    -0.005296  -179.944924
	   86 D(8,12,7,20)    =    179.863574     0.000009     0.146923   180.010497
	   87 D(9,1,3,11)     =      0.019955    -0.000015    -0.253888    -0.233933
	   88 D(9,1,3,16)     =   -179.998735    -0.000020    -0.346200  -180.344934
	   89 D(9,2,4,11)     =     -0.017270    -0.000008    -0.122072    -0.139342
	   90 D(9,2,4,17)     =   -179.979086    -0.000009    -0.149282  -180.128368
	   91 D(9,10,5,18)    =     -0.021678    -0.000016    -0.253992    -0.275670
	   92 D(9,10,6,19)    =      0.073140    -0.000017    -0.270938    -0.197798
	   93 D(10,5,7,12)    =      0.033223    -0.000001    -0.015389     0.017834
	   94 D(10,5,7,20)    =   -179.903478    -0.000009    -0.151867  -180.055345
	   95 D(10,6,8,12)    =     -0.070741     0.000000     0.002654    -0.068087
	   96 D(10,6,8,21)    =   -179.916933    -0.000009    -0.152296  -180.069229
	   97 D(10,9,1,14)    =      0.073752    -0.000020    -0.333833    -0.260080
	   98 D(10,9,2,15)    =     -0.046992    -0.000017    -0.273311    -0.320304
	   99 D(11,3,1,14)    =    179.979432     0.000010     0.162190   180.141622
	  100 D(11,4,2,15)    =    179.995641     0.000014     0.245358   180.240999
	  101 D(12,7,5,18)    =   -179.987706     0.000015     0.245930  -179.741776
	  102 D(12,8,6,19)    =    179.916697     0.000016     0.264683   180.181380
	  103 D(13,11,3,16)   =     -0.016400    -0.000011    -0.219573    -0.235973
	  104 D(13,11,4,17)   =     -0.004548     0.000029     0.513051     0.508503
	  105 D(14,1,3,16)    =     -0.039257     0.000005     0.069878     0.030621
	  106 D(15,2,4,17)    =      0.033826     0.000013     0.218148     0.251973
	  107 D(18,5,7,20)    =      0.075593     0.000007     0.109452     0.185045
	  108 D(19,6,8,21)    =      0.070505     0.000007     0.109733     0.180238
	 ---------------------------------------------------------------------------
	Successfully symmetrized geometry.
	 Forces used to impose fixed constraints are not included.
	  Forces zeroed: 73 

  ==> Convergence Check <==

  Measures of convergence in internal coordinates in au.
  Criteria marked as inactive (o), active & met (*), and active & unmet ( ).
  --------------------------------------------------------------------------------------------- ~
   Step     Total Energy     Delta E     MAX Force     RMS Force      MAX Disp      RMS Disp    ~
  --------------------------------------------------------------------------------------------- ~
    Convergence Criteria    1.00e-06 *    3.00e-04 *             o    1.20e-03 *             o  ~
  --------------------------------------------------------------------------------------------- ~
      1    -553.71905065   -5.54e+02      1.87e-02      4.70e-03 o    3.49e-02      9.62e-03 o  ~
  ---------------------------------------------------------------------------------------------

	Writing optimization data to binary file.
	Structure for next step:
	Cartesian Geometry (in Angstrom)
	    C    -1.2623159123   0.7210482610  -0.5687723700
	    C    -0.2843480236   0.1036148583   1.5325061957
	    C    -2.3359561117   1.2927087015   0.1008393339
	    C    -1.3588826364   0.6712320791   2.2048403209
	    C     0.7581051672  -1.0412786895  -1.8306868430
	    C     2.1797317104  -0.5116506164   0.0062527071
	    C     1.8619530032  -1.5971323915  -2.4566233399
	    C     3.2210142524  -1.0904432670  -0.7009196856
	    C    -0.2224602748   0.1194300086   0.1390244704
	    C     0.9114235352  -0.4813663315  -0.5655502853
	    C    -2.3875835577   1.2666081728   1.4901953984
	    N     3.0893999124  -1.6344082625  -1.9192199538
	    O    -3.4302235073   1.8286692331   2.1707615032
	    H    -1.2406991883   0.7543486575  -1.6492677094
	    H     0.5049327924  -0.3588194757   2.1088122136
	    H    -3.1340728804   1.7615501185  -0.4600217014
	    H    -1.3968827102   0.6510783159   3.2853433782
	    H    -0.2021030657  -1.0518447585  -2.3253131251
	    H     2.3625117749  -0.0901220056   0.9835236868
	    H     1.7736741355  -2.0407285597  -3.4401350479
	    H     4.2186082410  -1.1281017882  -0.2832590255
	    H    -4.2613184556   1.5784724907   1.7531232532
			--------------------------
			 OPTKING Finished Execution 
			--------------------------

    Structure for next step:
    Molecular point group: c1
    Full point group: C1

    Geometry (in Angstrom), charge = 0, multiplicity = 1:

    C           -1.262181613986     0.721794487554    -0.568959603928
    C           -0.284213725273     0.104361084828     1.532318961700
    C           -2.335821813333     1.293454927988     0.100652099958
    C           -1.358748338057     0.671978305588     2.204653086905
    C            0.758239465577    -1.040532462933    -1.830874077020
    C            2.179866008793    -0.510904389901     0.006065473152
    C            1.862087301571    -1.596386164929    -2.456810573833
    C            3.221148550796    -1.089697040439    -0.701106919577
    C           -0.222325976419     0.120176235077     0.138837236456
    C            0.911557833543    -0.480620104957    -0.565737519272
    C           -2.387449259315     1.267354399321     1.490008164392
    N            3.089534210795    -1.633662036007    -1.919407187794
    O           -3.430089208962     1.829415459610     2.170574269278
    H           -1.240564889912     0.755094884030    -1.649454943379
    H            0.505067090756    -0.358073249128     2.108624979584
    H           -3.133938582084     1.762296345066    -0.460208935381
    H           -1.396748411835     0.651824542376     3.285156144223
    H           -0.201968767320    -1.051098531949    -2.325500359033
    H            2.362646073274    -0.089375779108     0.983336452868
    H            1.773808433898    -2.039982333195    -3.440322281854
    H            4.218742539314    -1.127355561717    -0.283446259428
    H           -4.261184157260     1.579218717238     1.752936019207

gradient() will perform analytic gradient computation.

*** tstart() called on gpu-1-16.local
*** at Sun Nov 12 15:22:15 2017

    SCF Algorithm Type (re)set to DF.

*** tstart() called on gpu-1-16.local
*** at Sun Nov 12 15:22:15 2017

   => Loading Basis Set <=

    Name: AUG-CC-PVTZ
    Role: ORBITAL
    Keyword: BASIS
    atoms 1-11  entry C          line   221 file /cbio/jclab/home/chayas/anaconda/envs/py35/share/psi4/basis/aug-cc-pvtz.gbs 
    atoms 12    entry N          line   267 file /cbio/jclab/home/chayas/anaconda/envs/py35/share/psi4/basis/aug-cc-pvtz.gbs 
    atoms 13    entry O          line   313 file /cbio/jclab/home/chayas/anaconda/envs/py35/share/psi4/basis/aug-cc-pvtz.gbs 
    atoms 14-22 entry H          line    34 file /cbio/jclab/home/chayas/anaconda/envs/py35/share/psi4/basis/aug-cc-pvtz.gbs 


         ---------------------------------------------------------
                                   SCF
            by Justin Turney, Rob Parrish, and Andy Simmonett
                              RHF Reference
                        8 Threads,   4768 MiB Core
         ---------------------------------------------------------

  ==> Geometry <==

    Molecular point group: c1
    Full point group: C1

    Geometry (in Angstrom), charge = 0, multiplicity = 1:

       Center              X                  Y                   Z               Mass       
    ------------   -----------------  -----------------  -----------------  -----------------
           C         -1.262181613986     0.721794487554    -0.568959603928    12.000000000000
           C         -0.284213725273     0.104361084828     1.532318961700    12.000000000000
           C         -2.335821813333     1.293454927988     0.100652099958    12.000000000000
           C         -1.358748338057     0.671978305588     2.204653086905    12.000000000000
           C          0.758239465577    -1.040532462933    -1.830874077020    12.000000000000
           C          2.179866008793    -0.510904389901     0.006065473152    12.000000000000
           C          1.862087301571    -1.596386164929    -2.456810573833    12.000000000000
           C          3.221148550796    -1.089697040439    -0.701106919577    12.000000000000
           C         -0.222325976419     0.120176235077     0.138837236456    12.000000000000
           C          0.911557833543    -0.480620104957    -0.565737519272    12.000000000000
           C         -2.387449259315     1.267354399321     1.490008164392    12.000000000000
           N          3.089534210795    -1.633662036007    -1.919407187794    14.003074004780
           O         -3.430089208962     1.829415459610     2.170574269278    15.994914619560
           H         -1.240564889912     0.755094884030    -1.649454943379     1.007825032070
           H          0.505067090756    -0.358073249128     2.108624979584     1.007825032070
           H         -3.133938582084     1.762296345066    -0.460208935381     1.007825032070
           H         -1.396748411835     0.651824542376     3.285156144223     1.007825032070
           H         -0.201968767320    -1.051098531949    -2.325500359033     1.007825032070
           H          2.362646073274    -0.089375779108     0.983336452868     1.007825032070
           H          1.773808433898    -2.039982333195    -3.440322281854     1.007825032070
           H          4.218742539314    -1.127355561717    -0.283446259428     1.007825032070
           H         -4.261184157260     1.579218717238     1.752936019207     1.007825032070

  Running in c1 symmetry.

  Rotational constants: A =      0.09840  B =      0.01334  C =      0.01195 [cm^-1]
  Rotational constants: A =   2949.98401  B =    399.84030  C =    358.13199 [MHz]
  Nuclear repulsion =  697.528551059916595

  Charge       = 0
  Multiplicity = 1
  Electrons    = 90
  Nalpha       = 45
  Nbeta        = 45

  ==> Algorithm <==

  SCF Algorithm Type is DF.
  DIIS enabled.
  MOM disabled.
  Fractional occupation disabled.
  Guess Type is READ.
  Energy threshold   = 1.00e-10
  Density threshold  = 1.00e-10
  Integral threshold = 0.00e+00

  ==> Primary Basis <==

  Basis Set: AUG-CC-PVTZ
    Blend: AUG-CC-PVTZ
    Number of shells: 263
    Number of basis function: 805
    Number of Cartesian functions: 940
    Spherical Harmonics?: true
    Max angular momentum: 3

   => Loading Basis Set <=

    Name: (AUG-CC-PVTZ AUX)
    Role: JKFIT
    Keyword: DF_BASIS_SCF
    atoms 1-11  entry C          line   161 file /cbio/jclab/home/chayas/anaconda/envs/py35/share/psi4/basis/aug-cc-pvtz-jkfit.gbs 
    atoms 12    entry N          line   223 file /cbio/jclab/home/chayas/anaconda/envs/py35/share/psi4/basis/aug-cc-pvtz-jkfit.gbs 
    atoms 13    entry O          line   285 file /cbio/jclab/home/chayas/anaconda/envs/py35/share/psi4/basis/aug-cc-pvtz-jkfit.gbs 
    atoms 14-22 entry H          line    69 file /cbio/jclab/home/chayas/anaconda/envs/py35/share/psi4/basis/aug-cc-pvtz-jkfit.gbs 

  Reading orbitals from file 180, no projection.

  ==> Pre-Iterations <==

   -------------------------------------------------------
    Irrep   Nso     Nmo     Nalpha   Nbeta   Ndocc  Nsocc
   -------------------------------------------------------
     A        805     805       0       0       0       0
   -------------------------------------------------------
    Total     805     805      45      45      45       0
   -------------------------------------------------------

  ==> Integral Setup <==

  ==> DFJK: Density-Fitted J/K Matrices <==

    J tasked:                  Yes
    K tasked:                  Yes
    wK tasked:                  No
    OpenMP threads:              8
    Integrals threads:           8
    Memory (MB):              3576
    Algorithm:                Disk
    Integral Cache:           NONE
    Schwarz Cutoff:          1E-12
    Fitting Condition:       1E-12

   => Auxiliary Basis Set <=

  Basis Set: (AUG-CC-PVTZ AUX)
    Blend: AUG-CC-PVTZ-JKFIT
    Number of shells: 516
    Number of basis function: 1766
    Number of Cartesian functions: 2198
    Spherical Harmonics?: true
    Max angular momentum: 4

  Minimum eigenvalue in the overlap matrix is 6.0927280947E-07.
  Using Symmetric Orthogonalization.

  SCF Guess: Orbitals guess was supplied from a previous computation.

  ==> Iterations <==

                           Total Energy        Delta E     RMS |[F,P]|

   @DF-RHF iter   0:  -551.43303329132675   -5.51433e+02   5.14167e-04 
   @DF-RHF iter   1:  -551.28755201593287    1.45481e-01   1.42876e-04 
   @DF-RHF iter   2:  -551.28847225130585   -9.20235e-04   1.34395e-04 DIIS
   @DF-RHF iter   3:  -551.28933991931001   -8.67668e-04   1.53895e-05 DIIS
   @DF-RHF iter   4:  -551.28935440975420   -1.44904e-05   4.03721e-06 DIIS
   @DF-RHF iter   5:  -551.28935691146614   -2.50171e-06   1.42585e-06 DIIS
   @DF-RHF iter   6:  -551.28935724574080   -3.34275e-07   9.70021e-07 DIIS
   @DF-RHF iter   7:  -551.28935735964842   -1.13908e-07   3.21895e-07 DIIS
   @DF-RHF iter   8:  -551.28935739174949   -3.21011e-08   1.44768e-07 DIIS
   @DF-RHF iter   9:  -551.28935739780036   -6.05087e-09   6.58943e-08 DIIS
   @DF-RHF iter  10:  -551.28935739864608   -8.45716e-10   2.42372e-08 DIIS
   @DF-RHF iter  11:  -551.28935739875442   -1.08344e-10   6.76800e-09 DIIS
   @DF-RHF iter  12:  -551.28935739877602   -2.16005e-11   2.89547e-09 DIIS
   @DF-RHF iter  13:  -551.28935739880558   -2.95586e-11   1.84434e-09 DIIS
   @DF-RHF iter  14:  -551.28935739878102    2.45564e-11   7.71288e-10 DIIS
   @DF-RHF iter  15:  -551.28935739876545    1.55751e-11   3.22345e-10 DIIS
   @DF-RHF iter  16:  -551.28935739877693   -1.14824e-11   1.15519e-10 DIIS
   @DF-RHF iter  17:  -551.28935739878489   -7.95808e-12   4.07225e-11 DIIS

  ==> Post-Iterations <==

    Orbital Energies (a.u.)
    -----------------------

    Doubly Occupied:                                                      

       1A    -20.594801     2A    -15.560950     3A    -11.309879  
       4A    -11.272589     5A    -11.272480     6A    -11.266138  
       7A    -11.252731     8A    -11.251464     9A    -11.249034  
      10A    -11.243943    11A    -11.240400    12A    -11.236478  
      13A    -11.236196    14A     -1.411766    15A     -1.255156  
      16A     -1.174828    17A     -1.105149    18A     -1.039418  
      19A     -1.029660    20A     -1.012114    21A     -0.880575  
      22A     -0.872951    23A     -0.840312    24A     -0.812405  
      25A     -0.749045    26A     -0.724993    27A     -0.684107  
      28A     -0.664337    29A     -0.651773    30A     -0.635866  
      31A     -0.631270    32A     -0.608297    33A     -0.599179  
      34A     -0.592510    35A     -0.556045    36A     -0.546956  
      37A     -0.531336    38A     -0.519313    39A     -0.508098  
      40A     -0.488526    41A     -0.418212    42A     -0.399436  
      43A     -0.355340    44A     -0.348593    45A     -0.313131  

    Virtual:                                                              

      46A      0.022078    47A      0.029556    48A      0.032097  
      49A      0.039417    50A      0.041445    51A      0.046121  
      52A      0.054418    53A      0.056997    54A      0.060272  
      55A      0.076540    56A      0.078437    57A      0.084367  
      58A      0.088843    59A      0.091334    60A      0.094403  
      61A      0.102210    62A      0.106488    63A      0.108050  
      64A      0.110133    65A      0.113275    66A      0.116079  
      67A      0.117409    68A      0.121715    69A      0.127919  
      70A      0.130017    71A      0.132424    72A      0.133569  
      73A      0.138298    74A      0.142400    75A      0.145443  
      76A      0.148755    77A      0.149516    78A      0.153765  
      79A      0.159591    80A      0.162342    81A      0.167938  
      82A      0.170966    83A      0.176502    84A      0.181344  
      85A      0.185243    86A      0.186690    87A      0.201084  
      88A      0.204524    89A      0.211191    90A      0.215993  
      91A      0.221686    92A      0.225338    93A      0.228070  
      94A      0.236242    95A      0.240322    96A      0.241951  
      97A      0.244083    98A      0.246103    99A      0.252037  
     100A      0.256787   101A      0.262513   102A      0.264741  
     103A      0.267199   104A      0.269127   105A      0.275149  
     106A      0.282029   107A      0.284181   108A      0.289407  
     109A      0.292747   110A      0.295404   111A      0.298470  
     112A      0.303510   113A      0.304702   114A      0.306876  
     115A      0.314288   116A      0.319353   117A      0.322540  
     118A      0.327388   119A      0.328340   120A      0.333273  
     121A      0.339805   122A      0.341930   123A      0.353915  
     124A      0.357923   125A      0.362493   126A      0.365513  
     127A      0.371091   128A      0.372501   129A      0.384027  
     130A      0.390145   131A      0.392686   132A      0.397336  
     133A      0.401725   134A      0.411306   135A      0.414906  
     136A      0.420471   137A      0.423867   138A      0.429357  
     139A      0.430806   140A      0.435519   141A      0.436663  
     142A      0.438386   143A      0.444264   144A      0.447090  
     145A      0.450981   146A      0.456389   147A      0.461158  
     148A      0.462854   149A      0.463750   150A      0.472468  
     151A      0.475234   152A      0.482113   153A      0.483938  
     154A      0.487523   155A      0.489090   156A      0.496366  
     157A      0.498888   158A      0.500411   159A      0.502047  
     160A      0.506679   161A      0.509149   162A      0.511760  
     163A      0.514650   164A      0.518520   165A      0.519214  
     166A      0.527109   167A      0.528705   168A      0.530220  
     169A      0.532423   170A      0.538513   171A      0.545016  
     172A      0.546191   173A      0.547982   174A      0.552399  
     175A      0.555431   176A      0.563264   177A      0.568746  
     178A      0.571584   179A      0.579645   180A      0.590131  
     181A      0.591636   182A      0.595418   183A      0.607073  
     184A      0.612363   185A      0.613438   186A      0.619726  
     187A      0.627055   188A      0.631961   189A      0.635951  
     190A      0.644199   191A      0.650830   192A      0.655392  
     193A      0.661264   194A      0.679338   195A      0.686455  
     196A      0.688326   197A      0.692915   198A      0.698223  
     199A      0.705675   200A      0.707945   201A      0.712723  
     202A      0.719940   203A      0.721704   204A      0.723962  
     205A      0.729042   206A      0.739253   207A      0.741457  
     208A      0.746975   209A      0.757231   210A      0.757671  
     211A      0.767518   212A      0.770457   213A      0.773480  
     214A      0.779207   215A      0.794426   216A      0.796917  
     217A      0.802778   218A      0.809095   219A      0.815400  
     220A      0.820944   221A      0.826257   222A      0.836301  
     223A      0.841117   224A      0.843648   225A      0.852010  
     226A      0.858929   227A      0.864064   228A      0.869619  
     229A      0.876002   230A      0.876594   231A      0.881201  
     232A      0.885009   233A      0.894002   234A      0.900244  
     235A      0.901647   236A      0.904284   237A      0.906524  
     238A      0.909624   239A      0.911252   240A      0.922103  
     241A      0.924267   242A      0.929743   243A      0.938423  
     244A      0.946655   245A      0.949328   246A      0.955292  
     247A      0.961458   248A      0.961793   249A      0.964850  
     250A      0.970867   251A      0.973883   252A      0.978225  
     253A      0.980653   254A      0.981897   255A      0.989046  
     256A      0.998361   257A      1.002751   258A      1.006795  
     259A      1.012237   260A      1.013464   261A      1.016631  
     262A      1.022476   263A      1.028157   264A      1.032086  
     265A      1.035227   266A      1.038628   267A      1.043228  
     268A      1.044081   269A      1.047079   270A      1.050773  
     271A      1.054257   272A      1.062493   273A      1.065787  
     274A      1.077834   275A      1.080157   276A      1.084717  
     277A      1.087901   278A      1.091470   279A      1.100432  
     280A      1.100834   281A      1.102468   282A      1.105220  
     283A      1.108667   284A      1.115647   285A      1.120277  
     286A      1.121312   287A      1.125777   288A      1.138778  
     289A      1.149252   290A      1.157521   291A      1.162557  
     292A      1.166910   293A      1.169727   294A      1.174221  
     295A      1.175970   296A      1.182688   297A      1.185207  
     298A      1.188264   299A      1.189962   300A      1.197097  
     301A      1.204057   302A      1.206375   303A      1.212999  
     304A      1.217074   305A      1.218527   306A      1.219218  
     307A      1.220830   308A      1.230260   309A      1.240810  
     310A      1.252752   311A      1.260472   312A      1.269053  
     313A      1.275606   314A      1.281721   315A      1.284805  
     316A      1.292761   317A      1.294984   318A      1.300520  
     319A      1.306387   320A      1.307827   321A      1.312237  
     322A      1.315112   323A      1.327479   324A      1.331483  
     325A      1.338504   326A      1.353148   327A      1.361768  
     328A      1.366276   329A      1.373032   330A      1.381075  
     331A      1.384199   332A      1.395594   333A      1.402491  
     334A      1.414145   335A      1.419138   336A      1.423018  
     337A      1.434509   338A      1.445598   339A      1.452462  
     340A      1.453973   341A      1.465625   342A      1.471301  
[...]
	 B(6,10,9)        =         2.123842	     121.687195
	 B(7,5,10)        =         2.088629	     119.669637
	 B(7,5,18)        =         2.091422	     119.829675
	 B(7,12,8)        =         2.034984	     116.595979
	 B(8,6,10)        =         2.088403	     119.656661
	 B(8,6,19)        =         2.091385	     119.827543
	 B(9,1,14)        =         2.087815	     119.622979
	 B(9,2,15)        =         2.086763	     119.562721
	 B(10,5,18)       =         2.102810	     120.482124
	 B(10,6,19)       =         2.103066	     120.496810
	 B(11,3,16)       =         2.088793	     119.679047
	 B(11,4,17)       =         2.075142	     118.896851
	 B(11,13,22)      =         1.904047	     109.093839
	 B(12,7,20)       =         2.028680	     116.234787
	 B(12,8,21)       =         2.028649	     116.233038
	 D(1,3,11,4)      =         0.036501	       2.091347
	 D(1,3,11,13)     =         3.095243	     177.344351
	 D(1,9,2,4)       =         0.012436	       0.712520
	 D(1,9,2,15)      =         3.116720	     178.574917
	 D(1,9,10,5)      =        -0.624051	     -35.755491
	 D(1,9,10,6)      =         2.517053	     144.216494
	 D(2,4,11,3)      =        -0.018582	      -1.064645
	 D(2,4,11,13)     =        -3.080798	    -176.516738
	 D(2,9,1,3)       =         0.005738	       0.328736
	 D(2,9,1,14)      =         3.098892	     177.553456
	 D(2,9,10,5)      =         2.522043	     144.502437
	 D(2,9,10,6)      =        -0.620038	     -35.525578
	 D(3,1,9,10)      =        -3.131471	    -179.420091
	 D(3,11,4,17)     =         3.134552	     179.596621
	 D(3,11,13,22)    =         0.782154	      44.814108
	 D(4,2,9,10)      =        -3.133545	    -179.538907
	 D(4,11,3,16)     =        -3.093877	    -177.266111
	 D(4,11,13,22)    =        -2.440811	    -139.848145
	 D(5,7,12,8)      =        -0.000888	      -0.050889
	 D(5,10,6,8)      =        -0.000469	      -0.026885
	 D(5,10,6,19)     =         3.113414	     178.385505
	 D(6,8,12,7)      =        -0.000409	      -0.023452
	 D(6,10,5,7)      =        -0.000722	      -0.041352
	 D(6,10,5,18)     =         3.113471	     178.388776
	 D(7,5,10,9)      =         3.140405	     179.931978
	 D(7,12,8,21)     =        -3.135163	    -179.631612
	 D(8,6,10,9)      =         3.141593	     180.000000
	 D(8,12,7,20)     =        -3.135368	    -179.643365
	 D(9,1,3,11)      =        -0.030219	      -1.731421
	 D(9,1,3,16)      =         3.100082	     177.621589
	 D(9,2,4,11)      =        -0.006035	      -0.345806
	 D(9,2,4,17)      =         3.123746	     178.977489
	 D(9,10,5,18)     =        -0.028587	      -1.637894
	 D(9,10,6,19)     =        -0.027713	      -1.587819
	 D(10,5,7,12)     =         0.001478	       0.084674
	 D(10,5,7,20)     =         3.135700	     179.662358
	 D(10,6,8,12)     =         0.001093	       0.062644
	 D(10,6,8,21)     =         3.135599	     179.656612
	 D(10,9,1,14)     =        -0.038316	      -2.195371
	 D(10,9,2,15)     =        -0.029261	      -1.676510
	 D(11,3,1,14)     =        -3.123509	    -178.963883
	 D(11,4,2,15)     =        -3.110412	    -178.213459
	 D(12,7,5,18)     =        -3.112896	    -178.355808
	 D(12,8,6,19)     =        -3.112978	    -178.360489
	 D(13,11,3,16)    =        -0.035135	      -2.013106
	 D(13,11,4,17)    =         0.072336	       4.144529
	 D(14,1,3,16)     =         0.006792	       0.389127
	 D(15,2,4,17)     =         0.019370	       1.109837
	 D(18,5,7,20)     =         0.021326	       1.221876
	 D(19,6,8,21)     =         0.021528	       1.233479

	Current energy   :      -553.7230830226

	Energy change for the previous step:
		Projected    :        -0.0000014500
		Actual       :         0.0000001671

	Performing BFGS update.
	Previous computed or guess Hessian on step 1.
	Steps to be used in Hessian update: 8 7
	Adding user-defined constraint: Fragment 1; Coordinate 73:
		Value =     0.782154; Fixed value    =     0.785400
		Force =     0.002272; Force constant =     0.700000
	Removing off-diagonal coupling between coordinate 73 and others.
	Taking RFO optimization step.
	Going to follow RFO solution 1.
	Rejecting RFO root 1 because normalization gives large value.
	Using RFO vector 2.

	Determining step-restricting scale parameter for RS-RFO.
	Maximum step size allowed    0.10000

	 Iter      |step|        alpha        rfo_root  
	------------------------------------------------
	    0   111.76699       1.00000           2
	    1    55.91048       1.99918           2
	    2    27.98223       3.99506           2
	    3    14.01813       7.97696           2
	    4     7.03611      15.90148           2
	    5     3.54517      31.59455           2
	    6     1.79985      62.36617           2
	    7     0.92747     121.52461           2
	    8     0.49187     230.86162           2
	    9     0.27524     417.69100           2
	   10     0.16926     691.02615           2
	   11     0.12070     986.35612           2
	   12     0.10318    1165.85628           2
	   13     0.10010    1204.28524           2
	   14     0.10000    1205.58738           2
	------------------------------------------------
	Norm of target step-size    0.10000
	Projected energy change by RFO approximation:         0.0000728302

	Back-transformation to cartesian coordinates...
	Could not converge backtransformation.
	Using first guess instead.

	--- Internal Coordinate Step in ANG or DEG, aJ/ANG or AJ/DEG ---
	 ---------------------------------------------------------------------------
	   Coordinate                Previous        Force       Change         New 
	   ----------                --------       ------       ------       ------
	    1 R(1,3)          =      1.385226     0.000023     0.000024     1.385251
	    2 R(1,9)          =      1.393855     0.000057     0.000848     1.394703
	    3 R(1,14)         =      1.079889     0.000046     0.000229     1.080118
	    4 R(2,4)          =      1.384556     0.000072    -0.000019     1.384537
	    5 R(2,9)          =      1.394405     0.000041     0.000675     1.395081
	    6 R(2,15)         =      1.079867     0.000042     0.000569     1.080437
	    7 R(3,11)         =      1.388606     0.000062     0.000409     1.389016
	    8 R(3,16)         =      1.080232     0.000032     0.000045     1.080277
	    9 R(4,11)         =      1.386808    -0.000030     0.000794     1.387602
	   10 R(4,17)         =      1.078775     0.000049     0.000314     1.079089
	   11 R(5,7)          =      1.385544     0.000011     0.000117     1.385660
	   12 R(5,10)         =      1.392006     0.000016     0.000745     1.392750
	   13 R(5,18)         =      1.079601     0.000032     0.000281     1.079883
	   14 R(6,8)          =      1.385548    -0.000001     0.000193     1.385741
	   15 R(6,10)         =      1.392029     0.000015     0.000434     1.392463
	   16 R(6,19)         =      1.079538     0.000023     0.000410     1.079949
	   17 R(7,12)         =      1.335050    -0.000003     0.000593     1.335644
	   18 R(7,20)         =      1.081139    -0.000001     0.000157     1.081295
	   19 R(8,12)         =      1.335120     0.000011     0.000655     1.335775
	   20 R(8,21)         =      1.081122    -0.000006     0.000056     1.081178
	   21 R(9,10)         =      1.461430     0.000183    -0.002988     1.458442
	   22 R(11,13)        =      1.370566     0.000116    -0.000642     1.369924
	   23 R(13,22)        =      0.961337     0.000102     0.000334     0.961671
	   24 B(1,3,11)       =    119.954985    -0.000000    -0.013734   119.941251
	   25 B(1,3,16)       =    120.362825     0.000000    -0.048235   120.314589
	   26 B(1,9,2)        =    118.247111     0.000000    -0.170333   118.076778
	   27 B(1,9,10)       =    120.827802    -0.000000     0.094355   120.922156
	   28 B(2,4,11)       =    119.916831    -0.000000     0.007241   119.924072
	   29 B(2,4,17)       =    121.182933     0.000000     0.007992   121.190926
	   30 B(2,9,10)       =    120.924602     0.000000     0.075680   121.000281
	   31 B(3,1,9)        =    120.979483    -0.000000     0.126411   121.105895
	   32 B(3,1,14)       =    119.340067    -0.000000    -0.161010   119.179057
	   33 B(3,11,4)       =    119.780013     0.000000    -0.046298   119.733715
	   34 B(3,11,13)      =    122.145786    -0.000000     0.124243   122.270030
	   35 B(4,2,9)        =    121.090336     0.000000     0.099187   121.189523
	   36 B(4,2,15)       =    119.312878    -0.000000    -0.140252   119.172626
	   37 B(4,11,13)      =    117.910636    -0.000000    -0.089134   117.821502
	   38 B(5,7,12)       =    123.712244    -0.000000     0.051875   123.764119
	   39 B(5,7,20)       =    120.051720     0.000000    -0.220376   119.831344
	   40 B(5,10,6)       =    116.642349     0.000000    -0.210604   116.431745
	   41 B(5,10,9)       =    121.670451    -0.000000     0.125369   121.795820
	   42 B(6,8,12)       =    123.723070    -0.000000     0.063264   123.786334
	   43 B(6,8,21)       =    120.042737     0.000000    -0.247986   119.794751
	   44 B(6,10,9)       =    121.687195    -0.000000     0.084321   121.771515
	   45 B(7,5,10)       =    119.669637    -0.000000     0.115804   119.785441
	   46 B(7,5,18)       =    119.829675     0.000000    -0.275416   119.554258
	   47 B(7,12,8)       =    116.595979     0.000001    -0.165923   116.430056
	   48 B(8,6,10)       =    119.656661    -0.000000     0.105997   119.762658
	   49 B(8,6,19)       =    119.827543     0.000000    -0.256097   119.571446
	   50 B(9,1,14)       =    119.622979     0.000000     0.031840   119.654819
	   51 B(9,2,15)       =    119.562721     0.000000     0.038347   119.601067
	   52 B(10,5,18)      =    120.482124    -0.000000     0.162750   120.644874
	   53 B(10,6,19)      =    120.496810    -0.000000     0.155119   120.651929
	   54 B(11,3,16)      =    119.679047    -0.000000     0.061449   119.740496
	   55 B(11,4,17)      =    118.896851     0.000000    -0.017695   118.879156
	   56 B(11,13,22)     =    109.093839    -0.000000    -0.033816   109.060023
	   57 B(12,7,20)      =    116.234787     0.000000     0.104384   116.339171
	   58 B(12,8,21)      =    116.233038     0.000000     0.110080   116.343118
	   59 D(1,3,11,4)     =      2.091347    -0.000000    -0.059987     2.031359
	   60 D(1,3,11,13)    =    177.344351    -0.000000    -0.223873   177.120479
	   61 D(1,9,2,4)      =      0.712520    -0.000000     0.090263     0.802783
	   62 D(1,9,2,15)     =    178.574917    -0.000000     0.003501   178.578417
	   63 D(1,9,10,5)     =    -35.755491    -0.000000     0.392637   -35.362854
	   64 D(1,9,10,6)     =    144.216494     0.000000     0.782025   144.998520
	   65 D(2,4,11,3)     =     -1.064645    -0.000000    -0.161850    -1.226495
	   66 D(2,4,11,13)    =   -176.516738    -0.000000    -0.015177  -176.531915
	   67 D(2,9,1,3)      =      0.328736    -0.000000    -0.313438     0.015298
	   68 D(2,9,1,14)     =    177.553456    -0.000000    -0.383822   177.169634
	   69 D(2,9,10,5)     =    144.502437    -0.000000     0.463001   144.965438
	   70 D(2,9,10,6)     =    -35.525578    -0.000000     0.852389   -34.673189
	   71 D(3,1,9,10)     =   -179.420091    -0.000000    -0.245679  -179.665769
	   72 D(3,11,4,17)    =    179.596621     0.000000     0.045876   179.642497
	   73 D(3,11,13,22)   =     44.814108     0.000001    -0.071091    44.743017
	   74 D(4,2,9,10)     =   -179.538907    -0.000000     0.022496  -179.516411
	   75 D(4,11,3,16)    =   -177.266111     0.000000    -0.008519  -177.274630
	   76 D(4,11,13,22)   =   -139.848145     0.000001    -0.230294  -140.078440
	   77 D(5,7,12,8)     =     -0.050889    -0.000000    -0.605255    -0.656144
	   78 D(5,10,6,8)     =     -0.026885    -0.000000    -0.661145    -0.688029
	   79 D(5,10,6,19)    =    178.385505    -0.000000    -0.438766   177.946739
	   80 D(6,8,12,7)     =     -0.023452    -0.000000    -1.237868    -1.261320
	   81 D(6,10,5,7)     =     -0.041352    -0.000000    -1.031789    -1.073141
	   82 D(6,10,5,18)    =    178.388776    -0.000000    -0.896979   177.491798
	   83 D(7,5,10,9)     =    179.931978    -0.000000    -0.662031   179.269947
	   84 D(7,12,8,21)    =   -179.631612     0.000000     1.551321  -178.080291
	   85 D(8,6,10,9)     =    180.000000    -0.000000    -1.031026   178.968974
	   86 D(8,12,7,20)    =   -179.643365     0.000000     1.940311  -177.703054
	   87 D(9,1,3,11)     =     -1.731421     0.000000     0.300968    -1.430454
	   88 D(9,1,3,16)     =    177.621589    -0.000000     0.249915   177.871504
	   89 D(9,2,4,11)     =     -0.345806     0.000000     0.145159    -0.200647
	   90 D(9,2,4,17)     =    178.977489    -0.000000    -0.067644   178.909845
	   91 D(9,10,5,18)    =     -1.637894    -0.000000    -0.527221    -2.165115
	   92 D(9,10,6,19)    =     -1.587819    -0.000000    -0.808439    -2.396258
	   93 D(10,5,7,12)    =      0.084674     0.000000     1.759973     1.844648
	   94 D(10,5,7,20)    =    179.662358    -0.000000    -0.868556   178.793802
	   95 D(10,6,8,12)    =      0.062644     0.000000     1.898022     1.960666
	   96 D(10,6,8,21)    =    179.656612    -0.000000    -0.980976   178.675636
	   97 D(10,9,1,14)    =     -2.195371    -0.000000    -0.316062    -2.511433
	   98 D(10,9,2,15)    =     -1.676510    -0.000000    -0.064266    -1.740776
	   99 D(11,3,1,14)    =   -178.963883     0.000000     0.365791  -178.598093
	  100 D(11,4,2,15)    =   -178.213459     0.000000     0.227824  -177.985634
	  101 D(12,7,5,18)    =   -178.355808     0.000000     1.619766  -176.736042
	  102 D(12,8,6,19)    =   -178.360489     0.000000     1.671534  -176.688955
	  103 D(13,11,3,16)   =     -2.013106     0.000000    -0.172404    -2.185510
	  104 D(13,11,4,17)   =      4.144529     0.000000     0.192548     4.337077
	  105 D(14,1,3,16)    =      0.389127     0.000000     0.314737     0.703865
	  106 D(15,2,4,17)    =      1.109837    -0.000000     0.015022     1.124859
	  107 D(18,5,7,20)    =      1.221876    -0.000000    -1.008763     0.213112
	  108 D(19,6,8,21)    =      1.233479    -0.000000    -1.207464     0.026015
	 ---------------------------------------------------------------------------
	Successfully symmetrized geometry.
	 Forces used to impose fixed constraints are not included.
	  Forces zeroed: 73 

  ==> Convergence Check <==

  Measures of convergence in internal coordinates in au.
  Criteria marked as inactive (o), active & met (*), and active & unmet ( ).
  ---------------------------------------------------------------------------------------------
   Step     Total Energy     Delta E     MAX Force     RMS Force      MAX Disp      RMS Disp   
  ---------------------------------------------------------------------------------------------
    Convergence Criteria    1.00e-06 *    3.00e-04 *             o    1.20e-03 *             o
  ---------------------------------------------------------------------------------------------
      9    -553.72308302    1.67e-07 *    6.39e-05 *    1.00e-05 o    3.39e-02      9.63e-03 o  ~
  ---------------------------------------------------------------------------------------------


  **** Optimization is complete! (in 9 steps) ****

  ==> Optimization Summary <==

  Measures of convergence in internal coordinates in au.
  --------------------------------------------------------------------------------------------------------------- ~
   Step         Total Energy             Delta E       MAX Force       RMS Force        MAX Disp        RMS Disp  ~
  --------------------------------------------------------------------------------------------------------------- ~
      1    -553.719050651584   -553.719050651584      0.01873552      0.00469940      0.03486121      0.00961549  ~
      2    -553.722111353077     -0.003060701493      0.00520034      0.00151918      0.03654300      0.00960484  ~
      3    -553.722855106192     -0.000743753115      0.00104328      0.00039335      0.03465315      0.00962078  ~
      4    -553.723041875859     -0.000186769667      0.00076809      0.00018005      0.03286624      0.00654121  ~
      5    -553.723081496631     -0.000039620772      0.00035918      0.00010823      0.01362004      0.00277525  ~
      6    -553.723088035704     -0.000006539073      0.00031416      0.00005304      0.00340564      0.00083298  ~
      7    -553.723086924168      0.000001111536      0.00025849      0.00003509      0.00240413      0.00064120  ~
      8    -553.723083189750      0.000003734418      0.00011099      0.00002356      0.00211547      0.00064675  ~
      9    -553.723083022640      0.000000167110      0.00006441      0.00001177      0.03386481      0.00962880  ~
  --------------------------------------------------------------------------------------------------------------- ~

	Writing optimization data to binary file.
	Final energy is   -553.7230830226403
	Final (previous) structure:
	Cartesian Geometry (in Angstrom)
	    C    -1.2470763840   0.7566764695  -0.5621916869
	    C    -0.3156382228   0.0611122993   1.5295845091
	    C    -2.3182889221   1.3303008565   0.1028728075
	    C    -1.3940028658   0.6135460920   2.1996158119
	    C     0.7586427234  -1.0911805103  -1.8053191772
	    C     2.1928466530  -0.4556515342  -0.0298182728
	    C     1.8635346096  -1.6389066737  -2.4369370548
	    C     3.2384825072  -1.0307733102  -0.7338247906
	    C    -0.2269253797   0.1161085271   0.1390912404
	    C     0.9080312338  -0.4769745205  -0.5651121601
	    C    -2.4043944885   1.2403928523   1.4858877063
	    N     3.0958172419  -1.6194127921  -1.9236549029
	    O    -3.4153040322   1.8364195378   2.1938889243
	    H    -1.1812763685   0.8470624716  -1.6362781294
	    H     0.4510819779  -0.4500722667   2.0925623571
	    H    -3.0838113578   1.8574778133  -0.4475467543
	    H    -1.4722310510   0.5575495883   3.2740924032
	    H    -0.2149811300  -1.1657496750  -2.2657915642
	    H     2.3841701369   0.0275060032   0.9164148431
	    H     1.7536187405  -2.1222188387  -3.3977644392
	    H     4.2397812481  -1.0128606058  -0.3265115182
	    H    -4.2515900323   1.6672707092   1.7509634452
	Saving final (previous) structure.
			--------------------------
			 OPTKING Finished Execution 
			--------------------------

    Final optimized geometry and variables:
    Molecular point group: c1
    Full point group: C1

    Geometry (in Angstrom), charge = 0, multiplicity = 1:

    C           -1.247076384010     0.756676469530    -0.562191686862
    C           -0.315638222752     0.061112299292     1.529584509067
    C           -2.318288922090     1.330300856519     0.102872807507
    C           -1.394002865788     0.613546091990     2.199615811872
    C            0.758642723378    -1.091180510263    -1.805319177215
    C            2.192846653020    -0.455651534246    -0.029818272770
    C            1.863534609589    -1.638906673695    -2.436937054803
    C            3.238482507186    -1.030773310206    -0.733824790616
    C           -0.226925379729     0.116108527091     0.139091240417
    C            0.908031233770    -0.476974520485    -0.565112160099
    C           -2.404394488537     1.240392852311     1.485887706340
    N            3.095817241913    -1.619412792050    -1.923654902944
    O           -3.415304032249     1.836419537849     2.193888924290
    H           -1.181276368535     0.847062471643    -1.636278129420
    H            0.451081977860    -0.450072266721     2.092562357123
    H           -3.083811357759     1.857477813316    -0.447546754276
    H           -1.472231050975     0.557549588309     3.274092403243
    H           -0.214981130045    -1.165749675024    -2.265791564162
    H            2.384170136858     0.027506003221     0.916414843109
    H            1.753618740494    -2.122218838672    -3.397764439171
    H            4.239781248050    -1.012860605846    -0.326511518158
    H           -4.251590032345     1.667270709203     1.750963445161

	Cleaning optimization helper files.

*** Psi4 exiting successfully. Buy a developer a beer!
