
    -----------------------------------------------------------------------
          Psi4: An Open-Source Ab Initio Electronic Structure Package
                               Psi4 1.1 release

                         Git: Rev {HEAD} add49b9 


    R. M. Parrish, L. A. Burns, D. G. A. Smith, A. C. Simmonett,
    A. E. DePrince III, E. G. Hohenstein, U. Bozkaya, A. Yu. Sokolov,
    R. Di Remigio, R. M. Richard, J. F. Gonthier, A. M. James,
    H. R. McAlexander, A. Kumar, M. Saitow, X. Wang, B. P. Pritchard,
    P. Verma, H. F. Schaefer III, K. Patkowski, R. A. King, E. F. Valeev,
    F. A. Evangelista, J. M. Turney, T. D. Crawford, and C. D. Sherrill,
    J. Chem. Theory Comput. in press (2017).
    (doi: 10.1021/acs.jctc.7b00174)

    -----------------------------------------------------------------------


    Psi4 started on: Sunday, 12 November 2017 02:25AM

    Process ID:  15287
    PSIDATADIR: /cbio/jclab/home/chayas/anaconda/envs/py35/share/psi4
    Memory:     500.0 MiB
    Threads:    8
    
  ==> Input File <==

--------------------------------------------------------------------------

memory 5 Gb

molecule phepyrFOH_zwitterion {
  symmetry C1
  0 1 
  C      1.885   -1.036   -0.112
  C      0.807   -0.463   0.561
  C      5.157   -1.455   -0.399
  C      3.995   -3.564   -0.468
  C      1.800   -1.079   2.676
  C      6.213   -2.050   -1.075
  C      5.080   -4.106   -1.142
  C      2.921   -1.631   0.608
  C      4.038   -2.224   -0.095
  C      0.764   -0.484   1.955
  C      2.878   -1.652   2.002
  N      6.145   -3.343   -1.422
  O      -0.227   0.043   2.574
  F      3.866   -2.220   2.709
  H      1.904   -1.013   -1.200
  H      0.011   -0.007   -0.025
  H      5.218   -0.408   -0.120
  H      3.134   -4.187   -0.244
  H      1.791   -1.109   3.764
  H      7.121   -1.531   -1.351
  H      5.134   -5.135   -1.469
  H      6.932   -3.760   -1.919
  units Angstrom
}

dih_string = "1 8 9 3 90"
set optking fixed_dihedral = $dih_string

optimize('MP2/aug-cc-PVTZ')
--------------------------------------------------------------------------

  Memory set to   4.657 GiB by Python driver.
gradient() will perform analytic gradient computation.

*** tstart() called on gpu-2-8.local
*** at Sun Nov 12 02:25:03 2017

    SCF Algorithm Type (re)set to DF.

*** tstart() called on gpu-2-8.local
*** at Sun Nov 12 02:25:03 2017

   => Loading Basis Set <=

    Name: AUG-CC-PVTZ
    Role: ORBITAL
    Keyword: BASIS
    atoms 1-11  entry C          line   221 file /cbio/jclab/home/chayas/anaconda/envs/py35/share/psi4/basis/aug-cc-pvtz.gbs 
    atoms 12    entry N          line   267 file /cbio/jclab/home/chayas/anaconda/envs/py35/share/psi4/basis/aug-cc-pvtz.gbs 
    atoms 13    entry O          line   313 file /cbio/jclab/home/chayas/anaconda/envs/py35/share/psi4/basis/aug-cc-pvtz.gbs 
    atoms 14    entry F          line   359 file /cbio/jclab/home/chayas/anaconda/envs/py35/share/psi4/basis/aug-cc-pvtz.gbs 
    atoms 15-22 entry H          line    34 file /cbio/jclab/home/chayas/anaconda/envs/py35/share/psi4/basis/aug-cc-pvtz.gbs 


         ---------------------------------------------------------
                                   SCF
            by Justin Turney, Rob Parrish, and Andy Simmonett
                              RHF Reference
                        8 Threads,   4768 MiB Core
         ---------------------------------------------------------

  ==> Geometry <==

    Molecular point group: c1
    Full point group: C1

    Geometry (in Angstrom), charge = 0, multiplicity = 1:

       Center              X                  Y                   Z               Mass       
    ------------   -----------------  -----------------  -----------------  -----------------
           C         -1.361665801493     0.775673413220    -0.769324724754    12.000000000000
           C         -2.439665801493     1.348673413220    -0.096324724754    12.000000000000
           C          1.910334198507     0.356673413220    -1.056324724754    12.000000000000
           C          0.748334198507    -1.752326586780    -1.125324724754    12.000000000000
           C         -1.446665801493     0.732673413220     2.018675275246    12.000000000000
           C          2.966334198507    -0.238326586780    -1.732324724754    12.000000000000
           C          1.833334198507    -2.294326586780    -1.799324724754    12.000000000000
           C         -0.325665801493     0.180673413220    -0.049324724754    12.000000000000
           C          0.791334198507    -0.412326586780    -0.752324724754    12.000000000000
           C         -2.482665801493     1.327673413220     1.297675275246    12.000000000000
           C         -0.368665801493     0.159673413220     1.344675275246    12.000000000000
           N          2.898334198507    -1.531326586780    -2.079324724754    14.003074004780
           O         -3.473665801493     1.854673413220     1.916675275246    15.994914619560
           F          0.619334198507    -0.408326586780     2.051675275246    18.998403224000
           H         -1.342665801493     0.798673413220    -1.857324724754     1.007825032070
           H         -3.235665801493     1.804673413220    -0.682324724754     1.007825032070
           H          1.971334198507     1.403673413220    -0.777324724754     1.007825032070
           H         -0.112665801493    -2.375326586780    -0.901324724754     1.007825032070
           H         -1.455665801493     0.702673413220     3.106675275246     1.007825032070
           H          3.874334198507     0.280673413220    -2.008324724754     1.007825032070
           H          1.887334198507    -3.323326586780    -2.126324724754     1.007825032070
           H          3.685334198507    -1.948326586780    -2.576324724754     1.007825032070

  Running in c1 symmetry.

  Rotational constants: A =      0.06297  B =      0.01293  C =      0.01204 [cm^-1]
  Rotational constants: A =   1887.66004  B =    387.49824  C =    360.92042 [MHz]
  Nuclear repulsion =  815.972780783830331

  Charge       = 0
  Multiplicity = 1
  Electrons    = 98
  Nalpha       = 49
  Nbeta        = 49

  ==> Algorithm <==

  SCF Algorithm Type is DF.
  DIIS enabled.
  MOM disabled.
  Fractional occupation disabled.
  Guess Type is SAD.
  Energy threshold   = 1.00e-10
  Density threshold  = 1.00e-10
  Integral threshold = 0.00e+00

  ==> Primary Basis <==

  Basis Set: AUG-CC-PVTZ
    Blend: AUG-CC-PVTZ
    Number of shells: 268
    Number of basis function: 828
    Number of Cartesian functions: 970
    Spherical Harmonics?: true
    Max angular momentum: 3

   => Loading Basis Set <=

    Name: (AUG-CC-PVTZ AUX)
    Role: JKFIT
    Keyword: DF_BASIS_SCF
    atoms 1-11  entry C          line   161 file /cbio/jclab/home/chayas/anaconda/envs/py35/share/psi4/basis/aug-cc-pvtz-jkfit.gbs 
    atoms 12    entry N          line   223 file /cbio/jclab/home/chayas/anaconda/envs/py35/share/psi4/basis/aug-cc-pvtz-jkfit.gbs 
    atoms 13    entry O          line   285 file /cbio/jclab/home/chayas/anaconda/envs/py35/share/psi4/basis/aug-cc-pvtz-jkfit.gbs 
    atoms 14    entry F          line   347 file /cbio/jclab/home/chayas/anaconda/envs/py35/share/psi4/basis/aug-cc-pvtz-jkfit.gbs 
    atoms 15-22 entry H          line    69 file /cbio/jclab/home/chayas/anaconda/envs/py35/share/psi4/basis/aug-cc-pvtz-jkfit.gbs 

  ==> Pre-Iterations <==

   -------------------------------------------------------
    Irrep   Nso     Nmo     Nalpha   Nbeta   Ndocc  Nsocc
   -------------------------------------------------------
     A        828     828       0       0       0       0
   -------------------------------------------------------
    Total     828     828      49      49      49       0
   -------------------------------------------------------

  ==> Integral Setup <==

  ==> DFJK: Density-Fitted J/K Matrices <==

    J tasked:                  Yes
    K tasked:                  Yes
    wK tasked:                  No
    OpenMP threads:              8
    Integrals threads:           8
    Memory (MB):              3576
    Algorithm:                Disk
    Integral Cache:           NONE
    Schwarz Cutoff:          1E-12
    Fitting Condition:       1E-12

   => Auxiliary Basis Set <=

  Basis Set: (AUG-CC-PVTZ AUX)
    Blend: AUG-CC-PVTZ-JKFIT
    Number of shells: 532
    Number of basis function: 1824
    Number of Cartesian functions: 2274
    Spherical Harmonics?: true
    Max angular momentum: 4

  Minimum eigenvalue in the overlap matrix is 7.5707204442E-07.
  Using Symmetric Orthogonalization.

  SCF Guess: Superposition of Atomic Densities via on-the-fly atomic UHF.

  ==> Iterations <==

                           Total Energy        Delta E     RMS |[F,P]|

   @DF-RHF iter   0:  -656.66829747037900   -6.56668e+02   2.05495e-02 
   @DF-RHF iter   1:  -649.57980369703080    7.08849e+00   2.06134e-03 
   @DF-RHF iter   2:  -649.90795592601876   -3.28152e-01   1.80108e-03 DIIS
   @DF-RHF iter   3:  -650.05320684024548   -1.45251e-01   5.90746e-04 DIIS
   @DF-RHF iter   4:  -650.07730494859300   -2.40981e-02   1.57783e-04 DIIS
   @DF-RHF iter   5:  -650.08027667039698   -2.97172e-03   8.03518e-05 DIIS
   @DF-RHF iter   6:  -650.08098995793785   -7.13288e-04   3.09916e-05 DIIS
   @DF-RHF iter   7:  -650.08113329013236   -1.43332e-04   1.30746e-05 DIIS
   @DF-RHF iter   8:  -650.08115466148763   -2.13714e-05   4.30030e-06 DIIS
   @DF-RHF iter   9:  -650.08115957355415   -4.91207e-06   2.58099e-06 DIIS
   @DF-RHF iter  10:  -650.08116104190071   -1.46835e-06   1.06205e-06 DIIS
   @DF-RHF iter  11:  -650.08116135303703   -3.11136e-07   2.47894e-07 DIIS
   @DF-RHF iter  12:  -650.08116138112212   -2.80851e-08   1.19421e-07 DIIS
   @DF-RHF iter  13:  -650.08116138448463   -3.36252e-09   4.29859e-08 DIIS
   @DF-RHF iter  14:  -650.08116138531466   -8.30028e-10   2.30942e-08 DIIS
   @DF-RHF iter  15:  -650.08116138548257   -1.67915e-10   1.00277e-08 DIIS
   @DF-RHF iter  16:  -650.08116138553703   -5.44560e-11   5.40938e-09 DIIS
   @DF-RHF iter  17:  -650.08116138556511   -2.80806e-11   2.25548e-09 DIIS
   @DF-RHF iter  18:  -650.08116138556966   -4.54747e-12   8.02551e-10 DIIS
   @DF-RHF iter  19:  -650.08116138555545    1.42109e-11   2.84367e-10 DIIS
   @DF-RHF iter  20:  -650.08116138555567   -2.27374e-13   1.19687e-10 DIIS
   @DF-RHF iter  21:  -650.08116138555397    1.70530e-12   6.23423e-11 DIIS

  ==> Post-Iterations <==

    Orbital Energies (a.u.)
    -----------------------

    Doubly Occupied:                                                      

       1A    -26.296026     2A    -20.392315     3A    -15.746487  
       4A    -11.389084     5A    -11.388933     6A    -11.336484  
       7A    -11.314192     8A    -11.314151     9A    -11.300227  
      10A    -11.219174    11A    -11.219166    12A    -11.201113  
      13A    -11.166033    14A    -11.164529    15A     -1.615278  
      16A     -1.420968    17A     -1.224740    18A     -1.199778  
      19A     -1.142097    20A     -1.104639    21A     -1.000163  
      22A     -0.977382    23A     -0.968199    24A     -0.914188  
      25A     -0.870120    26A     -0.812308    27A     -0.795500  
      28A     -0.770432    29A     -0.746275    30A     -0.711797  
      31A     -0.701134    32A     -0.687861    33A     -0.684551  
      34A     -0.679606    35A     -0.662148    36A     -0.619030  
      37A     -0.611150    38A     -0.577773    39A     -0.566876  
      40A     -0.523820    41A     -0.494153    42A     -0.481165  
      43A     -0.458699    44A     -0.454708    45A     -0.441025  
      46A     -0.392748    47A     -0.311446    48A     -0.304110  
      49A     -0.221048  

    Virtual:                                                              

      50A     -0.020911    51A     -0.000309    52A      0.002948  
      53A      0.016291    54A      0.025913    55A      0.032098  
      56A      0.037587    57A      0.037877    58A      0.048653  
      59A      0.055274    60A      0.058023    61A      0.066327  
      62A      0.069485    63A      0.073058    64A      0.075363  
      65A      0.085845    66A      0.092518    67A      0.095797  
      68A      0.099870    69A      0.105928    70A      0.112653  
      71A      0.120391    72A      0.123257    73A      0.125771  
      74A      0.125925    75A      0.127721    76A      0.130500  
      77A      0.130657    78A      0.146771    79A      0.147011  
      80A      0.157517    81A      0.157785    82A      0.158976  
      83A      0.162047    84A      0.173047    85A      0.174343  
      86A      0.179560    87A      0.183216    88A      0.189002  
      89A      0.190050    90A      0.190584    91A      0.191655  
      92A      0.198605    93A      0.202545    94A      0.205123  
      95A      0.206645    96A      0.209623    97A      0.220402  
      98A      0.221606    99A      0.229966   100A      0.241318  
     101A      0.241980   102A      0.242392   103A      0.243889  
     104A      0.247150   105A      0.253727   106A      0.260267  
     107A      0.261156   108A      0.265030   109A      0.268633  
     110A      0.275166   111A      0.277272   112A      0.287175  
     113A      0.288785   114A      0.295565   115A      0.296146  
     116A      0.299429   117A      0.300445   118A      0.303259  
     119A      0.312321   120A      0.319880   121A      0.323240  
     122A      0.331236   123A      0.335506   124A      0.337404  
     125A      0.340629   126A      0.346946   127A      0.350850  
     128A      0.356130   129A      0.356789   130A      0.358410  
     131A      0.358412   132A      0.366314   133A      0.374390  
     134A      0.375294   135A      0.379858   136A      0.382531  
     137A      0.385475   138A      0.387475   139A      0.390360  
     140A      0.398245   141A      0.403027   142A      0.408419  
     143A      0.412976   144A      0.417099   145A      0.418386  
     146A      0.424409   147A      0.433575   148A      0.435079  
     149A      0.441092   150A      0.446634   151A      0.449632  
     152A      0.455932   153A      0.457361   154A      0.461151  
     155A      0.466718   156A      0.473683   157A      0.473932  
     158A      0.475810   159A      0.476514   160A      0.477129  
     161A      0.482476   162A      0.485817   163A      0.494351  
     164A      0.498630   165A      0.498835   166A      0.502863  
     167A      0.508115   168A      0.508545   169A      0.518413  
     170A      0.524537   171A      0.527271   172A      0.533798  
     173A      0.537076   174A      0.538013   175A      0.546944  
     176A      0.548042   177A      0.553016   178A      0.554049  
     179A      0.562019   180A      0.575651   181A      0.581324  
     182A      0.587722   183A      0.589505   184A      0.594899  
     185A      0.598175   186A      0.603688   187A      0.604889  
     188A      0.605484   189A      0.610645   190A      0.611045  
     191A      0.626287   192A      0.631658   193A      0.634007  
     194A      0.644937   195A      0.647866   196A      0.657051  
     197A      0.662875   198A      0.669537   199A      0.671656  
     200A      0.675392   201A      0.680052   202A      0.687527  
     203A      0.689103   204A      0.697534   205A      0.700208  
     206A      0.712711   207A      0.713477   208A      0.717971  
     209A      0.724815   210A      0.730674   211A      0.735044  
     212A      0.736225   213A      0.743479   214A      0.744449  
     215A      0.749573   216A      0.759822   217A      0.764678  
     218A      0.774849   219A      0.776886   220A      0.783215  
     221A      0.788868   222A      0.790650   223A      0.801888  
     224A      0.803508   225A      0.816204   226A      0.821679  
     227A      0.832853   228A      0.840541   229A      0.841581  
     230A      0.846637   231A      0.853877   232A      0.858187  
     233A      0.864348   234A      0.866258   235A      0.870374  
     236A      0.873739   237A      0.887577   238A      0.888509  
     239A      0.900406   240A      0.900605   241A      0.901242  
     242A      0.911547   243A      0.911578   244A      0.917941  
     245A      0.921714   246A      0.924190   247A      0.926030  
     248A      0.936253   249A      0.946654   250A      0.947296  
     251A      0.954451   252A      0.956091   253A      0.958375  
     254A      0.966499   255A      0.974940   256A      0.975594  
     257A      0.975938   258A      0.983341   259A      0.991277  
     260A      0.993599   261A      0.998735   262A      1.004630  
     263A      1.006853   264A      1.011497   265A      1.013452  
     266A      1.021553   267A      1.034069   268A      1.034336  
     269A      1.039829   270A      1.043643   271A      1.051117  
     272A      1.052820   273A      1.058316   274A      1.058814  
     275A      1.067270   276A      1.072326   277A      1.072913  
     278A      1.076181   279A      1.076377   280A      1.081718  
     281A      1.086004   282A      1.094170   283A      1.098665  
     284A      1.103367   285A      1.103391   286A      1.109867  
     287A      1.113357   288A      1.116702   289A      1.123202  
     290A      1.123823   291A      1.146606   292A      1.151770  
     293A      1.153291   294A      1.161463   295A      1.163667  
     296A      1.166876   297A      1.169759   298A      1.174924  
     299A      1.179517   300A      1.189990   301A      1.196303  
     302A      1.201955   303A      1.205943   304A      1.210863  
     305A      1.214616   306A      1.216308   307A      1.224374  
     308A      1.227897   309A      1.231829   310A      1.244034  
     311A      1.250781   312A      1.253209   313A      1.253892  
     314A      1.255567   315A      1.263391   316A      1.270606  
     317A      1.278988   318A      1.283869   319A      1.284698  
     320A      1.291514   321A      1.307390   322A      1.309391  
     323A      1.313321   324A      1.325762   325A      1.329486  
     326A      1.339803   327A      1.340898   328A      1.342372  
     329A      1.348876   330A      1.352339   331A      1.362189  
     332A      1.366863   333A      1.371077   334A      1.376856  
     335A      1.392149   336A      1.393378   337A      1.401059  
     338A      1.409783   339A      1.412024   340A      1.416755  
     341A      1.431174   342A      1.431830   343A      1.435136  
     344A      1.440892   345A      1.454714   346A      1.460204  
     347A      1.468511   348A      1.483679   349A      1.487723  
     350A      1.492669   351A      1.497989   352A      1.498848  
     353A      1.512020   354A      1.518808   355A      1.523127  
     356A      1.538238   357A      1.549929   358A      1.558041  
     359A      1.562372   360A      1.566498   361A      1.575895  
     362A      1.583464   363A      1.587906   364A      1.612101  
     365A      1.613154   366A      1.616908   367A      1.621947  
     368A      1.622827   369A      1.630966   370A      1.634073  
     371A      1.645573   372A      1.650047   373A      1.656617  
     374A      1.660185   375A      1.686967   376A      1.687152  
     377A      1.694618   378A      1.706755   379A      1.725912  
     380A      1.731350   381A      1.736694   382A      1.740114  
     383A      1.753047   384A      1.756934   385A      1.764590  
     386A      1.766598   387A      1.770612   388A      1.773132  
     389A      1.786683   390A      1.798544   391A      1.800896  
     392A      1.811848   393A      1.814518   394A      1.824229  
     395A      1.838114   396A      1.849566   397A      1.852565  
     398A      1.859048   399A      1.860605   400A      1.875010  
     401A      1.876580   402A      1.910831   403A      1.914849  
     404A      1.917164   405A      1.926195   406A      1.941848  
     407A      1.945987   408A      1.952099   409A      1.958919  
     410A      1.961631   411A      1.969574   412A      1.970437  
     413A      1.974421   414A      1.984574   415A      1.986387  
     416A      1.990578   417A      2.010974   418A      2.022802  
     419A      2.023211   420A      2.034723   421A      2.041513  
     422A      2.043201   423A      2.055005   424A      2.062513  
     425A      2.068495   426A      2.081154   427A      2.094708  
     428A      2.100858   429A      2.110422   430A      2.114513  
     431A      2.117897   432A      2.132089   433A      2.140592  
     434A      2.143090   435A      2.159595   436A      2.163328  
     437A      2.171907   438A      2.172314   439A      2.175102  
     440A      2.189893   441A      2.197802   442A      2.205085  
     443A      2.224312   444A      2.228180   445A      2.233827  
     446A      2.238517   447A      2.246469   448A      2.259062  
     449A      2.282512   450A      2.296785   451A      2.307860  
     452A      2.312461   453A      2.312584   454A      2.328040  
     455A      2.331181   456A      2.333883   457A      2.345231  
     458A      2.366761   459A      2.368670   460A      2.383324  
     461A      2.396809   462A      2.400662   463A      2.410519  
     464A      2.414766   465A      2.420136   466A      2.442515  
     467A      2.448099   468A      2.461574   469A      2.474394  
     470A      2.484558   471A      2.491339   472A      2.507144  
     473A      2.509222   474A      2.526094   475A      2.533651  
     476A      2.552781   477A      2.554400   478A      2.570768  
     479A      2.580118   480A      2.588402   481A      2.616195  
     482A      2.619665   483A      2.623776   484A      2.636643  
     485A      2.650597   486A      2.661716   487A      2.675123  
     488A      2.679070   489A      2.691641   490A      2.694497  
     491A      2.755898   492A      2.762848   493A      2.782912  
     494A      2.803283   495A      2.804689   496A      2.805087  
     497A      2.821649   498A      2.840900   499A      2.854931  
     500A      2.897553   501A      2.899193   502A      2.918211  
     503A      2.927520   504A      2.964939   505A      2.997083  
     506A      3.002416   507A      3.021219   508A      3.030429  
     509A      3.041259   510A      3.061386   511A      3.062576  
     512A      3.070811   513A      3.076591   514A      3.111428  
     515A      3.128626   516A      3.141081   517A      3.149866  
     518A      3.173388   519A      3.181950   520A      3.204624  
     521A      3.208224   522A      3.227802   523A      3.238010  
     524A      3.246112   525A      3.251834   526A      3.267401  
     527A      3.276249   528A      3.281020   529A      3.305311  
     530A      3.328832   531A      3.338470   532A      3.340557  
     533A      3.341008   534A      3.361481   535A      3.371230  
     536A      3.389442   537A      3.398313   538A      3.402587  
     539A      3.404559   540A      3.416339   541A      3.423740  
     542A      3.431074   543A      3.443640   544A      3.460288  
     545A      3.465780   546A      3.474097   547A      3.486753  
     548A      3.495976   549A      3.501426   550A      3.510156  
     551A      3.520810   552A      3.536907   553A      3.540594  
     554A      3.549440   555A      3.549897   556A      3.574392  
     557A      3.578114   558A      3.579133   559A      3.582803  
     560A      3.589302   561A      3.605731   562A      3.610467  
     563A      3.622389   564A      3.643733   565A      3.646023  
     566A      3.662504   567A      3.665534   568A      3.681353  
     569A      3.685167   570A      3.702833   571A      3.704222  
     572A      3.708334   573A      3.711912   574A      3.720622  
     575A      3.724756   576A      3.729206   577A      3.751709  
     578A      3.758454   579A      3.762790   580A      3.770603  
     581A      3.772993   582A      3.779194   583A      3.796744  
     584A      3.800323   585A      3.814475   586A      3.826170  
     587A      3.839490   588A      3.839677   589A      3.841736  
     590A      3.847742   591A      3.856117   592A      3.877300  
     593A      3.886744   594A      3.892266   595A      3.899946  
     596A      3.906925   597A      3.913681   598A      3.922425  
     599A      3.948634   600A      3.950756   601A      3.966834  
     602A      3.969760   603A      3.972522   604A      3.981058  
     605A      3.984041   606A      3.986708   607A      4.000716  
     608A      4.010476   609A      4.025756   610A      4.031054  
     611A      4.043260   612A      4.046759   613A      4.059373  
     614A      4.080779   615A      4.087403   616A      4.090728  
     617A      4.099067   618A      4.112232   619A      4.113902  
     620A      4.117040   621A      4.132945   622A      4.133830  
     623A      4.140378   624A      4.148434   625A      4.174661  
     626A      4.176872   627A      4.184560   628A      4.184930  
     629A      4.191546   630A      4.194833   631A      4.211464  
     632A      4.214903   633A      4.236709   634A      4.262211  
     635A      4.277123   636A      4.278888   637A      4.285023  
     638A      4.288297   639A      4.294599   640A      4.304195  
     641A      4.306438   642A      4.318883   643A      4.331113  
     644A      4.337365   645A      4.347642   646A      4.349817  
     647A      4.361402   648A      4.375931   649A      4.385253  
     650A      4.404848   651A      4.410498   652A      4.411055  
     653A      4.422333   654A      4.423543   655A      4.433234  
     656A      4.434900   657A      4.440600   658A      4.443296  
     659A      4.476820   660A      4.486049   661A      4.487162  
     662A      4.498789   663A      4.525998   664A      4.538041  
     665A      4.541654   666A      4.549810   667A      4.550363  
     668A      4.576722   669A      4.583143   670A      4.598461  
     671A      4.612794   672A      4.625611   673A      4.626079  
     674A      4.650484   675A      4.661119   676A      4.689910  
     677A      4.709291   678A      4.718186   679A      4.723531  
     680A      4.744759   681A      4.758084   682A      4.777062  
     683A      4.779697   684A      4.789086   685A      4.800627  
     686A      4.804775   687A      4.842948   688A      4.855166  
     689A      4.866727   690A      4.870437   691A      4.874224  
     692A      4.889494   693A      4.911139   694A      4.917895  
     695A      4.925890   696A      4.926225   697A      4.952496  
     698A      4.953568   699A      4.977792   700A      5.002736  
     701A      5.019441   702A      5.024968   703A      5.033813  
     704A      5.037942   705A      5.057036   706A      5.059217  
     707A      5.071526   708A      5.103405   709A      5.107493  
     710A      5.121931   711A      5.123147   712A      5.127362  
     713A      5.138249   714A      5.154181   715A      5.191904  
     716A      5.196167   717A      5.206792   718A      5.208833  
     719A      5.233384   720A      5.239789   721A      5.243033  
     722A      5.265269   723A      5.285801   724A      5.292291  
     725A      5.304312   726A      5.342510   727A      5.353078  
     728A      5.369636   729A      5.379781   730A      5.384520  
     731A      5.398175   732A      5.412977   733A      5.426372  
     734A      5.431416   735A      5.487960   736A      5.499716  
     737A      5.507003   738A      5.528259   739A      5.572378  
     740A      5.587988   741A      5.622808   742A      5.645637  
     743A      5.659440   744A      5.692252   745A      5.697492  
     746A      5.700269   747A      5.731943   748A      5.733372  
     749A      5.778430   750A      5.794197   751A      5.811068  
     752A      5.815066   753A      5.872886   754A      5.873711  
     755A      5.925439   756A      5.933811   757A      5.975162  
     758A      5.997086   759A      6.025591   760A      6.064663  
     761A      6.091215   762A      6.111143   763A      6.126399  
     764A      6.149661   765A      6.243039   766A      6.257721  
     767A      6.316097   768A      6.340934   769A      6.356726  
     770A      6.395235   771A      6.433629   772A      6.459047  
     773A      6.524494   774A      6.552488   775A      6.595660  
     776A      6.638358   777A      6.657067   778A      6.727105  
     779A      6.749591   780A      6.799078   781A      6.808490  
     782A      6.836926   783A      6.888212   784A      6.893625  
     785A      6.939078   786A      6.988924   787A      7.040085  
     788A      7.053469   789A      7.098865   790A      7.209215  
     791A      7.219949   792A      7.265035   793A      7.491564  
     794A      7.521378   795A      7.534456   796A      7.548315  
     797A      7.635225   798A      7.817997   799A      7.851085  
     800A      7.929079   801A      8.061552   802A      8.121895  
     803A      9.011011   804A      9.065829   805A      9.297905  
     806A      9.310681   807A      9.423025   808A      9.539601  
     809A      9.554250   810A      9.613626   811A      9.679068  
     812A      9.737256   813A     10.052630   814A     10.104726  
     815A     15.913606   816A     16.146255   817A     16.167316  
     818A     16.484173   819A     16.712048   820A     17.109987  
     821A     18.916028   822A     19.275074   823A     19.779090  
     824A     20.025183   825A     20.172862   826A     20.306028  
     827A     20.489806   828A     21.887716  

    Final Occupation by Irrep:
              A 
    DOCC [    49 ]

  Energy converged.

  @DF-RHF Final Energy:  -650.08116138555397

   => Energetics <=

    Nuclear Repulsion Energy =            815.9727807838303306
    One-Electron Energy =               -2506.9182263509924269
    Two-Electron Energy =                1040.8642841816081273
    DFT Exchange-Correlation Energy =       0.0000000000000000
    Empirical Dispersion Energy =           0.0000000000000000
    PCM Polarization Energy =               0.0000000000000000
    EFP Energy =                            0.0000000000000000
    Total Energy =                       -650.0811613855539690



Properties will be evaluated at   0.000000,   0.000000,   0.000000 Bohr

Properties computed using the SCF density matrix

  Nuclear Dipole Moment: (a.u.)
     X:     4.3327      Y:    -2.0919      Z:    -9.2537

  Electronic Dipole Moment: (a.u.)
     X:     2.6229      Y:    -1.5830      Z:     4.2545

  Dipole Moment: (a.u.)
     X:     6.9556      Y:    -3.6749      Z:    -4.9991     Total:     9.3208

  Dipole Moment: (Debye)
     X:    17.6793      Y:    -9.3407      Z:   -12.7066     Total:    23.6910


*** tstop() called on gpu-2-8.local at Sun Nov 12 02:34:35 2017
Module time:
	user time   =    1373.55 seconds =      22.89 minutes
	system time =      61.32 seconds =       1.02 minutes
	total time  =        572 seconds =       9.53 minutes
Total time:
	user time   =    1373.55 seconds =      22.89 minutes
	system time =      61.32 seconds =       1.02 minutes
	total time  =        572 seconds =       9.53 minutes

  //>>>>>>>>>>>>>>>>>>>>>>>>>>>>>>>>>>>//
  //               DFMP2               //
  //<<<<<<<<<<<<<<<<<<<<<<<<<<<<<<<<<<<//

   => Loading Basis Set <=

    Name: (AUG-CC-PVTZ AUX)
    Role: RIFIT
    Keyword: DF_BASIS_MP2
    atoms 1-11  entry C          line   147 file /cbio/jclab/home/chayas/anaconda/envs/py35/share/psi4/basis/aug-cc-pvtz-ri.gbs 
    atoms 12    entry N          line   205 file /cbio/jclab/home/chayas/anaconda/envs/py35/share/psi4/basis/aug-cc-pvtz-ri.gbs 
    atoms 13    entry O          line   263 file /cbio/jclab/home/chayas/anaconda/envs/py35/share/psi4/basis/aug-cc-pvtz-ri.gbs 
    atoms 14    entry F          line   321 file /cbio/jclab/home/chayas/anaconda/envs/py35/share/psi4/basis/aug-cc-pvtz-ri.gbs 
    atoms 15-22 entry H          line    29 file /cbio/jclab/home/chayas/anaconda/envs/py35/share/psi4/basis/aug-cc-pvtz-ri.gbs 

	 --------------------------------------------------------
	                          DF-MP2                         
	      2nd-Order Density-Fitted Moller-Plesset Theory     
	              RMP2 Wavefunction,   8 Threads             
	                                                         
	        Rob Parrish, Justin Turney, Andy Simmonett,      
	           Ed Hohenstein, and C. David Sherrill          
	 --------------------------------------------------------

   => Auxiliary Basis Set <=

  Basis Set: (AUG-CC-PVTZ AUX)
    Blend: AUG-CC-PVTZ-RI
    Number of shells: 504
    Number of basis function: 1852
    Number of Cartesian functions: 2344
    Spherical Harmonics?: true
    Max angular momentum: 4

	 --------------------------------------------------------
	                 NBF =   828, NAUX =  1852
	 --------------------------------------------------------
	   CLASS    FOCC     OCC    AOCC    AVIR     VIR    FVIR
	   PAIRS       0      49      49     779     779       0
	 --------------------------------------------------------


         ------------------------------------------------------------
                                     CPHF                           
                                  Rob Parrish                       
         ------------------------------------------------------------

  ==> Geometry <==

    Molecular point group: c1
    Full point group: C1

    Geometry (in Angstrom), charge = 0, multiplicity = 1:

       Center              X                  Y                   Z               Mass       
    ------------   -----------------  -----------------  -----------------  -----------------
           C         -1.361665801493     0.775673413220    -0.769324724754    12.000000000000
           C         -2.439665801493     1.348673413220    -0.096324724754    12.000000000000
           C          1.910334198507     0.356673413220    -1.056324724754    12.000000000000
           C          0.748334198507    -1.752326586780    -1.125324724754    12.000000000000
           C         -1.446665801493     0.732673413220     2.018675275246    12.000000000000
           C          2.966334198507    -0.238326586780    -1.732324724754    12.000000000000
           C          1.833334198507    -2.294326586780    -1.799324724754    12.000000000000
           C         -0.325665801493     0.180673413220    -0.049324724754    12.000000000000
           C          0.791334198507    -0.412326586780    -0.752324724754    12.000000000000
           C         -2.482665801493     1.327673413220     1.297675275246    12.000000000000
           C         -0.368665801493     0.159673413220     1.344675275246    12.000000000000
           N          2.898334198507    -1.531326586780    -2.079324724754    14.003074004780
           O         -3.473665801493     1.854673413220     1.916675275246    15.994914619560
           F          0.619334198507    -0.408326586780     2.051675275246    18.998403224000
           H         -1.342665801493     0.798673413220    -1.857324724754     1.007825032070
           H         -3.235665801493     1.804673413220    -0.682324724754     1.007825032070
           H          1.971334198507     1.403673413220    -0.777324724754     1.007825032070
           H         -0.112665801493    -2.375326586780    -0.901324724754     1.007825032070
           H         -1.455665801493     0.702673413220     3.106675275246     1.007825032070
           H          3.874334198507     0.280673413220    -2.008324724754     1.007825032070
           H          1.887334198507    -3.323326586780    -2.126324724754     1.007825032070
           H          3.685334198507    -1.948326586780    -2.576324724754     1.007825032070

  Nuclear repulsion =  815.972780783830331
  Reference energy  = -650.081161385553969

  ==> Basis Set <==

  Basis Set: AUG-CC-PVTZ
    Blend: AUG-CC-PVTZ
    Number of shells: 268
    Number of basis function: 828
    Number of Cartesian functions: 970
    Spherical Harmonics?: true
    Max angular momentum: 3

  ==> CGRSolver (by Rob Parrish) <==

   Number of roots    =         1
   Preconditioning    =    JACOBI
   Convergence cutoff =     1E-06
   Maximum iterations =       100

  ==> CPHFRHamiltonian (by Rob Parrish) <== 

  ==> DFJK: Density-Fitted J/K Matrices <==

    J tasked:                  Yes
    K tasked:                  Yes
    wK tasked:                  No
    OpenMP threads:              8
    Integrals threads:           8
    Memory (MB):              3576
    Algorithm:                Disk
    Integral Cache:           NONE
    Schwarz Cutoff:          1E-12
    Fitting Condition:       1E-12

   => Auxiliary Basis Set <=

  Basis Set: (AUG-CC-PVTZ AUX)
    Blend: AUG-CC-PVTZ-JKFIT
    Number of shells: 532
    Number of basis function: 1824
    Number of Cartesian functions: 2274
    Spherical Harmonics?: true
    Max angular momentum: 4

  ==> CPHF Iterations <==

  => Iterations <=

             Iter  Converged  Remaining    Residual
  CGR           1          0          1   1.399E-01
  CGR           2          0          1   5.343E-02
  CGR           3          0          1   3.025E-02
  CGR           4          0          1   9.821E-03
  CGR           5          0          1   3.944E-03
  CGR           6          0          1   1.846E-03
  CGR           7          0          1   7.661E-04
  CGR           8          0          1   2.913E-04
  CGR           9          0          1   9.243E-05
  CGR          10          0          1   2.672E-05
  CGR          11          0          1   1.109E-05
  CGR          12          0          1   3.722E-06
  CGR          13          0          1   1.790E-06
  CGR          14          1          0   8.427E-07

    CGRSolver converged.

  ==> DFCorrGrad: Density-Fitted Correlated Gradients <==

    OpenMP threads:              8
    Integrals threads:           8
    Memory (MB):              3576
    Schwarz Cutoff:          0E+00
    Fitting Condition:       1E-12

   => Auxiliary Basis Set <=

  Basis Set: (AUG-CC-PVTZ AUX)
    Blend: AUG-CC-PVTZ-JKFIT
    Number of shells: 532
    Number of basis function: 1824
    Number of Cartesian functions: 2274
    Spherical Harmonics?: true
    Max angular momentum: 4

	-----------------------------------------------------------
	 ==================> DF-MP2 Energies <==================== 
	-----------------------------------------------------------
	 Reference Energy          =    -650.0811613855539690 [Eh]
	 Singles Energy            =      -0.0000000000000001 [Eh]
	 Same-Spin Energy          =      -0.6772127620758053 [Eh]
	 Opposite-Spin Energy      =      -2.0215226854994954 [Eh]
	 Correlation Energy        =      -2.6987354475753005 [Eh]
	 Total Energy              =    -652.7798968331292144 [Eh]
	-----------------------------------------------------------
	 ================> DF-SCS-MP2 Energies <================== 
	-----------------------------------------------------------
	 SCS Same-Spin Scale       =       0.3333333333333333 [-]
	 SCS Opposite-Spin Scale   =       1.2000000000000000 [-]
	 SCS Same-Spin Energy      =      -0.2257375873586017 [Eh]
	 SCS Opposite-Spin Energy  =      -2.4258272225993944 [Eh]
	 SCS Correlation Energy    =      -2.6515648099579963 [Eh]
	 SCS Total Energy          =    -652.7327261955119866 [Eh]
	-----------------------------------------------------------


  -Total Gradient:
     Atom            X                  Y                   Z
    ------   -----------------  -----------------  -----------------
       1        0.019165847977    -0.010286821888    -0.005123155986
       2       -0.022778925012     0.011325442020     0.041795482646
       3       -0.015916160765     0.009083729991     0.010441044925
       4       -0.015542045452     0.008189118236     0.010080627993
       5       -0.046042962825     0.025382094565    -0.000584933142
       6       -0.001924450462    -0.012734021289    -0.002886555213
       7        0.010083022534     0.008487971769    -0.002234912660
       8       -0.013644166592     0.007534899308    -0.000603624090
       9        0.011430753967    -0.005852648749    -0.009497794895
      10        0.056553629723    -0.030106472318    -0.035009587607
      11        0.042126515460    -0.023127568626    -0.002421033510
      12       -0.002251611436     0.000381988153     0.001349724920
      13       -0.011327075114     0.006061489443     0.006314007620
      14       -0.015094003806     0.008357395234    -0.001154977440
      15       -0.002755719190     0.001592073819    -0.003990863254
      16       -0.002876096839     0.001770528955    -0.008514042384
      17        0.002114617528     0.005631924731     0.000467550221
      18       -0.004123689909    -0.005101325822     0.000198588503
      19        0.003190458895    -0.001994740340     0.007542528647
      20        0.002508933875     0.000933522299    -0.000923661530
      21        0.000619678298    -0.002147501063    -0.000977401201
      22        0.006483449136    -0.003381078425    -0.004267012564


*** tstop() called on gpu-2-8.local at Sun Nov 12 03:11:45 2017
Module time:
	user time   =    5948.19 seconds =      99.14 minutes
	system time =     129.44 seconds =       2.16 minutes
	total time  =       2802 seconds =      46.70 minutes
Total time:
	user time   =    5948.19 seconds =      99.14 minutes
	system time =     129.44 seconds =       2.16 minutes
	total time  =       2802 seconds =      46.70 minutes

			-----------------------------------------
			 OPTKING 2.0: for geometry optimizations 
			  - R.A. King,  Bethel University        
			-----------------------------------------

	Internal coordinates to be generated automatically.
	Detected frag 1 with atoms:  1 2 3 4 5 6 7 8 9 10 11 12 13 14 15 16 17 18 19 20
	 21 22
	---Fragment 1 Bond Connectivity---
	 1 : 2 8 15
	 2 : 1 10 16
	 3 : 6 9 17
	 4 : 7 9 18
	 5 : 10 11 19
	 6 : 3 12 20
	 7 : 4 12 21
	 8 : 1 9 11
	 9 : 3 4 8
	 10 : 2 5 13
	 11 : 5 8 14
	 12 : 6 7 22
	 13 : 10
	 14 : 11
	 15 : 1
	 16 : 2
	 17 : 3
	 18 : 4
	 19 : 5
	 20 : 6
	 21 : 7
	 22 : 12

	Assuming in current code that numbering for constraints corresponds to unified fragment.
	Fixed dihedral atom list: 
	     1     8     9     3
	---Fragment 1 Geometry and Gradient---
	 C          -2.5731754493        1.4658103195       -1.4538130370
	 C          -4.6103002206        2.5486233937       -0.1820273496
	 C           3.6100084575        0.6740150699       -1.9961644372
	 C           1.4141466911       -3.3114173444       -2.1265555403
	 C          -2.7338021706        1.3845520958        3.8147434214
	 C           5.6055592538       -0.4503719792       -3.2736193030
	 C           3.4644995452       -4.3356489084       -3.4002309539
	 C          -0.6154191757        0.3414232705       -0.0932102214
	 C           1.4954049148       -0.7791843263       -1.4216876928
	 C          -4.6915584443        2.5089391449        2.4522508796
	 C          -0.6966773994        0.3017390217        2.5410680079
	 N           5.4770578768       -2.8937878690       -3.9293542711
	 O          -6.5642770420        3.5048248169        3.6219913559
	 F           1.1703720199       -0.7716254218        3.8771043838
	 H          -2.5372706528        1.5092740206       -3.5098350696
	 H          -6.1145222224        3.4103385103       -1.2894068635
	 H           3.7252817516        2.6525583310       -1.4689308461
	 H          -0.2129075094       -4.4887167252       -1.7032568866
	 H          -2.7508097058        1.3278603118        5.8707654540
	 H           7.3214305825        0.5303958838       -3.7951837157
	 H           3.5665447564       -6.2801770992       -4.0181713994
	 H           6.9642723433       -3.6818036664       -4.8685481592
	             0.0191658480       -0.0102868219       -0.0051231560
	            -0.0227789250        0.0113254420        0.0417954826
	            -0.0159161608        0.0090837300        0.0104410449
	            -0.0155420455        0.0081891182        0.0100806280
	            -0.0460429628        0.0253820946       -0.0005849331
	            -0.0019244505       -0.0127340213       -0.0028865552
	             0.0100830225        0.0084879718       -0.0022349127
	            -0.0136441666        0.0075348993       -0.0006036241
	             0.0114307540       -0.0058526487       -0.0094977949
	             0.0565536297       -0.0301064723       -0.0350095876
	             0.0421265155       -0.0231275686       -0.0024210335
	            -0.0022516114        0.0003819882        0.0013497249
	            -0.0113270751        0.0060614894        0.0063140076
	            -0.0150940038        0.0083573952       -0.0011549774
	            -0.0027557192        0.0015920738       -0.0039908633
	            -0.0028760968        0.0017705290       -0.0085140424
	             0.0021146175        0.0056319247        0.0004675502
	            -0.0041236899       -0.0051013258        0.0001985885
	             0.0031904589       -0.0019947403        0.0075425286
	             0.0025089339        0.0009335223       -0.0009236615
	             0.0006196783       -0.0021475011       -0.0009774012
	             0.0064834491       -0.0033810784       -0.0042670126

	Previous optimization step data not found.  Starting new optimization.

	---Fragment 1 Intrafragment Coordinates---
	 - Coordinate -           - BOHR/RAD -       - ANG/DEG -
	 R(1,2)           =         2.634350	       1.394038
	 R(1,8)           =         2.635962	       1.394891
	 R(1,15)          =         2.056795	       1.088409
	 R(2,10)          =         2.635830	       1.394821
	 R(2,16)          =         2.057067	       1.088553
	 R(3,6)           =         2.622663	       1.387853
	 R(3,9)           =         2.629327	       1.391380
	 R(3,17)          =         2.050828	       1.085252
	 R(4,7)           =         2.622069	       1.387539
	 R(4,9)           =         2.629762	       1.391610
	 R(4,18)          =         2.052443	       1.086106
	 R(5,10)          =         2.636938	       1.395407
	 R(5,11)          =         2.635263	       1.394521
	 R(5,19)          =         2.056874	       1.088451
	 R(6,12)          =         2.533137	       1.340478
	 R(6,20)          =         2.044052	       1.081666
	 R(7,12)          =         2.531665	       1.339699
	 R(7,21)          =         2.042903	       1.081058
	 R(8,9)           =         2.734263	       1.446909
	 R(8,11)          =         2.635830	       1.394821
	 R(10,13)         =         2.422221	       1.281784
	 R(11,14)         =         2.534359	       1.341125
	 R(12,22)         =         1.927397	       1.019935
	 B(1,2,10)        =         2.094553	     120.009056
	 B(1,2,16)        =         2.068903	     118.539404
	 B(1,8,9)         =         2.091392	     119.827938
	 B(1,8,11)        =         2.093692	     119.959722
	 B(2,1,8)         =         2.094940	     120.031219
	 B(2,1,15)        =         2.079908	     119.169966
	 B(2,10,5)        =         2.094306	     119.994870
	 B(2,10,13)       =         2.094719	     120.018581
	 B(3,6,12)        =         2.095578	     120.067782
	 B(3,6,20)        =         2.161930	     123.869455
	 B(3,9,4)         =         2.092640	     119.899459
	 B(3,9,8)         =         2.094979	     120.033448
	 B(4,7,12)        =         2.095176	     120.044727
	 B(4,7,21)        =         2.162529	     123.903806
	 B(4,9,8)         =         2.095566	     120.067093
	 B(5,10,13)       =         2.094160	     119.986548
	 B(5,11,8)        =         2.095181	     120.045019
	 B(5,11,14)       =         2.081414	     119.256220
	 B(6,3,9)         =         2.073056	     118.777370
	 B(6,3,17)        =         2.089853	     119.739772
	 B(6,12,7)        =         2.135994	     122.383415
	 B(6,12,22)       =         2.073009	     118.774665
	 B(7,4,9)         =         2.073925	     118.827176
	 B(7,4,18)        =         2.089795	     119.736406
	 B(7,12,22)       =         2.074180	     118.841780
	 B(8,1,15)        =         2.108336	     120.798746
	 B(8,11,14)       =         2.106591	     120.698759
	 B(9,3,17)        =         2.120276	     121.482851
	 B(9,4,18)        =         2.119464	     121.436357
	 B(9,8,11)        =         2.098101	     120.212327
	 B(10,2,16)       =         2.119728	     121.451467
	 B(10,5,11)       =         2.093699	     119.960108
	 B(10,5,19)       =         2.120101	     121.472852
	 B(11,5,19)       =         2.069385	     118.567038
	 B(12,6,20)       =         2.025674	     116.062577
	 B(12,7,21)       =         2.025479	     116.051397
	 D(1,2,10,5)      =        -0.000325	      -0.018609
	 D(1,2,10,13)     =         3.141392	     179.988520
	 D(1,8,9,3)       =         1.570578	      89.987467
	 D(1,8,9,4)       =        -1.571108	     -90.017830
	 D(1,8,11,5)      =         0.000325	       0.018608
	 D(1,8,11,14)     =        -3.141528	    -179.996269
	 D(2,1,8,9)       =        -3.141211	    -179.978157
	 D(2,1,8,11)      =        -0.000348	      -0.019945
	 D(2,10,5,11)     =         0.000301	       0.017261
	 D(2,10,5,19)     =        -3.141543	    -179.997173
	 D(3,6,12,7)      =         0.001478	       0.084706
	 D(3,6,12,22)     =         3.140660	     179.946579
	 D(3,9,4,7)       =        -0.000900	      -0.051566
	 D(3,9,4,18)      =        -3.140914	    -179.961116
	 D(3,9,8,11)      =        -1.570284	     -89.970639
	 D(4,7,12,6)      =        -0.001351	      -0.077408
	 D(4,7,12,22)     =        -3.140531	    -179.939191
	 D(4,9,3,6)       =         0.001022	       0.058549
	 D(4,9,3,17)      =        -3.141091	    -179.971266
	 D(4,9,8,11)      =         1.571216	      90.024064
	 D(5,10,2,16)     =         3.139529	     179.881752
	 D(5,11,8,9)      =         3.141185	     179.976658
	 D(6,3,9,8)       =        -3.140663	    -179.946738
	 D(6,12,7,21)     =        -3.141332	    -179.985068
	 D(7,4,9,8)       =         3.140785	     179.953724
	 D(7,12,6,20)     =         3.140432	     179.933510
	 D(8,1,2,10)      =         0.000348	       0.019955
	 D(8,1,2,16)      =        -3.139556	    -179.883288
	 D(8,9,3,17)      =         0.000409	       0.023447
	 D(8,9,4,18)      =         0.000771	       0.044173
	 D(8,11,5,10)     =        -0.000301	      -0.017270
	 D(8,11,5,19)     =         3.141536	     179.996748
	 D(9,3,6,12)      =        -0.001288	      -0.073776
	 D(9,3,6,20)      =        -3.140025	    -179.910196
	 D(9,4,7,12)      =         0.001039	       0.059515
	 D(9,4,7,21)      =         3.140887	     179.959562
	 D(9,8,1,15)      =         0.002066	       0.118384
	 D(9,8,11,14)     =        -0.000667	      -0.038219
	 D(10,2,1,15)     =         3.140283	     179.924984
	 D(10,5,11,14)    =         3.141547	     179.997392
	 D(11,5,10,13)    =        -3.141416	    -179.989865
	 D(11,8,1,15)     =        -3.140256	    -179.923403
	 D(12,6,3,17)     =         3.140816	     179.955507
	 D(12,7,4,18)     =         3.141080	     179.970638
	 D(13,10,2,16)    =        -0.001939	      -0.111119
	 D(13,10,5,19)    =        -0.000075	      -0.004300
	 D(14,11,5,19)    =         0.000199	       0.011410
	 D(15,1,2,16)     =         0.000379	       0.021741
	 D(17,3,6,20)     =         0.002078	       0.119087
	 D(18,4,7,21)     =        -0.002257	      -0.129315
	 D(20,6,12,22)    =        -0.003571	      -0.204618
	 D(21,7,12,22)    =         0.002673	       0.153149

	Current energy   :      -652.7798968331

	Generating empirical Hessian (Schlegel '84) for each fragment.
	Adding user-defined constraint: Fragment 1; Coordinate 62:
		Value =     1.570578; Fixed value    =     1.570796
		Force =     0.000109; Force constant =     0.500000
	Removing off-diagonal coupling between coordinate 62 and others.
	Taking RFO optimization step.
	Going to follow RFO solution 1.
	Using RFO vector 1.

	Determining step-restricting scale parameter for RS-RFO.
	Maximum step size allowed    0.10000

	 Iter      |step|        alpha        rfo_root  
	------------------------------------------------
	    0     0.20957       1.00000           1
	    1     0.15269      11.85858           1
	    2     0.11922      29.54569           1
	    3     0.10405      44.99001           1
	    4     0.10025      50.16272           1
	    5     0.10000      50.52034           1
	------------------------------------------------
	Norm of target step-size    0.10000
	Projected energy change by RFO approximation:        -0.0069362618

	Back-transformation to cartesian coordinates...
	Successfully converged to displaced geometry.

	--- Internal Coordinate Step in ANG or DEG, aJ/ANG or AJ/DEG ---
	 ---------------------------------------------------------------------------
	   Coordinate                Previous        Force       Change         New 
	   ----------                --------       ------       ------       ------
	    1 R(1,2)          =      1.394038    -0.085098    -0.006572     1.387466
	    2 R(1,8)          =      1.394891     0.045257     0.003173     1.398064
	    3 R(1,15)         =      1.088409    -0.032748    -0.002993     1.085416
	    4 R(2,10)         =      1.394821     0.240733     0.019393     1.414214
	    5 R(2,16)         =      1.088553    -0.061198    -0.005595     1.082959
	    6 R(3,6)          =      1.387853    -0.085513    -0.006626     1.381227
	    7 R(3,9)          =      1.391380     0.043382     0.003381     1.394761
	    8 R(3,17)         =      1.085252    -0.046734    -0.004249     1.081003
	    9 R(4,7)          =      1.387539    -0.083560    -0.006457     1.381082
	   10 R(4,9)          =      1.391610     0.040981     0.003202     1.394812
	   11 R(4,18)         =      1.086106    -0.051378    -0.004678     1.081428
	   12 R(5,10)         =      1.395407     0.224611     0.018047     1.413455
	   13 R(5,11)         =      1.394521    -0.151247    -0.011975     1.382546
	   14 R(5,19)         =      1.088451    -0.062351    -0.005699     1.082752
	   15 R(6,12)         =      1.340478     0.018855     0.001306     1.341785
	   16 R(6,20)         =      1.081666    -0.022984    -0.002077     1.079589
	   17 R(7,12)         =      1.339699     0.024926     0.001731     1.341430
	   18 R(7,21)         =      1.081058    -0.019532    -0.001763     1.079295
	   19 R(8,9)          =      1.446909     0.060248     0.005234     1.452144
	   20 R(8,11)         =      1.394821    -0.026747    -0.002585     1.392236
	   21 R(10,13)        =      1.281784    -0.117803    -0.007019     1.274765
	   22 R(11,14)        =      1.341125     0.125789     0.008760     1.349885
	   23 R(12,22)        =      1.019935    -0.069735    -0.005625     1.014310
	   24 B(1,2,10)       =    120.009056     0.000532     0.776592   120.785648
	   25 B(1,2,16)       =    118.539404     0.000153     0.227481   118.766885
	   26 B(1,8,9)        =    119.827938     0.000483     0.673311   120.501249
	   27 B(1,8,11)       =    119.959722    -0.000517    -0.786602   119.173120
	   28 B(2,1,8)        =    120.031219     0.000338     0.387816   120.419035
	   29 B(2,1,15)       =    119.169966     0.000082     0.174032   119.343998
	   30 B(2,10,5)       =    119.994870    -0.001670    -1.973193   118.021677
	   31 B(2,10,13)      =    120.018581     0.000897     1.064382   121.082963
	   32 B(3,6,12)       =    120.067782    -0.000320    -0.430252   119.637530
	   33 B(3,6,20)       =    123.869455     0.000122     0.159846   124.029300
	   34 B(3,9,4)        =    119.899459    -0.000734    -0.925701   118.973758
	   35 B(3,9,8)        =    120.033448     0.000372     0.468695   120.502143
	   36 B(4,7,12)       =    120.044727    -0.000317    -0.422574   119.622154
	   37 B(4,7,21)       =    123.903806     0.000114     0.146158   124.049964
	   38 B(4,9,8)        =    120.067093     0.000363     0.457004   120.524097
	   39 B(5,10,13)      =    119.986548     0.000773     0.908812   120.895360
	   40 B(5,11,8)       =    120.045019     0.000958     1.096611   121.141630
	   41 B(5,11,14)      =    119.256220     0.000304     0.429384   119.685605
	   42 B(6,3,9)        =    118.777370     0.000557     0.722770   119.500140
	   43 B(6,3,17)       =    119.739772    -0.000119    -0.126287   119.613485
	   44 B(6,12,7)       =    122.383415     0.000275     0.353923   122.737338
	   45 B(6,12,22)      =    118.774665    -0.000134    -0.172368   118.602297
	   46 B(7,4,9)        =    118.827176     0.000539     0.701835   119.529011
	   47 B(7,4,18)       =    119.736406    -0.000111    -0.117747   119.618658
	   48 B(7,12,22)      =    118.841780    -0.000141    -0.181526   118.660254
	   49 B(8,1,15)       =    120.798746    -0.000420    -0.561839   120.236906
	   50 B(8,11,14)      =    120.698759    -0.001262    -1.525995   119.172764
	   51 B(9,3,17)       =    121.482851    -0.000439    -0.596477   120.886374
	   52 B(9,4,18)       =    121.436357    -0.000428    -0.584059   120.852298
	   53 B(9,8,11)       =    120.212327     0.000034     0.113291   120.325618
	   54 B(10,2,16)      =    121.451467    -0.000686    -1.004064   120.447403
	   55 B(10,5,11)      =    119.960108     0.000358     0.498777   120.458885
	   56 B(10,5,19)      =    121.472852    -0.000470    -0.675836   120.797016
	   57 B(11,5,19)      =    118.567038     0.000111     0.177060   118.744097
	   58 B(12,6,20)      =    116.062577     0.000198     0.270384   116.332961
	   59 B(12,7,21)      =    116.051397     0.000203     0.276395   116.327791
	   60 D(1,2,10,5)     =     -0.018609    -0.000000     0.000044    -0.018565
	   61 D(1,2,10,13)    =    179.988520    -0.000000    -0.000415   179.988105
	   62 D(1,8,9,3)      =     89.987467     0.000001     0.006601    89.994068
	   63 D(1,8,9,4)      =    -90.017830    -0.000000    -0.006104   -90.023934
	   64 D(1,8,11,5)     =      0.018608    -0.000000    -0.002407     0.016201
	   65 D(1,8,11,14)    =   -179.996269    -0.000000    -0.000355  -179.996624
	   66 D(2,1,8,9)      =   -179.978157     0.000000     0.001862  -179.976295
	   67 D(2,1,8,11)     =     -0.019945     0.000000     0.002846    -0.017099
	   68 D(2,10,5,11)    =      0.017261     0.000000     0.000229     0.017490
	   69 D(2,10,5,19)    =   -179.997173     0.000000     0.000395  -179.996778
	   70 D(3,6,12,7)     =      0.084706     0.000000     0.000361     0.085068
	   71 D(3,6,12,22)    =    179.946579     0.000002     0.015684   179.962263
	   72 D(3,9,4,7)      =     -0.051566     0.000000     0.004035    -0.047531
	   73 D(3,9,4,18)     =   -179.961116    -0.000002    -0.020437  -179.981553
	   74 D(3,9,8,11)     =    -89.970639     0.000001     0.005982   -89.964657
	   75 D(4,7,12,6)     =     -0.077408    -0.000000    -0.001228    -0.078636
	   76 D(4,7,12,22)    =   -179.939191    -0.000002    -0.016572  -179.955763
	   77 D(4,9,3,6)      =      0.058549    -0.000000    -0.004749     0.053800
	   78 D(4,9,3,17)     =   -179.971266     0.000002     0.015544  -179.955721
	   79 D(4,9,8,11)     =     90.024064    -0.000001    -0.006723    90.017342
	   80 D(5,10,2,16)    =    179.881752     0.000001     0.006420   179.888173
	   81 D(5,11,8,9)     =    179.976658    -0.000000    -0.001187   179.975471
	   82 D(6,3,9,8)      =   -179.946738    -0.000002    -0.017187  -179.963925
	   83 D(6,12,7,21)    =   -179.985068     0.000001     0.011587  -179.973481
	   84 D(7,4,9,8)      =    179.953724     0.000002     0.016475   179.970199
	   85 D(7,12,6,20)    =    179.933510    -0.000001    -0.008031   179.925479
	   86 D(8,1,2,10)     =      0.019955    -0.000000    -0.001260     0.018695
	   87 D(8,1,2,16)     =   -179.883288    -0.000001    -0.006296  -179.889584
	   88 D(8,9,3,17)     =      0.023447     0.000000     0.003107     0.026553
	   89 D(8,9,4,18)     =      0.044173    -0.000001    -0.007997     0.036177
	   90 D(8,11,5,10)    =     -0.017270     0.000000     0.000545    -0.016725
	   91 D(8,11,5,19)    =    179.996748     0.000000     0.000506   179.997254
	   92 D(9,3,6,12)     =     -0.073776     0.000000     0.002485    -0.071291
	   93 D(9,3,6,20)     =   -179.910196     0.000001     0.011488  -179.898708
	   94 D(9,4,7,12)     =      0.059515    -0.000000    -0.000896     0.058619
	   95 D(9,4,7,21)     =    179.959562    -0.000002    -0.014693   179.944869
	   96 D(9,8,1,15)     =      0.118384    -0.000001    -0.004767     0.113617
	   97 D(9,8,11,14)    =     -0.038219     0.000000     0.000864    -0.037354
	   98 D(10,2,1,15)    =    179.924984     0.000000     0.004597   179.929580
	   99 D(10,5,11,14)   =    179.997392    -0.000000    -0.001227   179.996165
	  100 D(11,5,10,13)   =   -179.989865     0.000000     0.000699  -179.989166
	  101 D(11,8,1,15)    =   -179.923403    -0.000000    -0.003783  -179.927186
	  102 D(12,6,3,17)    =    179.955507    -0.000002    -0.017399   179.938107
	  103 D(12,7,4,18)    =    179.970638     0.000003     0.022826   179.993464
	  104 D(13,10,2,16)   =     -0.111119     0.000001     0.005961    -0.105158
	  105 D(13,10,5,19)   =     -0.004300     0.000000     0.000865    -0.003435
	  106 D(14,11,5,19)   =      0.011410    -0.000000    -0.001265     0.010144
	  107 D(15,1,2,16)    =      0.021741    -0.000000    -0.000440     0.021301
	  108 D(17,3,6,20)    =      0.119087    -0.000001    -0.008396     0.110690
	  109 D(18,4,7,21)    =     -0.129315     0.000001     0.009029    -0.120286
	  110 D(20,6,12,22)   =     -0.204618     0.000001     0.007292    -0.197326
	  111 D(21,7,12,22)   =      0.153149    -0.000000    -0.003757     0.149392
	 ---------------------------------------------------------------------------
	Successfully symmetrized geometry.
	 Forces used to impose fixed constraints are not included.
	  Forces zeroed: 62 

  ==> Convergence Check <==

  Measures of convergence in internal coordinates in au.
  Criteria marked as inactive (o), active & met (*), and active & unmet ( ).
  --------------------------------------------------------------------------------------------- ~
   Step     Total Energy     Delta E     MAX Force     RMS Force      MAX Disp      RMS Disp    ~
  --------------------------------------------------------------------------------------------- ~
    Convergence Criteria    1.00e-06 *    3.00e-04 *             o    1.20e-03 *             o  ~
  --------------------------------------------------------------------------------------------- ~
      1    -652.77989683   -6.53e+02      2.92e-02      6.73e-03 o    3.66e-02      9.49e-03 o  ~
  ---------------------------------------------------------------------------------------------

	Writing optimization data to binary file.
	Structure for next step:
	Cartesian Geometry (in Angstrom)
	    C    -1.3754220564   0.7831281242  -0.7679965776
	    C    -2.4477424159   1.3531052720  -0.0969399590
	    C     1.9191329170   0.3487363977  -1.0633151446
	    C     0.7596052596  -1.7551658441  -1.1319711089
	    C    -1.4433417645   0.7307720456   2.0196495266
	    C     2.9755506498  -0.2396150935  -1.7308574886
	    C     1.8392004306  -2.3013542298  -1.7979587756
	    C    -0.3320444907   0.1843224007  -0.0556911221
	    C     0.7913692986  -0.4123032515  -0.7561911663
	    C    -2.5068458041   1.3404150525   1.3159817017
	    C    -0.3822118296   0.1673653318   1.3355377784
	    N     2.9048509260  -1.5348249724  -2.0741049911
	    O    -3.4892170855   1.8625974118   1.9383146262
	    F     0.6252467707  -0.4107457700   2.0232908637
	    H    -1.3545224902   0.8050510655  -1.8529898420
	    H    -3.2422011048   1.8081313487  -0.6753740916
	    H     1.9769219840   1.3919843833  -0.7860770528
	    H    -0.0995106030  -2.3731470097  -0.9094715253
	    H    -1.4427136281   0.6956568874   3.1018315688
	    H     3.8823146294   0.2791676967  -2.0031725544
	    H     1.8925798408  -3.3297097098  -2.1212425360
	    H     3.6893529336  -1.9507524462  -2.5643960742
			--------------------------
			 OPTKING Finished Execution 
			--------------------------

    Structure for next step:
    Molecular point group: c1
    Full point group: C1

    Geometry (in Angstrom), charge = 0, multiplicity = 1:

    C           -1.373605254872     0.782098600658    -0.766777837981
    C           -2.445925614316     1.352075748499    -0.095721219411
    C            1.920949718506     0.347706874158    -1.062096404974
    C            0.761422061137    -1.756195367597    -1.130752369298
    C           -1.441524962938     0.729742522059     2.020868266263
    C            2.977367451326    -0.240644616971    -1.729638748943
    C            1.841017232139    -2.302383753330    -1.796740035963
    C           -0.330227689137     0.183292877234    -0.054472382488
    C            0.793186100107    -0.413332775011    -0.754972426663
    C           -2.505029002527     1.339385529027     1.317200441314
    C           -0.380395028048     0.166335808277     1.336756518049
    N            2.906667727505    -1.535854495867    -2.072886251488
    O           -3.487400283914     1.861567888306     1.939533365791
    F            0.627063572282    -0.411775293531     2.024509603330
    H           -1.352705688637     0.804021541979    -1.851771102383
    H           -3.240384303279     1.807101825199    -0.674155352020
    H            1.978738785592     1.390954859808    -0.784858313167
    H           -0.097693801447    -2.374176533183    -0.908252785649
    H           -1.440896826499     0.694627363847     3.103050308422
    H            3.884131430918     0.278138173145    -2.001953814767
    H            1.894396642311    -3.330739233335    -2.120023796337
    H            3.691169735110    -1.951781969755    -2.563177334603

gradient() will perform analytic gradient computation.

*** tstart() called on gpu-2-8.local
*** at Sun Nov 12 03:11:47 2017

    SCF Algorithm Type (re)set to DF.

*** tstart() called on gpu-2-8.local
*** at Sun Nov 12 03:11:47 2017

   => Loading Basis Set <=

    Name: AUG-CC-PVTZ
    Role: ORBITAL
    Keyword: BASIS
    atoms 1-11  entry C          line   221 file /cbio/jclab/home/chayas/anaconda/envs/py35/share/psi4/basis/aug-cc-pvtz.gbs 
    atoms 12    entry N          line   267 file /cbio/jclab/home/chayas/anaconda/envs/py35/share/psi4/basis/aug-cc-pvtz.gbs 
    atoms 13    entry O          line   313 file /cbio/jclab/home/chayas/anaconda/envs/py35/share/psi4/basis/aug-cc-pvtz.gbs 
    atoms 14    entry F          line   359 file /cbio/jclab/home/chayas/anaconda/envs/py35/share/psi4/basis/aug-cc-pvtz.gbs 
    atoms 15-22 entry H          line    34 file /cbio/jclab/home/chayas/anaconda/envs/py35/share/psi4/basis/aug-cc-pvtz.gbs 


         ---------------------------------------------------------
                                   SCF
            by Justin Turney, Rob Parrish, and Andy Simmonett
                              RHF Reference
                        8 Threads,   4768 MiB Core
         ---------------------------------------------------------

  ==> Geometry <==

    Molecular point group: c1
    Full point group: C1

    Geometry (in Angstrom), charge = 0, multiplicity = 1:

       Center              X                  Y                   Z               Mass       
    ------------   -----------------  -----------------  -----------------  -----------------
           C         -1.373605254872     0.782098600658    -0.766777837981    12.000000000000
           C         -2.445925614316     1.352075748499    -0.095721219411    12.000000000000
           C          1.920949718506     0.347706874158    -1.062096404974    12.000000000000
           C          0.761422061137    -1.756195367597    -1.130752369298    12.000000000000
           C         -1.441524962938     0.729742522059     2.020868266263    12.000000000000
           C          2.977367451326    -0.240644616971    -1.729638748943    12.000000000000
           C          1.841017232139    -2.302383753330    -1.796740035963    12.000000000000
           C         -0.330227689137     0.183292877234    -0.054472382488    12.000000000000
           C          0.793186100107    -0.413332775011    -0.754972426663    12.000000000000
           C         -2.505029002527     1.339385529027     1.317200441314    12.000000000000
           C         -0.380395028048     0.166335808277     1.336756518049    12.000000000000
           N          2.906667727505    -1.535854495867    -2.072886251488    14.003074004780
           O         -3.487400283914     1.861567888306     1.939533365791    15.994914619560
           F          0.627063572282    -0.411775293531     2.024509603330    18.998403224000
           H         -1.352705688637     0.804021541979    -1.851771102383     1.007825032070
           H         -3.240384303279     1.807101825199    -0.674155352020     1.007825032070
           H          1.978738785592     1.390954859808    -0.784858313167     1.007825032070
           H         -0.097693801447    -2.374176533183    -0.908252785649     1.007825032070
           H         -1.440896826499     0.694627363847     3.103050308422     1.007825032070
           H          3.884131430918     0.278138173145    -2.001953814767     1.007825032070
           H          1.894396642311    -3.330739233335    -2.120023796337     1.007825032070
           H          3.691169735110    -1.951781969755    -2.563177334603     1.007825032070

  Running in c1 symmetry.

  Rotational constants: A =      0.06339  B =      0.01283  C =      0.01197 [cm^-1]
  Rotational constants: A =   1900.26788  B =    384.71611  C =    358.94700 [MHz]
  Nuclear repulsion =  814.951349849040071

  Charge       = 0
  Multiplicity = 1
  Electrons    = 98
  Nalpha       = 49
  Nbeta        = 49

  ==> Algorithm <==

  SCF Algorithm Type is DF.
  DIIS enabled.
  MOM disabled.
  Fractional occupation disabled.
  Guess Type is READ.
  Energy threshold   = 1.00e-10
  Density threshold  = 1.00e-10
  Integral threshold = 0.00e+00

  ==> Primary Basis <==

  Basis Set: AUG-CC-PVTZ
    Blend: AUG-CC-PVTZ
    Number of shells: 268
    Number of basis function: 828
    Number of Cartesian functions: 970
    Spherical Harmonics?: true
    Max angular momentum: 3

   => Loading Basis Set <=

    Name: (AUG-CC-PVTZ AUX)
    Role: JKFIT
    Keyword: DF_BASIS_SCF
    atoms 1-11  entry C          line   161 file /cbio/jclab/home/chayas/anaconda/envs/py35/share/psi4/basis/aug-cc-pvtz-jkfit.gbs 
    atoms 12    entry N          line   223 file /cbio/jclab/home/chayas/anaconda/envs/py35/share/psi4/basis/aug-cc-pvtz-jkfit.gbs 
    atoms 13    entry O          line   285 file /cbio/jclab/home/chayas/anaconda/envs/py35/share/psi4/basis/aug-cc-pvtz-jkfit.gbs 
    atoms 14    entry F          line   347 file /cbio/jclab/home/chayas/anaconda/envs/py35/share/psi4/basis/aug-cc-pvtz-jkfit.gbs 
    atoms 15-22 entry H          line    69 file /cbio/jclab/home/chayas/anaconda/envs/py35/share/psi4/basis/aug-cc-pvtz-jkfit.gbs 

  Reading orbitals from file 180, no projection.

  ==> Pre-Iterations <==

   -------------------------------------------------------
    Irrep   Nso     Nmo     Nalpha   Nbeta   Ndocc  Nsocc
   -------------------------------------------------------
     A        828     828       0       0       0       0
   -------------------------------------------------------
    Total     828     828      49      49      49       0
   -------------------------------------------------------

  ==> Integral Setup <==

  ==> DFJK: Density-Fitted J/K Matrices <==

    J tasked:                  Yes
    K tasked:                  Yes
    wK tasked:                  No
    OpenMP threads:              8
    Integrals threads:           8
    Memory (MB):              3576
    Algorithm:                Disk
    Integral Cache:           NONE
    Schwarz Cutoff:          1E-12
    Fitting Condition:       1E-12

   => Auxiliary Basis Set <=

  Basis Set: (AUG-CC-PVTZ AUX)
    Blend: AUG-CC-PVTZ-JKFIT
    Number of shells: 532
    Number of basis function: 1824
    Number of Cartesian functions: 2274
    Spherical Harmonics?: true
    Max angular momentum: 4

  Minimum eigenvalue in the overlap matrix is 7.6491069220E-07.
  Using Symmetric Orthogonalization.

  SCF Guess: Orbitals guess was supplied from a previous computation.

  ==> Iterations <==

                           Total Energy        Delta E     RMS |[F,P]|

   @DF-RHF iter   0:  -650.13661847942353   -6.50137e+02   4.80021e-04 
   @DF-RHF iter   1:  -650.08784785195348    4.87706e-02   1.05673e-04 
   @DF-RHF iter   2:  -650.08816676460333   -3.18913e-04   4.72670e-05 DIIS
   @DF-RHF iter   3:  -650.08834398520833   -1.77221e-04   8.29298e-06 DIIS
   @DF-RHF iter   4:  -650.08835084842110   -6.86321e-06   4.45555e-06 DIIS
   @DF-RHF iter   5:  -650.08835305759249   -2.20917e-06   2.24257e-06 DIIS
   @DF-RHF iter   6:  -650.08835368804728   -6.30455e-07   8.00139e-07 DIIS
   @DF-RHF iter   7:  -650.08835386565192   -1.77605e-07   3.84289e-07 DIIS
   @DF-RHF iter   8:  -650.08835390325123   -3.75993e-08   1.53588e-07 DIIS
   @DF-RHF iter   9:  -650.08835390798822   -4.73699e-09   6.48962e-08 DIIS
   @DF-RHF iter  10:  -650.08835390885645   -8.68226e-10   2.24666e-08 DIIS
   @DF-RHF iter  11:  -650.08835390892716   -7.07132e-11   7.53317e-09 DIIS
   @DF-RHF iter  12:  -650.08835390896502   -3.78577e-11   2.38977e-09 DIIS
   @DF-RHF iter  13:  -650.08835390895501    1.00044e-11   1.04484e-09 DIIS
   @DF-RHF iter  14:  -650.08835390894285    1.21645e-11   4.10686e-10 DIIS
   @DF-RHF iter  15:  -650.08835390896479   -2.19416e-11   8.55443e-11 DIIS

  ==> Post-Iterations <==

    Orbital Energies (a.u.)
    -----------------------

    Doubly Occupied:                                                      

       1A    -26.292811     2A    -20.400245     3A    -15.744421  
       4A    -11.387591     5A    -11.387533     6A    -11.338120  
       7A    -11.312007     8A    -11.311972     9A    -11.298717  
      10A    -11.226797    11A    -11.218812    12A    -11.199822  
      13A    -11.166264    14A    -11.164337    15A     -1.609640  
      16A     -1.419650    17A     -1.231700    18A     -1.198051  
      19A     -1.142905    20A     -1.105016    21A     -1.000134  
      22A     -0.978179    23A     -0.966457    24A     -0.914363  
      25A     -0.870062    26A     -0.809232    27A     -0.794101  
      28A     -0.769713    29A     -0.745807    30A     -0.710301  
      31A     -0.702836    32A     -0.685730    33A     -0.682410  
      34A     -0.675817    35A     -0.660908    36A     -0.620261  
      37A     -0.608241    38A     -0.578785    39A     -0.565881  
      40A     -0.527149    41A     -0.492396    42A     -0.481099  
      43A     -0.464140    44A     -0.456824    45A     -0.441813  
      46A     -0.396283    47A     -0.316295    48A     -0.306622  
      49A     -0.221957  

    Virtual:                                                              

      50A     -0.020283    51A     -0.000538    52A      0.003274  
      53A      0.016636    54A      0.026084    55A      0.034181  
      56A      0.037931    57A      0.038160    58A      0.049007  
      59A      0.055615    60A      0.058655    61A      0.066165  
      62A      0.069904    63A      0.073469    64A      0.075329  
      65A      0.086093    66A      0.093040    67A      0.096033  
      68A      0.100246    69A      0.106145    70A      0.112883  
      71A      0.120828    72A      0.123651    73A      0.126236  
      74A      0.126471    75A      0.127768    76A      0.130387  
      77A      0.130906    78A      0.147281    79A      0.147505  
      80A      0.157420    81A      0.157735    82A      0.158777  
      83A      0.161885    84A      0.172668    85A      0.175324  
      86A      0.179415    87A      0.183759    88A      0.188690  
      89A      0.190211    90A      0.190383    91A      0.191696  
      92A      0.198168    93A      0.203144    94A      0.205606  
      95A      0.207308    96A      0.208666    97A      0.221004  
      98A      0.222064    99A      0.230645   100A      0.241113  
     101A      0.241297   102A      0.242752   103A      0.243624  
     104A      0.247589   105A      0.253901   106A      0.260691  
     107A      0.262450   108A      0.263700   109A      0.266668  
     110A      0.277071   111A      0.277566   112A      0.286969  
     113A      0.289383   114A      0.295284   115A      0.296254  
     116A      0.300944   117A      0.301124   118A      0.304112  
     119A      0.312284   120A      0.319933   121A      0.323482  
     122A      0.331322   123A      0.334102   124A      0.338118  
     125A      0.340281   126A      0.347772   127A      0.350520  
     128A      0.356221   129A      0.356700   130A      0.357945  
     131A      0.358513   132A      0.366657   133A      0.374647  
     134A      0.375962   135A      0.381259   136A      0.382958  
     137A      0.384658   138A      0.388294   139A      0.391155  
     140A      0.398021   141A      0.402904   142A      0.408085  
     143A      0.412377   144A      0.417553   145A      0.418435  
     146A      0.425696   147A      0.434768   148A      0.435089  
     149A      0.440278   150A      0.446489   151A      0.450040  
     152A      0.456662   153A      0.458550   154A      0.461169  
     155A      0.467076   156A      0.472193   157A      0.475421  
     158A      0.476240   159A      0.477888   160A      0.478077  
     161A      0.483160   162A      0.485550   163A      0.494002  
     164A      0.497869   165A      0.499465   166A      0.504292  
     167A      0.506848   168A      0.508819   169A      0.519329  
     170A      0.524715   171A      0.526249   172A      0.535049  
     173A      0.536352   174A      0.538672   175A      0.547634  
     176A      0.549162   177A      0.554074   178A      0.554895  
     179A      0.562121   180A      0.575121   181A      0.581048  
     182A      0.587417   183A      0.590917   184A      0.593509  
     185A      0.597818   186A      0.602705   187A      0.604324  
     188A      0.605547   189A      0.610040   190A      0.610264  
     191A      0.624338   192A      0.630922   193A      0.631731  
     194A      0.643976   195A      0.647818   196A      0.658027  
     197A      0.662836   198A      0.670214   199A      0.672299  
     200A      0.674628   201A      0.681043   202A      0.685552  
     203A      0.689631   204A      0.699660   205A      0.701519  
     206A      0.712610   207A      0.714083   208A      0.719128  
     209A      0.725402   210A      0.729199   211A      0.735300  
     212A      0.736925   213A      0.739966   214A      0.746110  
     215A      0.751402   216A      0.759912   217A      0.765007  
     218A      0.773549   219A      0.775624   220A      0.780178  
     221A      0.789711   222A      0.790870   223A      0.801679  
     224A      0.804023   225A      0.813860   226A      0.822978  
     227A      0.832840   228A      0.838134   229A      0.839582  
     230A      0.848478   231A      0.854244   232A      0.855411  
     233A      0.865031   234A      0.866586   235A      0.871979  
     236A      0.872482   237A      0.889622   238A      0.890906  
     239A      0.898623   240A      0.900564   241A      0.900719  
     242A      0.910582   243A      0.912553   244A      0.916616  
     245A      0.922074   246A      0.922913   247A      0.927038  
     248A      0.936312   249A      0.943294   250A      0.946173  
     251A      0.953036   252A      0.955785   253A      0.961067  
     254A      0.968717   255A      0.973972   256A      0.975551  
     257A      0.976201   258A      0.982968   259A      0.992414  
     260A      0.995186   261A      0.996907   262A      1.005117  
     263A      1.006550   264A      1.012010   265A      1.012476  
     266A      1.019953   267A      1.033320   268A      1.034844  
     269A      1.040035   270A      1.043366   271A      1.050511  
     272A      1.053028   273A      1.058018   274A      1.059749  
     275A      1.067239   276A      1.071623   277A      1.072701  
     278A      1.075336   279A      1.076389   280A      1.080041  
[...]
	                          DF-MP2                         
	      2nd-Order Density-Fitted Moller-Plesset Theory     
	              RMP2 Wavefunction,   8 Threads             
	                                                         
	        Rob Parrish, Justin Turney, Andy Simmonett,      
	           Ed Hohenstein, and C. David Sherrill          
	 --------------------------------------------------------

   => Auxiliary Basis Set <=

  Basis Set: (AUG-CC-PVTZ AUX)
    Blend: AUG-CC-PVTZ-RI
    Number of shells: 504
    Number of basis function: 1852
    Number of Cartesian functions: 2344
    Spherical Harmonics?: true
    Max angular momentum: 4

	 --------------------------------------------------------
	                 NBF =   828, NAUX =  1852
	 --------------------------------------------------------
	   CLASS    FOCC     OCC    AOCC    AVIR     VIR    FVIR
	   PAIRS       0      49      49     779     779       0
	 --------------------------------------------------------


         ------------------------------------------------------------
                                     CPHF                           
                                  Rob Parrish                       
         ------------------------------------------------------------

  ==> Geometry <==

    Molecular point group: c1
    Full point group: C1

    Geometry (in Angstrom), charge = 0, multiplicity = 1:

       Center              X                  Y                   Z               Mass       
    ------------   -----------------  -----------------  -----------------  -----------------
           C         -1.305666266113     1.158666870212    -0.719267305811    12.000000000000
           C         -2.440601635777     1.474707197333    -0.019329093856    12.000000000000
           C          1.983893637772     0.440561020785    -1.357573031124    12.000000000000
           C          0.821040509571    -1.587571247385    -0.884020403310    12.000000000000
           C         -1.507497387279     0.479727155234     1.943021066289    12.000000000000
           C          3.028815328931    -0.289540663021    -1.876960368304    12.000000000000
           C          1.873743690952    -2.298603049721    -1.403520590576    12.000000000000
           C         -0.213720767336     0.523337096386    -0.119626092893    12.000000000000
           C          0.814645815605    -0.174098204582    -0.867596232433    12.000000000000
           C         -2.608730766742     1.178707645857     1.375893493845    12.000000000000
           C         -0.426767202963     0.141259436866     1.201252236669    12.000000000000
           N          2.949912862134    -1.640320184972    -1.887427449584    14.003074004780
           O         -3.610420391222     1.484257905020     2.023595560512    15.994914619560
           F          0.559800712109    -0.573735852762     1.782637731989    18.998403224000
           H         -1.246896404344     1.391903731822    -1.769255725809     1.007825032070
           H         -3.273283309744     1.953391696068    -0.499795366560     1.007825032070
           H          2.065730079140     1.505940229021    -1.308236841774     1.007825032070
           H         -0.028203594464    -2.110134153318    -0.487168235446     1.007825032070
           H         -1.553248341560     0.236387808483     2.983204741808     1.007825032070
           H          3.945801983009     0.144504645049    -2.234191443270     1.007825032070
           H          1.902875783128    -3.373098923939    -1.454051322626     1.007825032070
           H          3.719273983778    -2.166802373921    -2.247603329477     1.007825032070

  Nuclear repulsion =  819.788143210615772
  Reference energy  = -650.096768030484100

  ==> Basis Set <==

  Basis Set: AUG-CC-PVTZ
    Blend: AUG-CC-PVTZ
    Number of shells: 268
    Number of basis function: 828
    Number of Cartesian functions: 970
    Spherical Harmonics?: true
    Max angular momentum: 3

  ==> CGRSolver (by Rob Parrish) <==

   Number of roots    =         1
   Preconditioning    =    JACOBI
   Convergence cutoff =     1E-06
   Maximum iterations =       100

  ==> CPHFRHamiltonian (by Rob Parrish) <== 

  ==> DFJK: Density-Fitted J/K Matrices <==

    J tasked:                  Yes
    K tasked:                  Yes
    wK tasked:                  No
    OpenMP threads:              8
    Integrals threads:           8
    Memory (MB):              3576
    Algorithm:                Disk
    Integral Cache:           NONE
    Schwarz Cutoff:          1E-12
    Fitting Condition:       1E-12

   => Auxiliary Basis Set <=

  Basis Set: (AUG-CC-PVTZ AUX)
    Blend: AUG-CC-PVTZ-JKFIT
    Number of shells: 532
    Number of basis function: 1824
    Number of Cartesian functions: 2274
    Spherical Harmonics?: true
    Max angular momentum: 4

  ==> CPHF Iterations <==

  => Iterations <=

             Iter  Converged  Remaining    Residual
  CGR           1          0          1   1.551E-01
  CGR           2          0          1   6.015E-02
  CGR           3          0          1   3.229E-02
  CGR           4          0          1   9.593E-03
  CGR           5          0          1   3.863E-03
  CGR           6          0          1   1.892E-03
  CGR           7          0          1   9.048E-04
  CGR           8          0          1   4.589E-04
  CGR           9          0          1   1.865E-04
  CGR          10          0          1   7.071E-05
  CGR          11          0          1   3.107E-05
  CGR          12          0          1   1.077E-05
  CGR          13          0          1   3.810E-06
  CGR          14          0          1   1.436E-06
  CGR          15          1          0   5.543E-07

    CGRSolver converged.

  ==> DFCorrGrad: Density-Fitted Correlated Gradients <==

    OpenMP threads:              8
    Integrals threads:           8
    Memory (MB):              3576
    Schwarz Cutoff:          0E+00
    Fitting Condition:       1E-12

   => Auxiliary Basis Set <=

  Basis Set: (AUG-CC-PVTZ AUX)
    Blend: AUG-CC-PVTZ-JKFIT
    Number of shells: 532
    Number of basis function: 1824
    Number of Cartesian functions: 2274
    Spherical Harmonics?: true
    Max angular momentum: 4

	-----------------------------------------------------------
	 ==================> DF-MP2 Energies <==================== 
	-----------------------------------------------------------
	 Reference Energy          =    -650.0967680304840997 [Eh]
	 Singles Energy            =      -0.0000000000000004 [Eh]
	 Same-Spin Energy          =      -0.6761913977824036 [Eh]
	 Opposite-Spin Energy      =      -2.0209436824856470 [Eh]
	 Correlation Energy        =      -2.6971350802680512 [Eh]
	 Total Energy              =    -652.7939031107521259 [Eh]
	-----------------------------------------------------------
	 ================> DF-SCS-MP2 Energies <================== 
	-----------------------------------------------------------
	 SCS Same-Spin Scale       =       0.3333333333333333 [-]
	 SCS Opposite-Spin Scale   =       1.2000000000000000 [-]
	 SCS Same-Spin Energy      =      -0.2253971325941345 [Eh]
	 SCS Opposite-Spin Energy  =      -2.4251324189827765 [Eh]
	 SCS Correlation Energy    =      -2.6505295515769114 [Eh]
	 SCS Total Energy          =    -652.7472975820610372 [Eh]
	-----------------------------------------------------------


  -Total Gradient:
     Atom            X                  Y                   Z
    ------   -----------------  -----------------  -----------------
       1        0.005052138444    -0.020947807984     0.004446933570
       2       -0.002507172691    -0.001184850864     0.007066281947
       3        0.006354708957     0.003663560539     0.014406853839
       4       -0.006219177535    -0.001428621787    -0.000845308834
       5       -0.007856135371     0.004600607895    -0.004082630674
       6        0.007325796663    -0.000335966758    -0.003764088890
       7        0.002049102773    -0.003793467520    -0.001754873571
       8       -0.007083826445     0.021087429252     0.015169061060
       9       -0.006719991502    -0.002860200142    -0.020080319955
      10       -0.007599943911     0.000891285743     0.012206617061
      11        0.007517401497     0.003610584389    -0.006028729265
      12        0.007891875009    -0.006128703439    -0.003284004438
      13        0.017803503356    -0.006081407198    -0.010555637593
      14       -0.011312632152     0.008018817118    -0.006996259526
      15        0.000554147120    -0.000985054470     0.003839841648
      16        0.002116679688    -0.001681962499     0.004359372186
      17       -0.001430961608    -0.006462277484     0.000124833649
      18        0.002262268986     0.002817711210    -0.001097953408
      19       -0.001675526555     0.002513664070    -0.006629120752
      20       -0.000521484480    -0.000453616586     0.000253009816
      21       -0.000001150442     0.000768234570     0.000292647211
      22       -0.005999619813     0.004372041947     0.002953474937


*** tstop() called on gpu-2-8.local at Sun Nov 12 21:27:17 2017
Module time:
	user time   =    5457.28 seconds =      90.95 minutes
	system time =     125.14 seconds =       2.09 minutes
	total time  =       2527 seconds =      42.12 minutes
Total time:
	user time   =  147464.64 seconds =    2457.74 minutes
	system time =    3109.75 seconds =      51.83 minutes
	total time  =      68534 seconds =    1142.23 minutes

			-----------------------------------------
			 OPTKING 2.0: for geometry optimizations 
			  - R.A. King,  Bethel University        
			-----------------------------------------

	Previous internal coordinate definitions found.
	---Fragment 1 Geometry and Gradient---
	 C          -2.4673516639        2.1895630639       -1.3592182243
	 C          -4.6120686911        2.7867927292       -0.0365266938
	 C           3.7490156522        0.8325396741       -2.5654412342
	 C           1.5515417071       -3.0000748740       -1.6705564581
	 C          -2.8487572080        0.9065529419        3.6717776857
	 C           5.7236314788       -0.5471525574       -3.5469410584
	 C           3.5408624191       -4.3437302522       -2.6522695381
	 C          -0.4038737192        0.9889637873       -0.2260605539
	 C           1.5394574868       -0.3289979269       -1.6395192732
	 C          -4.9297867036        2.2274346414        2.6000618914
	 C          -0.8064731361        0.2669416494        2.2700377438
	 N           5.5745274253       -3.0997559198       -3.5667209754
	 O          -6.8227057640        2.8048409511        3.8240414131
	 F           1.0578700349       -1.0842036343        3.3686971076
	 H          -2.3562927203        2.6303168565       -3.3434087808
	 H          -6.1856090108        3.6913753358       -0.9444763653
	 H           3.9036641140        2.8458146053       -2.4722093479
	 H          -0.0532970695       -3.9875756534       -0.9206145456
	 H          -2.9352139819        0.4467082192        5.6374399603
	 H           7.4564851225        0.2730742041       -4.2220099562
	 H           3.5959140950       -6.3742331854       -2.7477587829
	 H           7.0284092425       -4.0946630708       -4.2473547481
	             0.0050521384       -0.0209478080        0.0044469336
	            -0.0025071727       -0.0011848509        0.0070662819
	             0.0063547090        0.0036635605        0.0144068538
	            -0.0062191775       -0.0014286218       -0.0008453088
	            -0.0078561354        0.0046006079       -0.0040826307
	             0.0073257967       -0.0003359668       -0.0037640889
	             0.0020491028       -0.0037934675       -0.0017548736
	            -0.0070838264        0.0210874293        0.0151690611
	            -0.0067199915       -0.0028602001       -0.0200803200
	            -0.0075999439        0.0008912857        0.0122066171
	             0.0075174015        0.0036105844       -0.0060287293
	             0.0078918750       -0.0061287034       -0.0032840044
	             0.0178035034       -0.0060814072       -0.0105556376
	            -0.0113126322        0.0080188171       -0.0069962595
	             0.0005541471       -0.0009850545        0.0038398416
	             0.0021166797       -0.0016819625        0.0043593722
	            -0.0014309616       -0.0064622775        0.0001248336
	             0.0022622690        0.0028177112       -0.0010979534
	            -0.0016755266        0.0025136641       -0.0066291208
	            -0.0005214845       -0.0004536166        0.0002530098
	            -0.0000011504        0.0007682346        0.0002926472
	            -0.0059996198        0.0043720419        0.0029534749

	---Fragment 1 Intrafragment Coordinates---
	 - Coordinate -           - BOHR/RAD -       - ANG/DEG -
	 R(1,2)           =         2.589596	       1.370355
	 R(1,8)           =         2.642617	       1.398413
	 R(1,15)          =         2.035586	       1.077186
	 R(2,10)          =         2.713932	       1.436151
	 R(2,16)          =         2.029451	       1.073939
	 R(3,6)           =         2.601154	       1.376471
	 R(3,9)           =         2.662452	       1.408909
	 R(3,17)          =         2.021357	       1.069656
	 R(4,7)           =         2.593563	       1.372454
	 R(4,9)           =         2.671285	       1.413583
	 R(4,18)          =         2.028073	       1.073210
	 R(5,10)          =         2.687748	       1.422295
	 R(5,11)          =         2.558301	       1.353794
	 R(5,19)          =         2.020584	       1.069247
	 R(6,12)          =         2.557031	       1.353122
	 R(6,20)          =         2.032553	       1.075581
	 R(7,12)          =         2.553329	       1.351163
	 R(7,21)          =         2.033492	       1.076078
	 R(8,9)           =         2.740698	       1.450315
	 R(8,11)          =         2.629431	       1.391435
	 R(10,13)         =         2.326944	       1.231366
	 R(11,14)         =         2.551161	       1.350016
	 R(12,22)         =         1.888617	       0.999413
	 B(1,2,10)        =         2.147948	     123.068339
	 B(1,2,16)        =         2.113479	     121.093451
	 B(1,8,9)         =         2.154360	     123.435760
	 B(1,8,11)        =         1.995723	     114.346479
	 B(2,1,8)         =         2.132301	     122.171841
	 B(2,1,15)        =         2.086474	     119.546171
	 B(2,10,5)        =         1.980159	     113.454769
	 B(2,10,13)       =         2.159283	     123.717814
	 B(3,6,12)        =         2.080765	     119.219056
	 B(3,6,20)        =         2.163341	     123.950296
	 B(3,9,4)         =         2.013559	     115.368431
	 B(3,9,8)         =         2.162784	     123.918368
	 B(4,7,12)        =         2.087566	     119.608732
	 B(4,7,21)        =         2.160183	     123.769378
	 B(4,9,8)         =         2.082941	     119.343728
	 B(5,10,13)       =         2.143678	     122.823720
	 B(5,11,8)        =         2.181827	     125.009486
	 B(5,11,14)       =         2.071260	     118.674456
	 B(6,3,9)         =         2.129187	     121.993458
	 B(6,3,17)        =         2.080157	     119.184243
	 B(6,12,7)        =         2.129428	     122.007263
	 B(6,12,22)       =         2.075763	     118.932447
	 B(7,4,9)         =         2.124570	     121.728899
	 B(7,4,18)        =         2.088246	     119.647678
	 B(7,12,22)       =         2.077795	     119.048889
	 B(8,1,15)        =         2.064334	     118.277636
	 B(8,11,14)       =         2.029015	     116.253975
	 B(9,3,17)        =         2.073703	     118.814442
	 B(9,4,18)        =         2.070314	     118.620238
	 B(9,8,11)        =         2.055671	     117.781252
	 B(10,2,16)       =         2.021650	     115.832022
	 B(10,5,11)       =         2.120558	     121.499050
	 B(10,5,19)       =         2.056258	     117.814919
	 B(11,5,19)       =         2.106312	     120.682792
	 B(12,6,20)       =         2.037551	     116.743078
	 B(12,7,21)       =         2.035436	     116.621889
	 D(1,2,10,5)      =        -0.041917	      -2.401660
	 D(1,2,10,13)     =         3.111598	     178.281422
	 D(1,8,9,3)       =         1.561015	      89.439564
	 D(1,8,9,4)       =        -1.824842	    -104.555728
	 D(1,8,11,5)      =        -0.143936	      -8.246928
	 D(1,8,11,14)     =         3.048530	     174.667930
	 D(2,1,8,9)       =         2.811300	     161.075644
	 D(2,1,8,11)      =         0.092805	       5.317363
	 D(2,10,5,11)     =        -0.004039	      -0.231433
	 D(2,10,5,19)     =         3.126197	     179.117902
	 D(3,6,12,7)      =         0.000926	       0.053049
	 D(3,6,12,22)     =        -3.119015	    -178.706380
	 D(3,9,4,7)       =        -0.052148	      -2.987837
	 D(3,9,4,18)      =         3.100821	     177.663962
	 D(3,9,8,11)      =        -2.017120	    -115.572488
	 D(4,7,12,6)      =         0.001251	       0.071682
	 D(4,7,12,22)     =         3.121167	     178.829713
	 D(4,9,3,6)       =         0.054516	       3.123539
	 D(4,9,3,17)      =        -3.069126	    -175.847959
	 D(4,9,8,11)      =         0.880208	      50.432220
	 D(5,10,2,16)     =         3.084017	     176.701141
	 D(5,11,8,9)      =        -2.887853	    -165.461781
	 D(6,3,9,8)       =         2.960628	     169.631485
	 D(6,12,7,21)     =        -3.140559	    -179.940763
	 D(7,4,9,8)       =        -2.969766	    -170.155074
	 D(7,12,6,20)     =         3.085488	     176.785412
	 D(8,1,2,10)      =        -0.004997	      -0.286311
	 D(8,1,2,16)      =        -3.130131	    -179.343271
	 D(8,9,3,17)      =        -0.163014	      -9.340013
	 D(8,9,4,18)      =         0.183202	      10.496725
	 D(8,11,5,10)     =         0.102887	       5.895012
	 D(8,11,5,19)     =        -3.027026	    -173.435821
	 D(9,3,6,12)      =        -0.030721	      -1.760196
	 D(9,3,6,20)      =        -3.110911	    -178.242074
	 D(9,4,7,12)      =         0.026122	       1.496689
	 D(9,4,7,21)      =        -3.115237	    -178.489927
	 D(9,8,1,15)      =        -0.316977	     -18.161422
	 D(9,8,11,14)     =         0.304614	      17.453077
	 D(10,2,1,15)     =         3.123116	     178.941368
	 D(10,5,11,14)    =        -3.090710	    -177.084629
	 D(11,5,10,13)    =         3.125753	     179.092444
	 D(11,8,1,15)     =        -3.035471	    -173.919703
	 D(12,6,3,17)     =         3.092856	     177.207615
	 D(12,7,4,18)     =        -3.126961	    -179.161658
	 D(13,10,2,16)    =        -0.045654	      -2.615777
	 D(13,10,5,19)    =        -0.027196	      -1.558221
	 D(14,11,5,19)    =         0.062562	       3.584539
	 D(15,1,2,16)     =        -0.002017	      -0.115592
	 D(17,3,6,20)     =         0.012667	       0.725737
	 D(18,4,7,21)     =         0.014865	       0.851726
	 D(20,6,12,22)    =        -0.034453	      -1.974017
	 D(21,7,12,22)    =        -0.020643	      -1.182732

	Current energy   :      -652.7939031108

	Energy change for the previous step:
		Projected    :        -0.0021804355
		Actual       :        -0.0011360353

	Performing BFGS update.
	Previous computed or guess Hessian on step 1.
	Steps to be used in Hessian update: 24 23
	Adding user-defined constraint: Fragment 1; Coordinate 62:
		Value =     1.561015; Fixed value    =     1.570800
		Force =     0.010764; Force constant =     1.100000
	Removing off-diagonal coupling between coordinate 62 and others.
	Taking RFO optimization step.
	Going to follow RFO solution 1.
	Rejecting RFO root 1 because normalization gives large value.
	Using RFO vector 2.
	Norm of target step-size    0.08571
	Projected energy change by RFO approximation:        -0.0002530714

	Back-transformation to cartesian coordinates...
	The INTCO_EXCEPTion handler:
	TORS::compute_val: unable to compute torsion value
	Dynamic level is 0.
	exc.g_really_quit() is 0.

  **** Optimization has failed! (in 25 steps) ****
			--------------------------
			 OPTKING Finished Execution 
			--------------------------
	Cleaning optimization helper files.

*** Psi4 exiting successfully. Buy a developer a beer!
