
    -----------------------------------------------------------------------
          Psi4: An Open-Source Ab Initio Electronic Structure Package
                               Psi4 1.1 release

                         Git: Rev {HEAD} add49b9 


    R. M. Parrish, L. A. Burns, D. G. A. Smith, A. C. Simmonett,
    A. E. DePrince III, E. G. Hohenstein, U. Bozkaya, A. Yu. Sokolov,
    R. Di Remigio, R. M. Richard, J. F. Gonthier, A. M. James,
    H. R. McAlexander, A. Kumar, M. Saitow, X. Wang, B. P. Pritchard,
    P. Verma, H. F. Schaefer III, K. Patkowski, R. A. King, E. F. Valeev,
    F. A. Evangelista, J. M. Turney, T. D. Crawford, and C. D. Sherrill,
    J. Chem. Theory Comput. in press (2017).
    (doi: 10.1021/acs.jctc.7b00174)

    -----------------------------------------------------------------------


    Psi4 started on: Sunday, 12 November 2017 07:38AM

    Process ID:   5327
    PSIDATADIR: /cbio/jclab/home/chayas/anaconda/envs/py35/share/psi4
    Memory:     500.0 MiB
    Threads:    8
    
  ==> Input File <==

--------------------------------------------------------------------------

memory 5 Gb

molecule phepyrOH_cation {
  symmetry C1
  1 1 
  C      1.885   -1.036   -0.112
  C      2.878   -1.652   2.002
  C      0.807   -0.463   0.561
  C      1.800   -1.079   2.676
  C      4.145   -3.609   -0.186
  C      5.013   -1.414   -0.666
  C      5.229   -4.152   -0.862
  C      6.075   -2.012   -1.329
  C      2.921   -1.631   0.608
  C      4.040   -2.225   -0.090
  C      0.764   -0.484   1.955
  N      6.151   -3.348   -1.407
  O      -0.288   0.076   2.612
  H      1.904   -1.012   -1.199
  H      3.678   -2.112   2.578
  H      0.003   -0.001   -0.006
  H      1.772   -1.098   3.762
  H      3.400   -4.267   0.253
  H      4.956   -0.331   -0.606
  H      5.391   -5.214   -0.986
  H      6.874   -1.462   -1.806
  H      6.941   -3.767   -1.898
  H      -0.175   -0.018   3.571
  units Angstrom
}

dih_string = "1 9 10 5 255"
set optking fixed_dihedral = $dih_string

optimize('MP2/aug-cc-PVTZ')
--------------------------------------------------------------------------

  Memory set to   4.657 GiB by Python driver.
gradient() will perform analytic gradient computation.

*** tstart() called on gpu-2-4.local
*** at Sun Nov 12 07:38:06 2017

    SCF Algorithm Type (re)set to DF.

*** tstart() called on gpu-2-4.local
*** at Sun Nov 12 07:38:06 2017

   => Loading Basis Set <=

    Name: AUG-CC-PVTZ
    Role: ORBITAL
    Keyword: BASIS
    atoms 1-11  entry C          line   221 file /cbio/jclab/home/chayas/anaconda/envs/py35/share/psi4/basis/aug-cc-pvtz.gbs 
    atoms 12    entry N          line   267 file /cbio/jclab/home/chayas/anaconda/envs/py35/share/psi4/basis/aug-cc-pvtz.gbs 
    atoms 13    entry O          line   313 file /cbio/jclab/home/chayas/anaconda/envs/py35/share/psi4/basis/aug-cc-pvtz.gbs 
    atoms 14-23 entry H          line    34 file /cbio/jclab/home/chayas/anaconda/envs/py35/share/psi4/basis/aug-cc-pvtz.gbs 


         ---------------------------------------------------------
                                   SCF
            by Justin Turney, Rob Parrish, and Andy Simmonett
                              RHF Reference
                        8 Threads,   4768 MiB Core
         ---------------------------------------------------------

  ==> Geometry <==

    Molecular point group: c1
    Full point group: C1

    Geometry (in Angstrom), charge = 1, multiplicity = 1:

       Center              X                  Y                   Z               Mass       
    ------------   -----------------  -----------------  -----------------  -----------------
           C         -1.271892834465     0.720102773851    -0.579537269801    12.000000000000
           C         -0.278892834465     0.104102773851     1.534462730199    12.000000000000
           C         -2.349892834465     1.293102773851     0.093462730199    12.000000000000
           C         -1.356892834465     0.677102773851     2.208462730199    12.000000000000
           C          0.988107165535    -1.852897226149    -0.653537269801    12.000000000000
           C          1.856107165535     0.342102773851    -1.133537269801    12.000000000000
           C          2.072107165535    -2.395897226149    -1.329537269801    12.000000000000
           C          2.918107165535    -0.255897226149    -1.796537269801    12.000000000000
           C         -0.235892834465     0.125102773851     0.140462730199    12.000000000000
           C          0.883107165535    -0.468897226149    -0.557537269801    12.000000000000
           C         -2.392892834465     1.272102773851     1.487462730199    12.000000000000
           N          2.994107165535    -1.591897226149    -1.874537269801    14.003074004780
           O         -3.444892834465     1.832102773851     2.144462730199    15.994914619560
           H         -1.252892834465     0.744102773851    -1.666537269801     1.007825032070
           H          0.521107165535    -0.355897226149     2.110462730199     1.007825032070
           H         -3.153892834465     1.755102773851    -0.473537269801     1.007825032070
           H         -1.384892834465     0.658102773851     3.294462730199     1.007825032070
           H          0.243107165535    -2.510897226149    -0.214537269801     1.007825032070
           H          1.799107165535     1.425102773851    -1.073537269801     1.007825032070
           H          2.234107165535    -3.457897226149    -1.453537269801     1.007825032070
           H          3.717107165535     0.294102773851    -2.273537269801     1.007825032070
           H          3.784107165535    -2.010897226149    -2.365537269801     1.007825032070
           H         -3.331892834465     1.738102773851     3.103462730199     1.007825032070

  Running in c1 symmetry.

  Rotational constants: A =      0.09611  B =      0.01282  C =      0.01239 [cm^-1]
  Rotational constants: A =   2881.20058  B =    384.21722  C =    371.37500 [MHz]
  Nuclear repulsion =  711.855478083163007

  Charge       = 1
  Multiplicity = 1
  Electrons    = 90
  Nalpha       = 45
  Nbeta        = 45

  ==> Algorithm <==

  SCF Algorithm Type is DF.
  DIIS enabled.
  MOM disabled.
  Fractional occupation disabled.
  Guess Type is SAD.
  Energy threshold   = 1.00e-10
  Density threshold  = 1.00e-10
  Integral threshold = 0.00e+00

  ==> Primary Basis <==

  Basis Set: AUG-CC-PVTZ
    Blend: AUG-CC-PVTZ
    Number of shells: 272
    Number of basis function: 828
    Number of Cartesian functions: 965
    Spherical Harmonics?: true
    Max angular momentum: 3

   => Loading Basis Set <=

    Name: (AUG-CC-PVTZ AUX)
    Role: JKFIT
    Keyword: DF_BASIS_SCF
    atoms 1-11  entry C          line   161 file /cbio/jclab/home/chayas/anaconda/envs/py35/share/psi4/basis/aug-cc-pvtz-jkfit.gbs 
    atoms 12    entry N          line   223 file /cbio/jclab/home/chayas/anaconda/envs/py35/share/psi4/basis/aug-cc-pvtz-jkfit.gbs 
    atoms 13    entry O          line   285 file /cbio/jclab/home/chayas/anaconda/envs/py35/share/psi4/basis/aug-cc-pvtz-jkfit.gbs 
    atoms 14-23 entry H          line    69 file /cbio/jclab/home/chayas/anaconda/envs/py35/share/psi4/basis/aug-cc-pvtz-jkfit.gbs 

  ==> Pre-Iterations <==

   -------------------------------------------------------
    Irrep   Nso     Nmo     Nalpha   Nbeta   Ndocc  Nsocc
   -------------------------------------------------------
     A        828     828       0       0       0       0
   -------------------------------------------------------
    Total     828     828      45      45      45       0
   -------------------------------------------------------

  ==> Integral Setup <==

  ==> DFJK: Density-Fitted J/K Matrices <==

    J tasked:                  Yes
    K tasked:                  Yes
    wK tasked:                  No
    OpenMP threads:              8
    Integrals threads:           8
    Memory (MB):              3576
    Algorithm:                Disk
    Integral Cache:           NONE
    Schwarz Cutoff:          1E-12
    Fitting Condition:       1E-12

   => Auxiliary Basis Set <=

  Basis Set: (AUG-CC-PVTZ AUX)
    Blend: AUG-CC-PVTZ-JKFIT
    Number of shells: 530
    Number of basis function: 1812
    Number of Cartesian functions: 2253
    Spherical Harmonics?: true
    Max angular momentum: 4

  Minimum eigenvalue in the overlap matrix is 5.6645803874E-07.
  Using Symmetric Orthogonalization.

  SCF Guess: Superposition of Atomic Densities via on-the-fly atomic UHF.

  ==> Iterations <==

                           Total Energy        Delta E     RMS |[F,P]|

   @DF-RHF iter   0:  -554.52684669106532   -5.54527e+02   1.47571e-02 
   @DF-RHF iter   1:  -551.32473362688893    3.20211e+00   1.50119e-03 
   @DF-RHF iter   2:  -551.61315623149721   -2.88423e-01   5.71668e-04 DIIS
   @DF-RHF iter   3:  -551.65737792950256   -4.42217e-02   2.41388e-04 DIIS
   @DF-RHF iter   4:  -551.66846369288658   -1.10858e-02   1.00804e-04 DIIS
   @DF-RHF iter   5:  -551.66985067854137   -1.38699e-03   3.17920e-05 DIIS
   @DF-RHF iter   6:  -551.67011137882560   -2.60700e-04   9.37822e-06 DIIS
   @DF-RHF iter   7:  -551.67014264309000   -3.12643e-05   3.34783e-06 DIIS
   @DF-RHF iter   8:  -551.67014517845200   -2.53536e-06   1.01428e-06 DIIS
   @DF-RHF iter   9:  -551.67014545483278   -2.76381e-07   3.80977e-07 DIIS
   @DF-RHF iter  10:  -551.67014551095656   -5.61238e-08   1.92582e-07 DIIS
   @DF-RHF iter  11:  -551.67014552879107   -1.78345e-08   8.19628e-08 DIIS
   @DF-RHF iter  12:  -551.67014553311469   -4.32362e-09   2.97657e-08 DIIS
   @DF-RHF iter  13:  -551.67014553360332   -4.88626e-10   1.28510e-08 DIIS
   @DF-RHF iter  14:  -551.67014553366653   -6.32099e-11   4.99246e-09 DIIS
   @DF-RHF iter  15:  -551.67014553367437   -7.84439e-12   2.21734e-09 DIIS
   @DF-RHF iter  16:  -551.67014553367778   -3.41061e-12   7.26416e-10 DIIS
   @DF-RHF iter  17:  -551.67014553367540    2.38742e-12   2.50057e-10 DIIS
   @DF-RHF iter  18:  -551.67014553366516    1.02318e-11   1.25066e-10 DIIS
   @DF-RHF iter  19:  -551.67014553367437   -9.20863e-12   6.23436e-11 DIIS

  ==> Post-Iterations <==

    Orbital Energies (a.u.)
    -----------------------

    Doubly Occupied:                                                      

       1A    -20.692309     2A    -15.845426     3A    -11.490573  
       4A    -11.490391     5A    -11.448632     6A    -11.421251  
       7A    -11.421183     8A    -11.420350     9A    -11.370264  
      10A    -11.368846    11A    -11.366227    12A    -11.350385  
      13A    -11.347009    14A     -1.519938    15A     -1.507854  
      16A     -1.320302    17A     -1.260732    18A     -1.243654  
      19A     -1.151482    20A     -1.141675    21A     -1.072172  
      22A     -1.055739    23A     -0.969525    24A     -0.968131  
      25A     -0.944836    26A     -0.875221    27A     -0.858773  
      28A     -0.846952    29A     -0.822459    30A     -0.801715  
      31A     -0.789108    32A     -0.776118    33A     -0.748866  
      34A     -0.729164    35A     -0.716958    36A     -0.710528  
      37A     -0.694643    38A     -0.681251    39A     -0.645995  
      40A     -0.616160    41A     -0.604921    42A     -0.576750  
      43A     -0.541757    44A     -0.462347    45A     -0.434934  

    Virtual:                                                              

      46A     -0.102533    47A     -0.087983    48A     -0.070313  
      49A     -0.063607    50A     -0.060108    51A     -0.053742  
      52A     -0.041986    53A     -0.040092    54A     -0.038862  
      55A     -0.032051    56A     -0.023751    57A     -0.018061  
      58A     -0.013348    59A     -0.010552    60A     -0.004332  
      61A     -0.003905    62A      0.001487    63A      0.007255  
      64A      0.009895    65A      0.014042    66A      0.014132  
      67A      0.016175    68A      0.019001    69A      0.026336  
      70A      0.028825    71A      0.031754    72A      0.033868  
      73A      0.035383    74A      0.038286    75A      0.042061  
      76A      0.042770    77A      0.045257    78A      0.055756  
      79A      0.058706    80A      0.061367    81A      0.063600  
      82A      0.069355    83A      0.075276    84A      0.079578  
      85A      0.085986    86A      0.088890    87A      0.093013  
      88A      0.094576    89A      0.096668    90A      0.101535  
      91A      0.103377    92A      0.107678    93A      0.117313  
      94A      0.124342    95A      0.130630    96A      0.131333  
      97A      0.136490    98A      0.137306    99A      0.142476  
     100A      0.146163   101A      0.149713   102A      0.153268  
     103A      0.159600   104A      0.162328   105A      0.164315  
     106A      0.168715   107A      0.173153   108A      0.174545  
     109A      0.176312   110A      0.178728   111A      0.183327  
     112A      0.188710   113A      0.191508   114A      0.194942  
     115A      0.197511   116A      0.204888   117A      0.207339  
     118A      0.212281   119A      0.215466   120A      0.218283  
     121A      0.221926   122A      0.224697   123A      0.229821  
     124A      0.231355   125A      0.235932   126A      0.238106  
     127A      0.246446   128A      0.247115   129A      0.252060  
     130A      0.256163   131A      0.260353   132A      0.261860  
     133A      0.274678   134A      0.276685   135A      0.279743  
     136A      0.282147   137A      0.289241   138A      0.295018  
     139A      0.297903   140A      0.301190   141A      0.305854  
     142A      0.310043   143A      0.316037   144A      0.323862  
     145A      0.326588   146A      0.328001   147A      0.328552  
     148A      0.330580   149A      0.335022   150A      0.338119  
     151A      0.341267   152A      0.345024   153A      0.349901  
     154A      0.353398   155A      0.354259   156A      0.357489  
     157A      0.362851   158A      0.365993   159A      0.367142  
     160A      0.371432   161A      0.372030   162A      0.374992  
     163A      0.377221   164A      0.384099   165A      0.388043  
     166A      0.390127   167A      0.394332   168A      0.400602  
     169A      0.402165   170A      0.408597   171A      0.412520  
     172A      0.413378   173A      0.417816   174A      0.421721  
     175A      0.425349   176A      0.428314   177A      0.431888  
     178A      0.436818   179A      0.439685   180A      0.444648  
     181A      0.450153   182A      0.455489   183A      0.462703  
     184A      0.465484   185A      0.469118   186A      0.481915  
     187A      0.485063   188A      0.487050   189A      0.491367  
     190A      0.494245   191A      0.496389   192A      0.500905  
     193A      0.511776   194A      0.515008   195A      0.529135  
     196A      0.530058   197A      0.541251   198A      0.543529  
     199A      0.551259   200A      0.555276   201A      0.569241  
     202A      0.570785   203A      0.575105   204A      0.580469  
     205A      0.585661   206A      0.589194   207A      0.593752  
     208A      0.599185   209A      0.602914   210A      0.606939  
     211A      0.613040   212A      0.615730   213A      0.621705  
     214A      0.624701   215A      0.628997   216A      0.636247  
     217A      0.640153   218A      0.641369   219A      0.643859  
     220A      0.652419   221A      0.658420   222A      0.662942  
     223A      0.675367   224A      0.676884   225A      0.682096  
     226A      0.693238   227A      0.697805   228A      0.709008  
     229A      0.719314   230A      0.720452   231A      0.725367  
     232A      0.735661   233A      0.745246   234A      0.748063  
     235A      0.749353   236A      0.752139   237A      0.753949  
     238A      0.759193   239A      0.766263   240A      0.771753  
     241A      0.775796   242A      0.779939   243A      0.781685  
     244A      0.784257   245A      0.789782   246A      0.792779  
     247A      0.794370   248A      0.797304   249A      0.802495  
     250A      0.804649   251A      0.808140   252A      0.810054  
     253A      0.813164   254A      0.824509   255A      0.830168  
     256A      0.834661   257A      0.840284   258A      0.843952  
     259A      0.852921   260A      0.858027   261A      0.859439  
     262A      0.866785   263A      0.869672   264A      0.875425  
     265A      0.880381   266A      0.881791   267A      0.886854  
     268A      0.896210   269A      0.898162   270A      0.908102  
     271A      0.910008   272A      0.910853   273A      0.916672  
     274A      0.929118   275A      0.933460   276A      0.934641  
     277A      0.940576   278A      0.945233   279A      0.946825  
     280A      0.952756   281A      0.957989   282A      0.959269  
     283A      0.962651   284A      0.968350   285A      0.974743  
     286A      0.977111   287A      0.980267   288A      0.985425  
     289A      0.989932   290A      0.995492   291A      0.998257  
     292A      1.001368   293A      1.008169   294A      1.009887  
     295A      1.013318   296A      1.019220   297A      1.023543  
     298A      1.030937   299A      1.035901   300A      1.038578  
     301A      1.044740   302A      1.045659   303A      1.055354  
     304A      1.057309   305A      1.063932   306A      1.067892  
     307A      1.070968   308A      1.072190   309A      1.079435  
     310A      1.084164   311A      1.087986   312A      1.095737  
     313A      1.098594   314A      1.106993   315A      1.113756  
     316A      1.117259   317A      1.120971   318A      1.129041  
     319A      1.135302   320A      1.137944   321A      1.141191  
     322A      1.147049   323A      1.155067   324A      1.157314  
     325A      1.163832   326A      1.168676   327A      1.181686  
     328A      1.186527   329A      1.191817   330A      1.195392  
     331A      1.209365   332A      1.214352   333A      1.221041  
     334A      1.234391   335A      1.239440   336A      1.242187  
     337A      1.247612   338A      1.253191   339A      1.259710  
     340A      1.265846   341A      1.268320   342A      1.280386  
     343A      1.283517   344A      1.290936   345A      1.298027  
     346A      1.298419   347A      1.305865   348A      1.314818  
     349A      1.317016   350A      1.326732   351A      1.335235  
     352A      1.340138   353A      1.349679   354A      1.356187  
     355A      1.363460   356A      1.374710   357A      1.383877  
     358A      1.388130   359A      1.399909   360A      1.400183  
     361A      1.411760   362A      1.420717   363A      1.422609  
     364A      1.425204   365A      1.437841   366A      1.442890  
     367A      1.445922   368A      1.449432   369A      1.453883  
     370A      1.458777   371A      1.471737   372A      1.473514  
     373A      1.482447   374A      1.496151   375A      1.501276  
     376A      1.508448   377A      1.513501   378A      1.521178  
     379A      1.531456   380A      1.538999   381A      1.542020  
     382A      1.547145   383A      1.549529   384A      1.560845  
     385A      1.570667   386A      1.592165   387A      1.596900  
     388A      1.604217   389A      1.609058   390A      1.620213  
     391A      1.627095   392A      1.631355   393A      1.638343  
     394A      1.645203   395A      1.656896   396A      1.667804  
     397A      1.674050   398A      1.677091   399A      1.686209  
     400A      1.691532   401A      1.693458   402A      1.703527  
     403A      1.720607   404A      1.725186   405A      1.732641  
     406A      1.736193   407A      1.748405   408A      1.751668  
     409A      1.752903   410A      1.775053   411A      1.779982  
     412A      1.783319   413A      1.788260   414A      1.806490  
     415A      1.810415   416A      1.812054   417A      1.822937  
     418A      1.831043   419A      1.840745   420A      1.843076  
     421A      1.852095   422A      1.857138   423A      1.865841  
     424A      1.876933   425A      1.888664   426A      1.891889  
     427A      1.897089   428A      1.905601   429A      1.913915  
     430A      1.917930   431A      1.923552   432A      1.937041  
     433A      1.943519   434A      1.944883   435A      1.955208  
     436A      1.963396   437A      1.972212   438A      1.985057  
     439A      1.989817   440A      2.001494   441A      2.006138  
     442A      2.017220   443A      2.026039   444A      2.030772  
     445A      2.038164   446A      2.044013   447A      2.051937  
     448A      2.057537   449A      2.065920   450A      2.068168  
     451A      2.081507   452A      2.090828   453A      2.096581  
     454A      2.105250   455A      2.112483   456A      2.125436  
     457A      2.142856   458A      2.152195   459A      2.159509  
     460A      2.166681   461A      2.189218   462A      2.193748  
     463A      2.200862   464A      2.223635   465A      2.229254  
     466A      2.232945   467A      2.246277   468A      2.248289  
     469A      2.258245   470A      2.275894   471A      2.280260  
     472A      2.284845   473A      2.295467   474A      2.304586  
     475A      2.310592   476A      2.312746   477A      2.317121  
     478A      2.334721   479A      2.350622   480A      2.367757  
     481A      2.390767   482A      2.393310   483A      2.402280  
     484A      2.408556   485A      2.419105   486A      2.425070  
     487A      2.439429   488A      2.447725   489A      2.462691  
     490A      2.473770   491A      2.483829   492A      2.500040  
     493A      2.512519   494A      2.519996   495A      2.525386  
     496A      2.536833   497A      2.554390   498A      2.556889  
     499A      2.575049   500A      2.586636   501A      2.593350  
     502A      2.628621   503A      2.638850   504A      2.651109  
     505A      2.696869   506A      2.697335   507A      2.709587  
     508A      2.729368   509A      2.749976   510A      2.756888  
     511A      2.765154   512A      2.787463   513A      2.816462  
     514A      2.829456   515A      2.843940   516A      2.877636  
     517A      2.884184   518A      2.922085   519A      2.938035  
     520A      2.948649   521A      2.953773   522A      2.976501  
     523A      2.994865   524A      3.020528   525A      3.052099  
     526A      3.061742   527A      3.079086   528A      3.088355  
     529A      3.101013   530A      3.114506   531A      3.121869  
     532A      3.132381   533A      3.155723   534A      3.167265  
     535A      3.174138   536A      3.181181   537A      3.195158  
     538A      3.224681   539A      3.232262   540A      3.248593  
     541A      3.258581   542A      3.260577   543A      3.263900  
     544A      3.283770   545A      3.296639   546A      3.306366  
     547A      3.307182   548A      3.313209   549A      3.318791  
     550A      3.331580   551A      3.344267   552A      3.347414  
     553A      3.357705   554A      3.373252   555A      3.378969  
     556A      3.390988   557A      3.395535   558A      3.406452  
     559A      3.412081   560A      3.414702   561A      3.432933  
     562A      3.436365   563A      3.438976   564A      3.449314  
     565A      3.450722   566A      3.455466   567A      3.477055  
     568A      3.482572   569A      3.486642   570A      3.499634  
     571A      3.511046   572A      3.518602   573A      3.535841  
     574A      3.543270   575A      3.553763   576A      3.566548  
     577A      3.581519   578A      3.587244   579A      3.593748  
     580A      3.601790   581A      3.615905   582A      3.617645  
     583A      3.622440   584A      3.647308   585A      3.657703  
     586A      3.660647   587A      3.670286   588A      3.682810  
     589A      3.686410   590A      3.689443   591A      3.698272  
     592A      3.719248   593A      3.726869   594A      3.730290  
     595A      3.735602   596A      3.751641   597A      3.760014  
     598A      3.763533   599A      3.781314   600A      3.788063  
     601A      3.795661   602A      3.799136   603A      3.799889  
     604A      3.811277   605A      3.834268   606A      3.841202  
     607A      3.850908   608A      3.864035   609A      3.866339  
     610A      3.871104   611A      3.878197   612A      3.884413  
     613A      3.889962   614A      3.900805   615A      3.904277  
     616A      3.930824   617A      3.933176   618A      3.937544  
     619A      3.950721   620A      3.968794   621A      3.973412  
     622A      3.980918   623A      3.987754   624A      4.002857  
     625A      4.005166   626A      4.022034   627A      4.027700  
     628A      4.033404   629A      4.038255   630A      4.048935  
     631A      4.061259   632A      4.064222   633A      4.065220  
     634A      4.073024   635A      4.075638   636A      4.088131  
     637A      4.098187   638A      4.106129   639A      4.120986  
     640A      4.123896   641A      4.132872   642A      4.152915  
     643A      4.157490   644A      4.164540   645A      4.173914  
     646A      4.186918   647A      4.190317   648A      4.213151  
     649A      4.224283   650A      4.227524   651A      4.235322  
     652A      4.237949   653A      4.248920   654A      4.258684  
     655A      4.270723   656A      4.277278   657A      4.280062  
     658A      4.290288   659A      4.300871   660A      4.302514  
     661A      4.318203   662A      4.323118   663A      4.330174  
     664A      4.341967   665A      4.343724   666A      4.353450  
     667A      4.361929   668A      4.365334   669A      4.383955  
     670A      4.392871   671A      4.398597   672A      4.407729  
     673A      4.420227   674A      4.432479   675A      4.436575  
     676A      4.459655   677A      4.460853   678A      4.470000  
     679A      4.478138   680A      4.494929   681A      4.517812  
     682A      4.526237   683A      4.547261   684A      4.572152  
     685A      4.597555   686A      4.604731   687A      4.606243  
     688A      4.621630   689A      4.633396   690A      4.638788  
     691A      4.651814   692A      4.673092   693A      4.677431  
     694A      4.688829   695A      4.712871   696A      4.734692  
     697A      4.742458   698A      4.759220   699A      4.764855  
     700A      4.782696   701A      4.801947   702A      4.806931  
     703A      4.809823   704A      4.818067   705A      4.827129  
     706A      4.847061   707A      4.862166   708A      4.864043  
     709A      4.888606   710A      4.903232   711A      4.907447  
     712A      4.911896   713A      4.917408   714A      4.929967  
     715A      4.938671   716A      4.947377   717A      4.961152  
     718A      4.975470   719A      4.988722   720A      4.995550  
     721A      5.004983   722A      5.020756   723A      5.029590  
     724A      5.040674   725A      5.050106   726A      5.055547  
     727A      5.073779   728A      5.081375   729A      5.091514  
     730A      5.121917   731A      5.140801   732A      5.157183  
     733A      5.165578   734A      5.179302   735A      5.198814  
     736A      5.209953   737A      5.219925   738A      5.226752  
     739A      5.232836   740A      5.255565   741A      5.265913  
     742A      5.275816   743A      5.309814   744A      5.315459  
     745A      5.331189   746A      5.350654   747A      5.363276  
     748A      5.367068   749A      5.393586   750A      5.404860  
     751A      5.414161   752A      5.450488   753A      5.486831  
     754A      5.493627   755A      5.557910   756A      5.571079  
     757A      5.573841   758A      5.596747   759A      5.603137  
     760A      5.605851   761A      5.638273   762A      5.658467  
     763A      5.692970   764A      5.697093   765A      5.736120  
     766A      5.752038   767A      5.778078   768A      5.800879  
     769A      5.828825   770A      5.897247   771A      5.921537  
     772A      5.941799   773A      5.968279   774A      5.975721  
     775A      6.013942   776A      6.034402   777A      6.063765  
     778A      6.123300   779A      6.158441   780A      6.204065  
     781A      6.233580   782A      6.247394   783A      6.303015  
     784A      6.336048   785A      6.352191   786A      6.401012  
     787A      6.418123   788A      6.467288   789A      6.479065  
     790A      6.519300   791A      6.553243   792A      6.648230  
     793A      6.665879   794A      6.733820   795A      6.769766  
     796A      6.803448   797A      6.804609   798A      6.838534  
     799A      6.879468   800A      6.912308   801A      6.954259  
     802A      6.965401   803A      6.975238   804A      7.105367  
     805A      7.170407   806A      7.329489   807A      7.341094  
     808A      7.437777   809A      7.537573   810A      7.600689  
     811A      7.609724   812A      7.665347   813A      7.924485  
     814A      8.299640   815A      8.550414   816A     15.982099  
     817A     16.110934   818A     16.419105   819A     16.633590  
     820A     16.928251   821A     18.722727   822A     19.095381  
     823A     19.476647   824A     19.643925   825A     19.961725  
     826A     20.096648   827A     20.141795   828A     21.712603  

    Final Occupation by Irrep:
              A 
    DOCC [    45 ]

  Energy converged.

  @DF-RHF Final Energy:  -551.67014553367437

   => Energetics <=

    Nuclear Repulsion Energy =            711.8554780831630069
    One-Electron Energy =               -2146.8042341412538008
    Two-Electron Energy =                 883.2786105244164219
    DFT Exchange-Correlation Energy =       0.0000000000000000
    Empirical Dispersion Energy =           0.0000000000000000
    PCM Polarization Energy =               0.0000000000000000
    EFP Energy =                            0.0000000000000000
    Total Energy =                       -551.6701455336743720



Properties will be evaluated at   0.000000,   0.000000,   0.000000 Bohr

Properties computed using the SCF density matrix

  Nuclear Dipole Moment: (a.u.)
     X:     2.9513      Y:    -1.5999      Z:    -0.9333

  Electronic Dipole Moment: (a.u.)
     X:     0.7083      Y:    -0.3646      Z:    -0.7533

  Dipole Moment: (a.u.)
     X:     3.6596      Y:    -1.9645      Z:    -1.6866     Total:     4.4830

  Dipole Moment: (Debye)
     X:     9.3018      Y:    -4.9933      Z:    -4.2870     Total:    11.3945


*** tstop() called on gpu-2-4.local at Sun Nov 12 07:46:16 2017
Module time:
	user time   =     996.46 seconds =      16.61 minutes
	system time =     158.25 seconds =       2.64 minutes
	total time  =        490 seconds =       8.17 minutes
Total time:
	user time   =     996.47 seconds =      16.61 minutes
	system time =     158.25 seconds =       2.64 minutes
	total time  =        490 seconds =       8.17 minutes

  //>>>>>>>>>>>>>>>>>>>>>>>>>>>>>>>>>>>//
  //               DFMP2               //
  //<<<<<<<<<<<<<<<<<<<<<<<<<<<<<<<<<<<//

   => Loading Basis Set <=

    Name: (AUG-CC-PVTZ AUX)
    Role: RIFIT
    Keyword: DF_BASIS_MP2
    atoms 1-11  entry C          line   147 file /cbio/jclab/home/chayas/anaconda/envs/py35/share/psi4/basis/aug-cc-pvtz-ri.gbs 
    atoms 12    entry N          line   205 file /cbio/jclab/home/chayas/anaconda/envs/py35/share/psi4/basis/aug-cc-pvtz-ri.gbs 
    atoms 13    entry O          line   263 file /cbio/jclab/home/chayas/anaconda/envs/py35/share/psi4/basis/aug-cc-pvtz-ri.gbs 
    atoms 14-23 entry H          line    29 file /cbio/jclab/home/chayas/anaconda/envs/py35/share/psi4/basis/aug-cc-pvtz-ri.gbs 

	 --------------------------------------------------------
	                          DF-MP2                         
	      2nd-Order Density-Fitted Moller-Plesset Theory     
	              RMP2 Wavefunction,   8 Threads             
	                                                         
	        Rob Parrish, Justin Turney, Andy Simmonett,      
	           Ed Hohenstein, and C. David Sherrill          
	 --------------------------------------------------------

   => Auxiliary Basis Set <=

  Basis Set: (AUG-CC-PVTZ AUX)
    Blend: AUG-CC-PVTZ-RI
    Number of shells: 504
    Number of basis function: 1838
    Number of Cartesian functions: 2318
    Spherical Harmonics?: true
    Max angular momentum: 4

	 --------------------------------------------------------
	                 NBF =   828, NAUX =  1838
	 --------------------------------------------------------
	   CLASS    FOCC     OCC    AOCC    AVIR     VIR    FVIR
	   PAIRS       0      45      45     783     783       0
	 --------------------------------------------------------


         ------------------------------------------------------------
                                     CPHF                           
                                  Rob Parrish                       
         ------------------------------------------------------------

  ==> Geometry <==

    Molecular point group: c1
    Full point group: C1

    Geometry (in Angstrom), charge = 1, multiplicity = 1:

       Center              X                  Y                   Z               Mass       
    ------------   -----------------  -----------------  -----------------  -----------------
           C         -1.271892834465     0.720102773851    -0.579537269801    12.000000000000
           C         -0.278892834465     0.104102773851     1.534462730199    12.000000000000
           C         -2.349892834465     1.293102773851     0.093462730199    12.000000000000
           C         -1.356892834465     0.677102773851     2.208462730199    12.000000000000
           C          0.988107165535    -1.852897226149    -0.653537269801    12.000000000000
           C          1.856107165535     0.342102773851    -1.133537269801    12.000000000000
           C          2.072107165535    -2.395897226149    -1.329537269801    12.000000000000
           C          2.918107165535    -0.255897226149    -1.796537269801    12.000000000000
           C         -0.235892834465     0.125102773851     0.140462730199    12.000000000000
           C          0.883107165535    -0.468897226149    -0.557537269801    12.000000000000
           C         -2.392892834465     1.272102773851     1.487462730199    12.000000000000
           N          2.994107165535    -1.591897226149    -1.874537269801    14.003074004780
           O         -3.444892834465     1.832102773851     2.144462730199    15.994914619560
           H         -1.252892834465     0.744102773851    -1.666537269801     1.007825032070
           H          0.521107165535    -0.355897226149     2.110462730199     1.007825032070
           H         -3.153892834465     1.755102773851    -0.473537269801     1.007825032070
           H         -1.384892834465     0.658102773851     3.294462730199     1.007825032070
           H          0.243107165535    -2.510897226149    -0.214537269801     1.007825032070
           H          1.799107165535     1.425102773851    -1.073537269801     1.007825032070
           H          2.234107165535    -3.457897226149    -1.453537269801     1.007825032070
           H          3.717107165535     0.294102773851    -2.273537269801     1.007825032070
           H          3.784107165535    -2.010897226149    -2.365537269801     1.007825032070
           H         -3.331892834465     1.738102773851     3.103462730199     1.007825032070

  Nuclear repulsion =  711.855478083163007
  Reference energy  = -551.670145533674372

  ==> Basis Set <==

  Basis Set: AUG-CC-PVTZ
    Blend: AUG-CC-PVTZ
    Number of shells: 272
    Number of basis function: 828
    Number of Cartesian functions: 965
    Spherical Harmonics?: true
    Max angular momentum: 3

  ==> CGRSolver (by Rob Parrish) <==

   Number of roots    =         1
   Preconditioning    =    JACOBI
   Convergence cutoff =     1E-06
   Maximum iterations =       100

  ==> CPHFRHamiltonian (by Rob Parrish) <== 

  ==> DFJK: Density-Fitted J/K Matrices <==

    J tasked:                  Yes
    K tasked:                  Yes
    wK tasked:                  No
    OpenMP threads:              8
    Integrals threads:           8
    Memory (MB):              3576
    Algorithm:                Disk
    Integral Cache:           NONE
    Schwarz Cutoff:          1E-12
    Fitting Condition:       1E-12

   => Auxiliary Basis Set <=

  Basis Set: (AUG-CC-PVTZ AUX)
    Blend: AUG-CC-PVTZ-JKFIT
    Number of shells: 530
    Number of basis function: 1812
    Number of Cartesian functions: 2253
    Spherical Harmonics?: true
    Max angular momentum: 4

  ==> CPHF Iterations <==

  => Iterations <=

             Iter  Converged  Remaining    Residual
  CGR           1          0          1   1.036E-01
  CGR           2          0          1   4.636E-02
  CGR           3          0          1   2.739E-02
  CGR           4          0          1   8.620E-03
  CGR           5          0          1   3.291E-03
  CGR           6          0          1   1.445E-03
  CGR           7          0          1   4.423E-04
  CGR           8          0          1   1.810E-04
  CGR           9          0          1   9.106E-05
  CGR          10          0          1   3.623E-05
  CGR          11          0          1   1.376E-05
  CGR          12          0          1   4.672E-06
  CGR          13          0          1   1.527E-06
  CGR          14          1          0   5.536E-07

    CGRSolver converged.

  ==> DFCorrGrad: Density-Fitted Correlated Gradients <==

    OpenMP threads:              8
    Integrals threads:           8
    Memory (MB):              3576
    Schwarz Cutoff:          0E+00
    Fitting Condition:       1E-12

   => Auxiliary Basis Set <=

  Basis Set: (AUG-CC-PVTZ AUX)
    Blend: AUG-CC-PVTZ-JKFIT
    Number of shells: 530
    Number of basis function: 1812
    Number of Cartesian functions: 2253
    Spherical Harmonics?: true
    Max angular momentum: 4

	-----------------------------------------------------------
	 ==================> DF-MP2 Energies <==================== 
	-----------------------------------------------------------
	 Reference Energy          =    -551.6701455336743720 [Eh]
	 Singles Energy            =      -0.0000000000000002 [Eh]
	 Same-Spin Energy          =      -0.5959616338498535 [Eh]
	 Opposite-Spin Energy      =      -1.8247841929944775 [Eh]
	 Correlation Energy        =      -2.4207458268443309 [Eh]
	 Total Energy              =    -554.0908913605187536 [Eh]
	-----------------------------------------------------------
	 ================> DF-SCS-MP2 Energies <================== 
	-----------------------------------------------------------
	 SCS Same-Spin Scale       =       0.3333333333333333 [-]
	 SCS Opposite-Spin Scale   =       1.2000000000000000 [-]
	 SCS Same-Spin Energy      =      -0.1986538779499512 [Eh]
	 SCS Opposite-Spin Energy  =      -2.1897410315933730 [Eh]
	 SCS Correlation Energy    =      -2.3883949095433241 [Eh]
	 SCS Total Energy          =    -554.0585404432176801 [Eh]
	-----------------------------------------------------------


  -Total Gradient:
     Atom            X                  Y                   Z
    ------   -----------------  -----------------  -----------------
       1        0.004813683831    -0.005975717448    -0.004468101443
       2        0.005892118774     0.000492894250    -0.005629107890
       3        0.001215285987    -0.000571293025     0.003164146832
       4       -0.007790110795     0.003816499776     0.007031592233
       5       -0.013475649065     0.006405917939     0.005985657274
       6       -0.010536868362     0.006788322980     0.009261982871
       7        0.006803728348     0.008499148353    -0.004819031177
       8       -0.000503725265    -0.010726647840     0.001036325232
       9        0.009237650973    -0.005054150274    -0.006278385727
      10        0.001752488008    -0.000783014200    -0.001379849024
      11        0.000361556222     0.000187752474    -0.013115760252
      12        0.000940918822    -0.001472938240    -0.000775229044
      13       -0.002736057046     0.001386084354     0.006935955381
      14       -0.000368957922     0.000610979615    -0.005169267745
      15        0.003136919186    -0.002106085335     0.003728298427
      16       -0.003014968464     0.002189646791    -0.004879105571
      17       -0.000004274959    -0.000489029633     0.004352418169
      18       -0.003786981403    -0.004370517631     0.002540125789
      19        0.000023976096     0.005972969092    -0.000226966964
      20        0.001473955643    -0.002338881226    -0.000661338748
      21        0.001992896804     0.000200141983    -0.001603904872
      22        0.005066684099    -0.002608482345    -0.003036034127
      23       -0.000494269513    -0.000053600415     0.008005580380


*** tstop() called on gpu-2-4.local at Sun Nov 12 08:19:58 2017
Module time:
	user time   =    5024.61 seconds =      83.74 minutes
	system time =     352.40 seconds =       5.87 minutes
	total time  =       2512 seconds =      41.87 minutes
Total time:
	user time   =    5024.62 seconds =      83.74 minutes
	system time =     352.40 seconds =       5.87 minutes
	total time  =       2512 seconds =      41.87 minutes

			-----------------------------------------
			 OPTKING 2.0: for geometry optimizations 
			  - R.A. King,  Bethel University        
			-----------------------------------------

	Internal coordinates to be generated automatically.
	Detected frag 1 with atoms:  1 2 3 4 5 6 7 8 9 10 11 12 13 14 15 16 17 18 19 20
	 21 22 23
	---Fragment 1 Bond Connectivity---
	 1 : 3 9 14
	 2 : 4 9 15
	 3 : 1 11 16
	 4 : 2 11 17
	 5 : 7 10 18
	 6 : 8 10 19
	 7 : 5 12 20
	 8 : 6 12 21
	 9 : 1 2 10
	 10 : 5 6 9
	 11 : 3 4 13
	 12 : 7 8 22
	 13 : 11 23
	 14 : 1
	 15 : 2
	 16 : 3
	 17 : 4
	 18 : 5
	 19 : 6
	 20 : 7
	 21 : 8
	 22 : 12
	 23 : 13

	Assuming in current code that numbering for constraints corresponds to unified fragment.
	Fixed dihedral atom list: 
	     1     9    10     5
	---Fragment 1 Geometry and Gradient---
	 C          -2.4035291275        1.3607970301       -1.0951667237
	 C          -0.5270310776        0.1967257323        2.8997143212
	 C          -4.4406538988        2.4436101043        0.1766189637
	 C          -2.5641558488        1.2795388064        4.1733897348
	 C           1.8672519328       -3.5014683098       -1.2350064576
	 C           3.5075342161        0.6464805519       -2.1420750013
	 C           3.9157150609       -4.5275896000       -2.5124613234
	 C           5.5144233693       -0.4835756756       -3.3949634274
	 C          -0.4457728538        0.2364099810        0.2654360920
	 C           1.6688306889       -0.8860873419       -1.0535927488
	 C          -4.5219121225        2.4039258555        2.8108971929
	 N           5.6580425554       -3.0082497891       -3.5423620658
	 O          -6.5099040143        3.4621724899        4.0524472623
	 H          -2.3676243310        1.4061504573       -3.1492990302
	 H           0.9847498287       -0.6725482889        3.9881965737
	 H          -5.9599937096        3.3166635776       -0.8948557536
	 H          -2.6170681805        1.2436340099        6.2256323151
	 H           0.4594059638       -4.7449081052       -0.4054166852
	 H           3.3998198266        2.6930539538       -2.0286914334
	 H           4.2218506944       -6.5344787531       -2.7467873639
	 H           7.0243145494        0.5557736975       -4.2963627928
	 H           7.1509262004       -3.8000450388       -4.4702175971
	 H          -6.2963649613        3.2845382334        5.8646946237
	             0.0048136838       -0.0059757174       -0.0044681014
	             0.0058921188        0.0004928942       -0.0056291079
	             0.0012152860       -0.0005712930        0.0031641468
	            -0.0077901108        0.0038164998        0.0070315922
	            -0.0134756491        0.0064059179        0.0059856573
	            -0.0105368684        0.0067883230        0.0092619829
	             0.0068037283        0.0084991484       -0.0048190312
	            -0.0005037253       -0.0107266478        0.0010363252
	             0.0092376510       -0.0050541503       -0.0062783857
	             0.0017524880       -0.0007830142       -0.0013798490
	             0.0003615562        0.0001877525       -0.0131157603
	             0.0009409188       -0.0014729382       -0.0007752290
	            -0.0027360570        0.0013860844        0.0069359554
	            -0.0003689579        0.0006109796       -0.0051692677
	             0.0031369192       -0.0021060853        0.0037282984
	            -0.0030149685        0.0021896468       -0.0048791056
	            -0.0000042750       -0.0004890296        0.0043524182
	            -0.0037869814       -0.0043705176        0.0025401258
	             0.0000239761        0.0059729691       -0.0002269670
	             0.0014739556       -0.0023388812       -0.0006613387
	             0.0019928968        0.0002001420       -0.0016039049
	             0.0050666841       -0.0026084823       -0.0030360341
	            -0.0004942695       -0.0000536004        0.0080055804

	Previous optimization step data not found.  Starting new optimization.

	---Fragment 1 Intrafragment Coordinates---
	 - Coordinate -           - BOHR/RAD -       - ANG/DEG -
	 R(1,3)           =         2.634350	       1.394038
	 R(1,9)           =         2.635962	       1.394891
	 R(1,14)          =         2.054947	       1.087431
	 R(2,4)           =         2.635263	       1.394521
	 R(2,9)           =         2.635830	       1.394821
	 R(2,15)          =         2.055702	       1.087831
	 R(3,11)          =         2.635830	       1.394821
	 R(3,16)          =         2.053941	       1.086899
	 R(4,11)          =         2.636938	       1.395407
	 R(4,17)          =         2.053239	       1.086527
	 R(5,7)           =         2.623169	       1.388121
	 R(5,10)          =         2.629163	       1.391293
	 R(5,18)          =         2.053385	       1.086605
	 R(6,8)           =         2.621900	       1.387450
	 R(6,10)          =         2.629523	       1.391483
	 R(6,19)          =         2.052540	       1.086157
	 R(7,12)          =         2.530769	       1.339226
	 R(7,20)          =         2.043583	       1.081418
	 R(8,12)          =         2.533048	       1.340431
	 R(8,21)          =         2.042679	       1.080939
	 R(9,10)          =         2.733384	       1.446444
	 R(11,13)         =         2.571662	       1.360865
	 R(12,22)         =         1.927837	       1.020168
	 R(13,23)         =         1.833410	       0.970199
	 B(1,3,11)        =         2.094553	     120.009056
	 B(1,3,16)        =         2.088505	     119.662516
	 B(1,9,2)         =         2.093692	     119.959722
	 B(1,9,10)        =         2.095161	     120.043881
	 B(2,4,11)        =         2.093699	     119.960108
	 B(2,4,17)        =         2.089577	     119.723926
	 B(2,9,10)        =         2.094332	     119.996376
	 B(3,1,9)         =         2.094940	     120.031219
	 B(3,1,14)        =         2.079469	     119.144799
	 B(3,11,4)        =         2.094306	     119.994870
	 B(3,11,13)       =         2.094549	     120.008801
	 B(4,2,9)         =         2.095181	     120.045019
	 B(4,2,15)        =         2.078675	     119.099297
	 B(4,11,13)       =         2.094331	     119.996326
	 B(5,7,12)        =         2.095509	     120.063802
	 B(5,7,20)        =         2.161536	     123.846910
	 B(5,10,6)        =         2.092596	     119.896925
	 B(5,10,9)        =         2.094616	     120.012655
	 B(6,8,12)        =         2.095304	     120.052074
	 B(6,8,21)        =         2.161990	     123.872904
	 B(6,10,9)        =         2.095973	     120.090417
	 B(7,5,10)        =         2.073348	     118.794071
	 B(7,5,18)        =         2.088953	     119.688201
	 B(7,12,8)        =         2.136071	     122.387829
	 B(7,12,22)       =         2.074212	     118.843582
	 B(8,6,10)        =         2.073543	     118.805281
	 B(8,6,19)        =         2.090150	     119.756797
	 B(8,12,22)       =         2.072901	     118.768491
	 B(9,1,14)        =         2.108776	     120.823969
	 B(9,2,15)        =         2.109330	     120.855683
	 B(10,5,18)       =         2.120883	     121.517648
	 B(10,6,19)       =         2.119492	     121.437922
	 B(11,3,16)       =         2.100127	     120.328425
	 B(11,4,17)       =         2.099910	     120.315955
	 B(11,13,23)      =         1.925489	     110.322421
	 B(12,7,20)       =         2.026140	     116.089287
	 B(12,8,21)       =         2.025890	     116.074954
	 D(1,3,11,4)      =        -0.000325	      -0.018609
	 D(1,3,11,13)     =         3.140978	     179.964785
	 D(1,9,2,4)       =         0.000325	       0.018608
	 D(1,9,2,15)      =        -3.141497	    -179.994534
	 D(1,9,10,5)      =        -1.833045	    -105.025760
	 D(1,9,10,6)      =         1.308861	      74.992219
	 D(2,4,11,3)      =         0.000301	       0.017261
	 D(2,4,11,13)     =        -3.141002	    -179.966135
	 D(2,9,1,3)       =        -0.000348	      -0.019945
	 D(2,9,1,14)      =        -3.141221	    -179.978731
	 D(2,9,10,5)      =         1.309464	      75.026743
	 D(2,9,10,6)      =        -1.831815	    -104.955278
	 D(3,1,9,10)      =        -3.141025	    -179.967461
	 D(3,11,4,17)     =         3.141223	     179.978848
	 D(3,11,13,23)    =         3.140828	     179.956172
	 D(4,2,9,10)      =         3.141002	     179.966149
	 D(4,11,3,16)     =         3.141593	     180.000000
	 D(4,11,13,23)    =        -0.001055	      -0.060434
	 D(5,7,12,8)      =        -0.000097	      -0.005552
	 D(5,7,12,22)     =         3.139485	     179.879266
	 D(5,10,6,8)      =         0.000143	       0.008181
	 D(5,10,6,19)     =        -3.141355	    -179.986410
	 D(6,8,12,7)      =        -0.000500	      -0.028645
	 D(6,8,12,22)     =        -3.140084	    -179.913546
	 D(6,10,5,7)      =        -0.000717	      -0.041105
	 D(6,10,5,18)     =        -3.140510	    -179.937949
	 D(7,5,10,9)      =         3.141188	     179.976838
	 D(7,12,8,21)     =        -3.140499	    -179.937347
	 D(8,6,10,9)      =         3.141422	     179.990223
	 D(8,12,7,20)     =        -3.141469	    -179.992900
	 D(9,1,3,11)      =         0.000348	       0.019955
	 D(9,1,3,16)      =        -3.141571	    -179.998735
	 D(9,2,4,11)      =        -0.000301	      -0.017270
	 D(9,2,4,17)      =        -3.141228	    -179.979086
	 D(9,10,5,18)     =         0.001396	       0.079995
	 D(9,10,6,19)     =        -0.000076	      -0.004368
	 D(10,5,7,12)     =         0.000704	       0.040322
	 D(10,5,7,20)     =        -3.141128	    -179.973359
	 D(10,6,8,12)     =         0.000467	       0.026764
	 D(10,6,8,21)     =         3.140336	     179.927995
	 D(10,9,1,14)     =         0.001287	       0.073752
	 D(10,9,2,15)     =        -0.000820	      -0.046992
	 D(11,3,1,14)     =         3.141234	     179.979432
	 D(11,4,2,15)     =         3.141517	     179.995641
	 D(12,7,5,18)     =         3.140530	     179.939096
	 D(12,8,6,19)     =        -3.141218	    -179.978552
	 D(13,11,3,16)    =        -0.000286	      -0.016400
	 D(13,11,4,17)    =        -0.000079	      -0.004548
	 D(14,1,3,16)     =        -0.000685	      -0.039257
	 D(15,2,4,17)     =         0.000590	       0.033826
	 D(18,5,7,20)     =        -0.001302	      -0.074586
	 D(19,6,8,21)     =        -0.001350	      -0.077321
	 D(20,7,12,22)    =        -0.001886	      -0.108082
	 D(21,8,12,22)    =         0.003102	       0.177752

	Current energy   :      -554.0908913605

	Generating empirical Hessian (Schlegel '84) for each fragment.
	Adding user-defined constraint: Fragment 1; Coordinate 66:
		Value =    -1.833045; Fixed value    =    -1.832596
		Force =     0.000225; Force constant =     0.500000
	Removing off-diagonal coupling between coordinate 66 and others.
	Taking RFO optimization step.
	Going to follow RFO solution 1.
	Using RFO vector 1.

	Determining step-restricting scale parameter for RS-RFO.
	Maximum step size allowed    0.10000

	 Iter      |step|        alpha        rfo_root  
	------------------------------------------------
	    0     0.19332       1.00000           1
	    1     0.14701       4.25651           1
	    2     0.12133      10.76274           1
	    3     0.10634      19.90052           1
	    4     0.10072      25.16074           1
	    5     0.10001      25.91691           1
	    6     0.10000      25.92835           1
	------------------------------------------------
	Norm of target step-size    0.10000
	Projected energy change by RFO approximation:        -0.0038433819

	Back-transformation to cartesian coordinates...
	Could not converge backtransformation.
	Using first guess instead.

	--- Internal Coordinate Step in ANG or DEG, aJ/ANG or AJ/DEG ---
	 ---------------------------------------------------------------------------
	   Coordinate                Previous        Force       Change         New 
	   ----------                --------       ------       ------       ------
	    1 R(1,3)          =      1.394038    -0.073724    -0.008388     1.385650
	    2 R(1,9)          =      1.394891    -0.016835    -0.001842     1.393049
	    3 R(1,14)         =      1.087431    -0.042629    -0.006036     1.081395
	    4 R(2,4)          =      1.394521    -0.073298    -0.008233     1.386288
	    5 R(2,9)          =      1.394821    -0.027394    -0.002975     1.391846
	    6 R(2,15)         =      1.087831    -0.042607    -0.006031     1.081800
	    7 R(3,11)         =      1.394821    -0.065736    -0.007538     1.387284
	    8 R(3,16)         =      1.086899    -0.047012    -0.006611     1.080288
	    9 R(4,11)         =      1.395407    -0.017252    -0.001989     1.393418
	   10 R(4,17)         =      1.086527    -0.035912    -0.005071     1.081456
	   11 R(5,7)          =      1.388121    -0.086644    -0.009560     1.378561
	   12 R(5,10)         =      1.391293     0.025820     0.002935     1.394228
	   13 R(5,18)         =      1.086605    -0.051651    -0.007291     1.079314
	   14 R(6,8)          =      1.387450    -0.083488    -0.009195     1.378255
	   15 R(6,10)         =      1.391483     0.025595     0.002952     1.394435
	   16 R(6,19)         =      1.086157    -0.048953    -0.006914     1.079244
	   17 R(7,12)         =      1.339226     0.017537     0.001753     1.340979
	   18 R(7,20)         =      1.081418    -0.021367    -0.002969     1.078448
	   19 R(8,12)         =      1.340431     0.010311     0.001038     1.341469
	   20 R(8,21)         =      1.080939    -0.018807    -0.002586     1.078353
	   21 R(9,10)         =      1.446444     0.109286     0.014353     1.460797
	   22 R(11,13)        =      1.360865    -0.084521    -0.007728     1.353137
	   23 R(12,22)        =      1.020168    -0.053190    -0.006247     1.013921
	   24 R(13,23)        =      0.970199    -0.064763    -0.006237     0.963962
	   25 B(1,3,11)       =    120.009056    -0.000034    -0.116421   119.892635
	   26 B(1,3,16)       =    119.662516     0.000192     0.564358   120.226874
	   27 B(1,9,2)        =    119.959722    -0.000171    -0.347171   119.612551
	   28 B(1,9,10)       =    120.043881     0.000081     0.165726   120.209608
	   29 B(2,4,11)       =    119.960108     0.000082     0.190427   120.150535
	   30 B(2,4,17)       =    119.723926    -0.000018    -0.029399   119.694527
	   31 B(2,9,10)       =    119.996376     0.000090     0.180933   120.177309
	   32 B(3,1,9)        =    120.031219     0.000164     0.373069   120.404288
	   33 B(3,1,14)       =    119.144799    -0.000032    -0.042308   119.102491
	   34 B(3,11,4)       =    119.994870    -0.000011    -0.053882   119.940989
	   35 B(3,11,13)      =    120.008801    -0.001000    -2.134957   117.873844
	   36 B(4,2,9)        =    120.045019    -0.000030    -0.046510   119.998509
	   37 B(4,2,15)       =    119.099297     0.000107     0.288180   119.387477
	   38 B(4,11,13)      =    119.996326     0.001011     2.188835   122.185161
	   39 B(5,7,12)       =    120.063802    -0.000329    -0.780649   119.283154
	   40 B(5,7,20)       =    123.846910     0.000076     0.137880   123.984790
	   41 B(5,10,6)       =    119.896925    -0.000510    -1.114820   118.782105
	   42 B(5,10,9)       =    120.012655     0.000269     0.587417   120.600072
	   43 B(6,8,12)       =    120.052074    -0.000328    -0.783417   119.268657
	   44 B(6,8,21)       =    123.872904     0.000077     0.142120   124.015024
	   45 B(6,10,9)       =    120.090417     0.000241     0.526611   120.617029
	   46 B(7,5,10)       =    118.794071     0.000418     0.956106   119.750177
	   47 B(7,5,18)       =    119.688201    -0.000153    -0.318575   119.369626
	   48 B(7,12,8)       =    122.387829     0.000331     0.765076   123.152905
	   49 B(7,12,22)      =    118.843582    -0.000169    -0.391478   118.452104
	   50 B(8,6,10)       =    118.805281     0.000419     0.957596   119.762876
	   51 B(8,6,19)       =    119.756797    -0.000164    -0.351074   119.405723
	   52 B(8,12,22)      =    118.768491    -0.000162    -0.373525   118.394966
	   53 B(9,1,14)       =    120.823969    -0.000132    -0.331018   120.492951
	   54 B(9,2,15)       =    120.855683    -0.000077    -0.241911   120.613772
	   55 B(10,5,18)      =    121.517648    -0.000265    -0.637585   120.880063
	   56 B(10,6,19)      =    121.437922    -0.000254    -0.606560   120.831362
	   57 B(11,3,16)      =    120.328425    -0.000158    -0.447937   119.880488
	   58 B(11,4,17)      =    120.315955    -0.000064    -0.161017   120.154937
	   59 B(11,13,23)     =    110.322421    -0.000222    -0.641555   109.680866
	   60 B(12,7,20)      =    116.089287     0.000253     0.642657   116.731944
	   61 B(12,8,21)      =    116.074954     0.000251     0.641365   116.716319
	   62 D(1,3,11,4)     =     -0.018609    -0.000004    -0.113187    -0.131796
	   63 D(1,3,11,13)    =    179.964785    -0.000003    -0.068797   179.895988
	   64 D(1,9,2,4)      =      0.018608    -0.000006    -0.237336    -0.218729
	   65 D(1,9,2,15)     =   -179.994534     0.000001    -0.044105  -180.038639
	   66 D(1,9,10,5)     =   -105.025760    -0.000021    -0.224283  -105.250042
	   67 D(1,9,10,6)     =     74.992219    -0.000028    -0.570454    74.421765
	   68 D(2,4,11,3)     =      0.017261    -0.000003    -0.060597    -0.043336
	   69 D(2,4,11,13)    =   -179.966135    -0.000003    -0.106222  -180.072356
	   70 D(2,9,1,3)      =     -0.019945    -0.000000     0.063619     0.043675
	   71 D(2,9,1,14)     =   -179.978731     0.000006     0.212998  -179.765734
	   72 D(2,9,10,5)     =     75.026743    -0.000027    -0.543271    74.483472
	   73 D(2,9,10,6)     =   -104.955278    -0.000035    -0.889443  -105.844721
	   74 D(3,1,9,10)     =   -179.967461    -0.000006    -0.253844  -180.221305
	   75 D(3,11,4,17)    =    179.978848    -0.000001    -0.016068   179.962780
	   76 D(3,11,13,23)   =    179.956172     0.000000     0.005031   179.961202
	   77 D(4,2,9,10)     =    179.966149     0.000000     0.080015   180.046164
	   78 D(4,11,3,16)    =    180.000000    -0.000003    -0.112814   179.887186
	   79 D(4,11,13,23)   =     -0.060434     0.000001     0.050085    -0.010350
	   80 D(5,7,12,8)     =     -0.005552     0.000000    -0.001486    -0.007039
	   81 D(5,7,12,22)    =    179.879266     0.000002     0.056289   179.935555
	   82 D(5,10,6,8)     =      0.008181    -0.000002    -0.122281    -0.114100
	   83 D(5,10,6,19)    =   -179.986410    -0.000000    -0.055988  -180.042397
	   84 D(6,8,12,7)     =     -0.028645     0.000002     0.056261     0.027616
	   85 D(6,8,12,22)    =   -179.913546     0.000000    -0.001462  -179.915008
	   86 D(6,10,5,7)     =     -0.041105     0.000004     0.175514     0.134408
	   87 D(6,10,5,18)    =   -179.937949     0.000006     0.206495  -179.731454
	   88 D(7,5,10,9)     =    179.976838    -0.000003    -0.164681   179.812157
	   89 D(7,12,8,21)    =   -179.937347    -0.000002    -0.032504  -179.969851
	   90 D(8,6,10,9)     =    179.990223     0.000005     0.217984   180.208208
	   91 D(8,12,7,20)    =   -179.992900    -0.000004    -0.131371  -180.124271
	   92 D(9,1,3,11)     =      0.019955     0.000005     0.111581     0.131535
	   93 D(9,1,3,16)     =   -179.998735     0.000005     0.111221  -179.887513
	   94 D(9,2,4,11)     =     -0.017270     0.000008     0.236310     0.219040
	   95 D(9,2,4,17)     =   -179.979086     0.000006     0.192038  -179.787048
	   96 D(9,10,5,18)    =      0.079995    -0.000002    -0.133700    -0.053705
	   97 D(9,10,6,19)    =     -0.004368     0.000007     0.284278     0.279910
	   98 D(10,5,7,12)    =      0.040322    -0.000004    -0.115731    -0.075409
	   99 D(10,5,7,20)    =   -179.973359     0.000001     0.024222  -179.949137
	  100 D(10,6,8,12)    =      0.026764    -0.000001     0.007879     0.034643
	  101 D(10,6,8,21)    =    179.927995     0.000003     0.103918   180.031913
	  102 D(10,9,1,14)    =      0.073752    -0.000001    -0.104466    -0.030713
	  103 D(10,9,2,15)    =     -0.046992     0.000007     0.273247     0.226254
	  104 D(11,3,1,14)    =    179.979432    -0.000001    -0.035858   179.943574
	  105 D(11,4,2,15)    =    179.995641     0.000001     0.045521   180.041162
	  106 D(12,7,5,18)    =    179.939096    -0.000005    -0.146606   179.792490
	  107 D(12,8,6,19)    =   -179.978552    -0.000003    -0.057480  -180.036032
	  108 D(13,11,3,16)   =     -0.016400    -0.000003    -0.068630    -0.085029
	  109 D(13,11,4,17)   =     -0.004548    -0.000002    -0.061692    -0.066240
	  110 D(14,1,3,16)    =     -0.039257    -0.000001    -0.036218    -0.075474
	  111 D(15,2,4,17)    =      0.033826    -0.000000     0.001248     0.035074
	  112 D(18,5,7,20)    =     -0.074586     0.000000    -0.006652    -0.081238
	  113 D(19,6,8,21)    =     -0.077321     0.000001     0.038559    -0.038762
	  114 D(20,7,12,22)   =     -0.108082    -0.000003    -0.073596    -0.181678
	  115 D(21,8,12,22)   =      0.177752    -0.000004    -0.090227     0.087525
	 ---------------------------------------------------------------------------
	Successfully symmetrized geometry.
	 Forces used to impose fixed constraints are not included.
	  Forces zeroed: 66 

  ==> Convergence Check <==

  Measures of convergence in internal coordinates in au.
  Criteria marked as inactive (o), active & met (*), and active & unmet ( ).
  --------------------------------------------------------------------------------------------- ~
   Step     Total Energy     Delta E     MAX Force     RMS Force      MAX Disp      RMS Disp    ~
  --------------------------------------------------------------------------------------------- ~
    Convergence Criteria    1.00e-06 *    3.00e-04 *             o    1.20e-03 *             o  ~
  --------------------------------------------------------------------------------------------- ~
      1    -554.09089136   -5.54e+02      1.33e-02      3.85e-03 o    3.82e-02      9.31e-03 o  ~
  ---------------------------------------------------------------------------------------------

	Writing optimization data to binary file.
	Structure for next step:
	Cartesian Geometry (in Angstrom)
	    C    -1.2731950948   0.7294076119  -0.5566235868
	    C    -0.2846571836   0.1020450245   1.5465131875
	    C    -2.3470002199   1.2962455685   0.1109572800
	    C    -1.3570261387   0.6722572985   2.2148529347
	    C     1.0074234983  -1.8558635768  -0.6558316529
	    C     1.8666356737   0.3314673594  -1.1434850463
	    C     2.0767605043  -2.4038377907  -1.3316084355
	    C     2.9208364163  -0.2537507475  -1.8111437155
	    C    -0.2368505079   0.1301868646   0.1557732369
	    C     0.8907998461  -0.4703691748  -0.5525101008
	    C    -2.3909565066   1.2703575278   1.4973026632
	    N     2.9905886528  -1.5915138437  -1.8823099558
	    O    -3.4573592706   1.8376873298   2.1071400375
	    H    -1.2524406968   0.7559671466  -1.6374928335
	    H     0.5109715168  -0.3595884505   2.1158646798
	    H    -3.1500046039   1.7585836307  -0.4444254144
	    H    -1.3874663212   0.6506507180   3.2956645283
	    H     0.2692899966  -2.5083161678  -0.2149430148
	    H     1.8086420530   1.4075294460  -1.0843712396
	    H     2.2336465674  -3.4638196280  -1.4535748212
	    H     3.7121145099   0.2992150059  -2.2917199780
	    H     3.7724305907  -2.0080111032  -2.3755527873
	    H    -3.3677184745   1.7528337494   3.0631668290
			--------------------------
			 OPTKING Finished Execution 
			--------------------------

    Structure for next step:
    Molecular point group: c1
    Full point group: C1

    Geometry (in Angstrom), charge = 1, multiplicity = 1:

    C           -1.274500452973     0.729657837350    -0.556625546348
    C           -0.285962541766     0.102295249864     1.546511227935
    C           -2.348305578106     1.296495793887     0.110955320477
    C           -1.358331496936     0.672507523877     2.214850975122
    C            1.006118140094    -1.855613351381    -0.655833612407
    C            1.865330315525     0.331717584852    -1.143487005836
    C            2.075455146136    -2.403587565263    -1.331610395070
    C            2.919531058087    -0.253500522074    -1.811145675034
    C           -0.238155866138     0.130437089964     0.155771277376
    C            0.889494487852    -0.470118949427    -0.552512060293
    C           -2.392261864851     1.270607753174     1.497300703643
    N            2.989283294616    -1.591263618257    -1.882311915320
    O           -3.458664628820     1.837937555178     2.107138077980
    H           -1.253746054991     0.756217372034    -1.637494793060
    H            0.509666158562    -0.359338225070     2.115862720259
    H           -3.151309962140     1.758833856154    -0.444427373906
    H           -1.388771679407     0.650900943397     3.295662568809
    H            0.267984638417    -2.508065942403    -0.214944974326
    H            1.807336694773     1.407779671435    -1.084373199113
    H            2.232341209182    -3.463569402542    -1.453576780759
    H            3.710809151645     0.299465231305    -2.291721937500
    H            3.771125232482    -2.007760877825    -2.375554746845
    H           -3.369023832718     1.753083974812     3.063164869508

gradient() will perform analytic gradient computation.

*** tstart() called on gpu-2-4.local
*** at Sun Nov 12 08:20:00 2017

    SCF Algorithm Type (re)set to DF.

*** tstart() called on gpu-2-4.local
*** at Sun Nov 12 08:20:00 2017

   => Loading Basis Set <=

    Name: AUG-CC-PVTZ
    Role: ORBITAL
    Keyword: BASIS
    atoms 1-11  entry C          line   221 file /cbio/jclab/home/chayas/anaconda/envs/py35/share/psi4/basis/aug-cc-pvtz.gbs 
    atoms 12    entry N          line   267 file /cbio/jclab/home/chayas/anaconda/envs/py35/share/psi4/basis/aug-cc-pvtz.gbs 
    atoms 13    entry O          line   313 file /cbio/jclab/home/chayas/anaconda/envs/py35/share/psi4/basis/aug-cc-pvtz.gbs 
    atoms 14-23 entry H          line    34 file /cbio/jclab/home/chayas/anaconda/envs/py35/share/psi4/basis/aug-cc-pvtz.gbs 


         ---------------------------------------------------------
                                   SCF
            by Justin Turney, Rob Parrish, and Andy Simmonett
                              RHF Reference
                        8 Threads,   4768 MiB Core
         ---------------------------------------------------------

  ==> Geometry <==

    Molecular point group: c1
    Full point group: C1

    Geometry (in Angstrom), charge = 1, multiplicity = 1:

       Center              X                  Y                   Z               Mass       
    ------------   -----------------  -----------------  -----------------  -----------------
           C         -1.274500452973     0.729657837350    -0.556625546348    12.000000000000
           C         -0.285962541766     0.102295249864     1.546511227935    12.000000000000
           C         -2.348305578106     1.296495793887     0.110955320477    12.000000000000
           C         -1.358331496936     0.672507523877     2.214850975122    12.000000000000
           C          1.006118140094    -1.855613351381    -0.655833612407    12.000000000000
           C          1.865330315525     0.331717584852    -1.143487005836    12.000000000000
           C          2.075455146136    -2.403587565263    -1.331610395070    12.000000000000
           C          2.919531058087    -0.253500522074    -1.811145675034    12.000000000000
           C         -0.238155866138     0.130437089964     0.155771277376    12.000000000000
           C          0.889494487852    -0.470118949427    -0.552512060293    12.000000000000
           C         -2.392261864851     1.270607753174     1.497300703643    12.000000000000
           N          2.989283294616    -1.591263618257    -1.882311915320    14.003074004780
           O         -3.458664628820     1.837937555178     2.107138077980    15.994914619560
           H         -1.253746054991     0.756217372034    -1.637494793060     1.007825032070
           H          0.509666158562    -0.359338225070     2.115862720259     1.007825032070
           H         -3.151309962140     1.758833856154    -0.444427373906     1.007825032070
           H         -1.388771679407     0.650900943397     3.295662568809     1.007825032070
           H          0.267984638417    -2.508065942403    -0.214944974326     1.007825032070
           H          1.807336694773     1.407779671435    -1.084373199113     1.007825032070
           H          2.232341209182    -3.463569402542    -1.453576780759     1.007825032070
           H          3.710809151645     0.299465231305    -2.291721937500     1.007825032070
           H          3.771125232482    -2.007760877825    -2.375554746845     1.007825032070
           H         -3.369023832718     1.753083974812     3.063164869508     1.007825032070

  Running in c1 symmetry.

  Rotational constants: A =      0.09651  B =      0.01279  C =      0.01235 [cm^-1]
  Rotational constants: A =   2893.29230  B =    383.39282  C =    370.26234 [MHz]
  Nuclear repulsion =  712.413006119629472

  Charge       = 1
  Multiplicity = 1
  Electrons    = 90
  Nalpha       = 45
  Nbeta        = 45

  ==> Algorithm <==

  SCF Algorithm Type is DF.
  DIIS enabled.
  MOM disabled.
  Fractional occupation disabled.
  Guess Type is READ.
  Energy threshold   = 1.00e-10
  Density threshold  = 1.00e-10
  Integral threshold = 0.00e+00

  ==> Primary Basis <==

  Basis Set: AUG-CC-PVTZ
    Blend: AUG-CC-PVTZ
    Number of shells: 272
    Number of basis function: 828
    Number of Cartesian functions: 965
    Spherical Harmonics?: true
    Max angular momentum: 3

   => Loading Basis Set <=

    Name: (AUG-CC-PVTZ AUX)
    Role: JKFIT
    Keyword: DF_BASIS_SCF
    atoms 1-11  entry C          line   161 file /cbio/jclab/home/chayas/anaconda/envs/py35/share/psi4/basis/aug-cc-pvtz-jkfit.gbs 
    atoms 12    entry N          line   223 file /cbio/jclab/home/chayas/anaconda/envs/py35/share/psi4/basis/aug-cc-pvtz-jkfit.gbs 
    atoms 13    entry O          line   285 file /cbio/jclab/home/chayas/anaconda/envs/py35/share/psi4/basis/aug-cc-pvtz-jkfit.gbs 
    atoms 14-23 entry H          line    69 file /cbio/jclab/home/chayas/anaconda/envs/py35/share/psi4/basis/aug-cc-pvtz-jkfit.gbs 

  Reading orbitals from file 180, no projection.

  ==> Pre-Iterations <==

   -------------------------------------------------------
    Irrep   Nso     Nmo     Nalpha   Nbeta   Ndocc  Nsocc
   -------------------------------------------------------
     A        828     828       0       0       0       0
   -------------------------------------------------------
    Total     828     828      45      45      45       0
   -------------------------------------------------------

  ==> Integral Setup <==

  ==> DFJK: Density-Fitted J/K Matrices <==

    J tasked:                  Yes
    K tasked:                  Yes
    wK tasked:                  No
    OpenMP threads:              8
    Integrals threads:           8
    Memory (MB):              3576
    Algorithm:                Disk
    Integral Cache:           NONE
    Schwarz Cutoff:          1E-12
    Fitting Condition:       1E-12

   => Auxiliary Basis Set <=

  Basis Set: (AUG-CC-PVTZ AUX)
    Blend: AUG-CC-PVTZ-JKFIT
    Number of shells: 530
    Number of basis function: 1812
    Number of Cartesian functions: 2253
    Spherical Harmonics?: true
    Max angular momentum: 4

  Minimum eigenvalue in the overlap matrix is 5.4842372833E-07.
  Using Symmetric Orthogonalization.

  SCF Guess: Orbitals guess was supplied from a previous computation.

  ==> Iterations <==

                           Total Energy        Delta E     RMS |[F,P]|

   @DF-RHF iter   0:  -551.74756303842923   -5.51748e+02   3.11626e-04 
   @DF-RHF iter   1:  -551.67418011841119    7.33829e-02   5.68325e-05 
   @DF-RHF iter   2:  -551.67444666383381   -2.66545e-04   3.71312e-05 DIIS
   @DF-RHF iter   3:  -551.67459643035932   -1.49767e-04   7.82494e-06 DIIS
   @DF-RHF iter   4:  -551.67460336249860   -6.93214e-06   3.19063e-06 DIIS
   @DF-RHF iter   5:  -551.67460494490206   -1.58240e-06   7.92397e-07 DIIS
   @DF-RHF iter   6:  -551.67460510904561   -1.64144e-07   3.75994e-07 DIIS
   @DF-RHF iter   7:  -551.67460515179164   -4.27460e-08   1.55550e-07 DIIS
   @DF-RHF iter   8:  -551.67460516558367   -1.37920e-08   6.91699e-08 DIIS
   @DF-RHF iter   9:  -551.67460516837252   -2.78885e-09   2.84391e-08 DIIS
   @DF-RHF iter  10:  -551.67460516876702   -3.94493e-10   1.03948e-08 DIIS
   @DF-RHF iter  11:  -551.67460516883614   -6.91216e-11   2.66190e-09 DIIS
   @DF-RHF iter  12:  -551.67460516882056    1.55751e-11   1.10649e-09 DIIS
   @DF-RHF iter  13:  -551.67460516881465    5.91172e-12   4.32459e-10 DIIS
   @DF-RHF iter  14:  -551.67460516883432   -1.96678e-11   2.08547e-10 DIIS
   @DF-RHF iter  15:  -551.67460516882034    1.39835e-11   1.03762e-10 DIIS
   @DF-RHF iter  16:  -551.67460516882227   -1.93268e-12   3.97637e-11 DIIS

  ==> Post-Iterations <==

    Orbital Energies (a.u.)
    -----------------------

    Doubly Occupied:                                                      

       1A    -20.693491     2A    -15.843612     3A    -11.489153  
       4A    -11.489030     5A    -11.451036     6A    -11.418941  
       7A    -11.418859     8A    -11.418226     9A    -11.368582  
      10A    -11.367025    11A    -11.365659    12A    -11.348429  
      13A    -11.342350    14A     -1.519285    15A     -1.513987  
      16A     -1.318389    17A     -1.263592    18A     -1.246212  
      19A     -1.152036    20A     -1.144273    21A     -1.070781  
      22A     -1.057995    23A     -0.971585    24A     -0.969502  
      25A     -0.945624    26A     -0.875494    27A     -0.859805  
      28A     -0.849713    29A     -0.822022    30A     -0.805358  
      31A     -0.789727    32A     -0.777118    33A     -0.750077  
      34A     -0.729535    35A     -0.714928    36A     -0.711963  
      37A     -0.698077    38A     -0.683650    39A     -0.647585  
      40A     -0.617137    41A     -0.606601    42A     -0.576414  
      43A     -0.543779    44A     -0.463768    45A     -0.435018  

    Virtual:                                                              

      46A     -0.103682    47A     -0.087475    48A     -0.067987  
      49A     -0.063487    50A     -0.059915    51A     -0.053707  
      52A     -0.041924    53A     -0.039963    54A     -0.038734  
      55A     -0.031868    56A     -0.023694    57A     -0.017945  
      58A     -0.013195    59A     -0.010540    60A     -0.003891  
      61A     -0.003547    62A      0.002533    63A      0.007486  
      64A      0.009884    65A      0.014161    66A      0.014364  
      67A      0.016366    68A      0.019177    69A      0.026520  
      70A      0.029045    71A      0.031570    72A      0.034042  
      73A      0.035454    74A      0.038516    75A      0.042278  
      76A      0.043063    77A      0.045353    78A      0.055916  
      79A      0.058815    80A      0.061695    81A      0.063576  
      82A      0.069561    83A      0.075795    84A      0.079886  
      85A      0.085995    86A      0.089040    87A      0.093196  
      88A      0.094194    89A      0.096621    90A      0.101816  
      91A      0.103295    92A      0.108560    93A      0.117650  
      94A      0.124779    95A      0.130942    96A      0.131358  
      97A      0.136481    98A      0.137309    99A      0.142617  
     100A      0.146630   101A      0.150006   102A      0.153398  
     103A      0.159938   104A      0.162413   105A      0.164747  
     106A      0.168438   107A      0.173483   108A      0.174485  
     109A      0.176452   110A      0.179200   111A      0.183380  
     112A      0.189077   113A      0.191037   114A      0.195233  
     115A      0.198468   116A      0.205435   117A      0.207857  
     118A      0.213315   119A      0.216916   120A      0.219777  
     121A      0.223016   122A      0.224796   123A      0.230403  
     124A      0.232434   125A      0.236081   126A      0.239732  
     127A      0.246505   128A      0.247711   129A      0.251414  
     130A      0.256540   131A      0.260288   132A      0.261803  
     133A      0.275122   134A      0.277652   135A      0.279748  
     136A      0.282313   137A      0.289719   138A      0.295125  
     139A      0.298369   140A      0.301034   141A      0.306535  
     142A      0.310677   143A      0.316681   144A      0.324190  
     145A      0.326237   146A      0.328163   147A      0.329280  
     148A      0.330783   149A      0.335202   150A      0.338098  
     151A      0.341766   152A      0.345750   153A      0.350167  
     154A      0.353780   155A      0.355042   156A      0.357658  
     157A      0.363161   158A      0.366106   159A      0.367780  
     160A      0.371259   161A      0.372126   162A      0.375267  
     163A      0.376992   164A      0.385000   165A      0.387875  
     166A      0.390859   167A      0.395458   168A      0.401643  
     169A      0.404398   170A      0.408581   171A      0.412139  
     172A      0.413551   173A      0.419095   174A      0.421981  
     175A      0.426041   176A      0.429085   177A      0.432211  
     178A      0.437146   179A      0.441164   180A      0.444446  
     181A      0.451611   182A      0.456282   183A      0.462920  
     184A      0.466447   185A      0.469373   186A      0.480723  
     187A      0.486543   188A      0.486874   189A      0.491417  
     190A      0.494470   191A      0.496700   192A      0.500877  
     193A      0.512925   194A      0.516759   195A      0.530176  
     196A      0.530846   197A      0.541494   198A      0.544805  
     199A      0.551081   200A      0.555640   201A      0.570501  
     202A      0.570937   203A      0.576437   204A      0.580030  
     205A      0.585918   206A      0.590171   207A      0.594728  
     208A      0.599843   209A      0.602356   210A      0.607279  
     211A      0.613334   212A      0.615423   213A      0.623109  
     214A      0.625146   215A      0.629499   216A      0.636359  
     217A      0.641377   218A      0.643734   219A      0.645939  
     220A      0.653881   221A      0.658984   222A      0.662655  
     223A      0.676188   224A      0.677298   225A      0.682634  
     226A      0.692953   227A      0.698704   228A      0.709693  
     229A      0.718726   230A      0.722659   231A      0.724231  
     232A      0.735407   233A      0.745074   234A      0.748501  
     235A      0.750104   236A      0.752667   237A      0.753643  
     238A      0.760580   239A      0.766657   240A      0.772148  
     241A      0.777406   242A      0.781185   243A      0.782258  
     244A      0.784171   245A      0.790418   246A      0.793068  
     247A      0.797273   248A      0.798219   249A      0.802672  
     250A      0.804456   251A      0.807357   252A      0.810984  
     253A      0.812979   254A      0.825409   255A      0.830469  
[...]
      97A      0.134333    98A      0.138140    99A      0.142392  
     100A      0.146918   101A      0.149090   102A      0.155073  
     103A      0.160444   104A      0.162223   105A      0.166182  
     106A      0.167936   107A      0.173509   108A      0.173559  
     109A      0.177262   110A      0.178489   111A      0.182957  
     112A      0.187924   113A      0.188858   114A      0.196849  
     115A      0.198868   116A      0.206641   117A      0.208077  
     118A      0.214274   119A      0.217066   120A      0.219345  
     121A      0.220729   122A      0.226691   123A      0.230718  
     124A      0.232558   125A      0.235541   126A      0.240496  
     127A      0.245301   128A      0.247867   129A      0.250796  
     130A      0.257925   131A      0.261181   132A      0.261712  
     133A      0.271810   134A      0.276854   135A      0.282703  
     136A      0.283717   137A      0.290811   138A      0.295601  
     139A      0.298021   140A      0.300427   141A      0.308626  
     142A      0.312378   143A      0.317985   144A      0.323072  
     145A      0.326872   146A      0.327730   147A      0.329385  
     148A      0.331488   149A      0.335689   150A      0.338937  
     151A      0.343391   152A      0.344424   153A      0.350167  
     154A      0.351381   155A      0.354171   156A      0.355368  
     157A      0.363271   158A      0.365623   159A      0.368927  
     160A      0.371103   161A      0.373756   162A      0.375289  
     163A      0.377405   164A      0.385056   165A      0.387457  
     166A      0.392478   167A      0.396091   168A      0.400440  
     169A      0.406785   170A      0.408342   171A      0.411761  
     172A      0.413051   173A      0.418681   174A      0.420765  
     175A      0.424042   176A      0.428756   177A      0.431688  
     178A      0.437836   179A      0.442719   180A      0.445991  
     181A      0.452263   182A      0.459181   183A      0.461450  
     184A      0.465147   185A      0.469778   186A      0.481290  
     187A      0.485452   188A      0.486412   189A      0.489351  
     190A      0.494701   191A      0.499404   192A      0.504897  
     193A      0.515475   194A      0.519888   195A      0.530833  
     196A      0.535562   197A      0.541373   198A      0.544363  
     199A      0.548572   200A      0.555791   201A      0.569419  
     202A      0.570146   203A      0.575877   204A      0.579049  
     205A      0.585149   206A      0.589544   207A      0.593724  
     208A      0.596891   209A      0.602700   210A      0.608179  
     211A      0.614056   212A      0.614731   213A      0.621599  
     214A      0.625768   215A      0.628265   216A      0.633465  
     217A      0.641550   218A      0.644457   219A      0.652371  
     220A      0.658355   221A      0.660131   222A      0.665332  
     223A      0.675746   224A      0.681728   225A      0.688195  
     226A      0.697777   227A      0.700365   228A      0.712687  
     229A      0.715098   230A      0.718022   231A      0.724581  
     232A      0.735034   233A      0.741388   234A      0.748263  
     235A      0.751763   236A      0.753546   237A      0.757740  
     238A      0.760115   239A      0.768137   240A      0.771819  
     241A      0.777014   242A      0.779071   243A      0.781150  
     244A      0.785192   245A      0.790684   246A      0.796103  
     247A      0.798450   248A      0.801295   249A      0.802782  
     250A      0.805305   251A      0.810043   252A      0.811412  
     253A      0.814118   254A      0.826777   255A      0.828725  
     256A      0.833596   257A      0.840845   258A      0.842400  
     259A      0.847741   260A      0.857574   261A      0.858661  
     262A      0.866607   263A      0.872064   264A      0.876815  
     265A      0.878145   266A      0.880159   267A      0.886728  
     268A      0.892686   269A      0.899804   270A      0.907495  
     271A      0.910317   272A      0.914204   273A      0.915113  
     274A      0.926300   275A      0.929053   276A      0.936786  
     277A      0.939680   278A      0.944146   279A      0.947684  
     280A      0.950427   281A      0.956976   282A      0.964262  
     283A      0.966299   284A      0.968456   285A      0.976355  
     286A      0.978672   287A      0.981335   288A      0.986192  
     289A      0.988465   290A      0.994913   291A      1.001367  
     292A      1.003525   293A      1.006022   294A      1.009508  
     295A      1.015003   296A      1.019139   297A      1.025806  
     298A      1.028023   299A      1.033333   300A      1.038660  
     301A      1.039849   302A      1.047255   303A      1.053362  
     304A      1.058985   305A      1.064547   306A      1.068183  
     307A      1.073647   308A      1.079047   309A      1.083252  
     310A      1.085961   311A      1.090274   312A      1.098370  
     313A      1.102749   314A      1.108460   315A      1.112590  
     316A      1.115102   317A      1.124867   318A      1.134134  
     319A      1.138503   320A      1.139906   321A      1.142426  
     322A      1.150900   323A      1.154995   324A      1.161045  
     325A      1.167483   326A      1.174975   327A      1.184117  
     328A      1.188623   329A      1.192040   330A      1.194918  
     331A      1.204087   332A      1.213530   333A      1.224896  
     334A      1.228483   335A      1.237665   336A      1.248610  
     337A      1.255469   338A      1.257748   339A      1.259456  
     340A      1.264172   341A      1.277931   342A      1.280059  
     343A      1.281987   344A      1.288777   345A      1.294556  
     346A      1.296873   347A      1.305107   348A      1.314679  
     349A      1.318692   350A      1.331251   351A      1.337506  
     352A      1.343563   353A      1.353603   354A      1.366431  
     355A      1.369034   356A      1.376201   357A      1.389106  
     358A      1.389994   359A      1.397768   360A      1.400123  
     361A      1.411491   362A      1.417119   363A      1.422461  
     364A      1.426191   365A      1.434316   366A      1.439588  
     367A      1.445266   368A      1.448582   369A      1.459705  
     370A      1.461142   371A      1.470636   372A      1.479183  
     373A      1.492914   374A      1.496796   375A      1.502556  
     376A      1.508471   377A      1.522241   378A      1.524449  
     379A      1.526709   380A      1.538347   381A      1.545911  
     382A      1.547163   383A      1.551815   384A      1.561141  
     385A      1.572173   386A      1.587768   387A      1.602458  
     388A      1.604161   389A      1.605446   390A      1.612658  
     391A      1.628729   392A      1.631724   393A      1.636207  
     394A      1.642617   395A      1.659842   396A      1.668924  
     397A      1.678267   398A      1.680112   399A      1.687563  
     400A      1.694469   401A      1.701758   402A      1.703770  
     403A      1.721566   404A      1.732531   405A      1.739027  
     406A      1.743754   407A      1.751325   408A      1.755103  
     409A      1.758910   410A      1.779781   411A      1.783235  
     412A      1.791122   413A      1.791782   414A      1.800654  
     415A      1.808971   416A      1.815335   417A      1.825641  
     418A      1.831220   419A      1.837854   420A      1.847454  
     421A      1.857233   422A      1.862387   423A      1.871467  
     424A      1.882842   425A      1.888024   426A      1.896350  
     427A      1.898388   428A      1.906843   429A      1.916993  
     430A      1.922337   431A      1.929496   432A      1.932701  
     433A      1.944349   434A      1.954261   435A      1.955387  
     436A      1.960283   437A      1.970857   438A      1.979776  
     439A      1.986250   440A      2.008581   441A      2.010282  
     442A      2.022877   443A      2.028885   444A      2.035480  
     445A      2.043676   446A      2.044869   447A      2.050498  
     448A      2.054222   449A      2.067249   450A      2.075834  
     451A      2.080862   452A      2.090661   453A      2.095478  
     454A      2.098871   455A      2.113698   456A      2.118375  
     457A      2.141605   458A      2.152100   459A      2.157682  
     460A      2.166953   461A      2.183500   462A      2.197735  
     463A      2.207132   464A      2.220114   465A      2.224185  
     466A      2.237141   467A      2.250985   468A      2.257527  
     469A      2.260390   470A      2.268173   471A      2.283717  
     472A      2.292385   473A      2.298532   474A      2.304513  
     475A      2.316276   476A      2.322519   477A      2.323836  
     478A      2.339387   479A      2.359568   480A      2.370725  
     481A      2.391862   482A      2.403826   483A      2.407906  
     484A      2.412002   485A      2.419321   486A      2.437075  
     487A      2.439597   488A      2.449877   489A      2.466075  
     490A      2.482935   491A      2.499178   492A      2.504579  
     493A      2.511773   494A      2.523673   495A      2.535134  
     496A      2.541086   497A      2.555868   498A      2.564367  
     499A      2.577788   500A      2.586433   501A      2.600312  
     502A      2.623585   503A      2.639718   504A      2.652815  
     505A      2.691935   506A      2.694809   507A      2.699353  
     508A      2.723227   509A      2.747472   510A      2.753825  
     511A      2.776604   512A      2.809783   513A      2.826289  
     514A      2.832013   515A      2.858085   516A      2.874259  
     517A      2.884235   518A      2.921680   519A      2.940782  
     520A      2.950645   521A      2.959920   522A      2.983474  
     523A      2.989678   524A      3.017628   525A      3.035138  
     526A      3.064198   527A      3.081215   528A      3.092863  
     529A      3.106108   530A      3.119258   531A      3.122185  
     532A      3.131527   533A      3.159662   534A      3.168217  
     535A      3.170927   536A      3.182749   537A      3.203732  
     538A      3.217989   539A      3.241837   540A      3.244993  
     541A      3.250610   542A      3.261107   543A      3.267016  
     544A      3.284342   545A      3.298495   546A      3.305257  
     547A      3.308058   548A      3.318821   549A      3.327084  
     550A      3.331798   551A      3.339948   552A      3.352421  
     553A      3.358580   554A      3.360933   555A      3.381843  
     556A      3.385149   557A      3.396978   558A      3.407019  
     559A      3.413025   560A      3.415623   561A      3.433678  
     562A      3.435854   563A      3.444816   564A      3.449012  
     565A      3.454484   566A      3.467173   567A      3.480274  
     568A      3.481858   569A      3.487835   570A      3.498847  
     571A      3.513752   572A      3.523890   573A      3.531992  
     574A      3.548994   575A      3.553108   576A      3.569898  
     577A      3.578360   578A      3.592626   579A      3.601183  
     580A      3.606305   581A      3.612981   582A      3.617866  
     583A      3.631041   584A      3.647047   585A      3.663922  
     586A      3.665719   587A      3.668366   588A      3.683159  
     589A      3.690837   590A      3.695003   591A      3.707567  
     592A      3.722828   593A      3.730210   594A      3.731255  
     595A      3.740684   596A      3.750955   597A      3.763245  
     598A      3.768723   599A      3.786482   600A      3.796476  
     601A      3.800844   602A      3.805805   603A      3.808760  
     604A      3.823370   605A      3.832463   606A      3.842913  
     607A      3.858428   608A      3.862916   609A      3.865248  
     610A      3.876090   611A      3.884600   612A      3.892549  
     613A      3.895230   614A      3.907269   615A      3.910868  
     616A      3.929226   617A      3.933241   618A      3.942133  
     619A      3.953753   620A      3.964835   621A      3.977872  
     622A      3.981050   623A      3.996820   624A      4.006155  
     625A      4.016874   626A      4.022625   627A      4.029247  
     628A      4.036720   629A      4.044042   630A      4.051081  
     631A      4.059323   632A      4.062193   633A      4.069468  
     634A      4.080429   635A      4.087379   636A      4.095872  
     637A      4.105543   638A      4.117139   639A      4.125132  
     640A      4.130837   641A      4.153556   642A      4.155565  
     643A      4.163104   644A      4.167615   645A      4.181239  
     646A      4.199295   647A      4.203764   648A      4.214043  
     649A      4.230771   650A      4.234520   651A      4.236938  
     652A      4.245078   653A      4.251994   654A      4.265030  
     655A      4.272012   656A      4.277229   657A      4.286387  
     658A      4.297431   659A      4.306282   660A      4.316414  
     661A      4.323740   662A      4.337672   663A      4.346072  
     664A      4.352608   665A      4.355906   666A      4.362290  
     667A      4.368141   668A      4.378542   669A      4.390118  
     670A      4.398418   671A      4.406818   672A      4.412996  
     673A      4.433600   674A      4.442071   675A      4.445371  
     676A      4.459130   677A      4.464332   678A      4.474789  
     679A      4.483084   680A      4.498111   681A      4.528898  
     682A      4.538084   683A      4.557317   684A      4.588664  
     685A      4.602104   686A      4.604623   687A      4.622014  
     688A      4.634500   689A      4.639093   690A      4.654288  
     691A      4.660681   692A      4.684292   693A      4.692833  
     694A      4.699001   695A      4.732869   696A      4.744095  
     697A      4.754433   698A      4.761899   699A      4.775130  
     700A      4.791711   701A      4.811542   702A      4.818159  
     703A      4.821753   704A      4.832465   705A      4.837849  
     706A      4.861921   707A      4.872940   708A      4.880644  
     709A      4.889893   710A      4.908520   711A      4.914415  
     712A      4.928035   713A      4.933169   714A      4.943408  
     715A      4.950852   716A      4.968364   717A      4.984235  
     718A      4.994881   719A      5.001453   720A      5.014791  
     721A      5.020016   722A      5.024701   723A      5.032536  
     724A      5.043730   725A      5.063763   726A      5.067620  
     727A      5.085669   728A      5.089319   729A      5.100623  
     730A      5.128295   731A      5.161369   732A      5.176511  
     733A      5.186138   734A      5.201141   735A      5.215734  
     736A      5.226797   737A      5.229983   738A      5.247178  
     739A      5.251501   740A      5.279725   741A      5.282852  
     742A      5.291666   743A      5.330591   744A      5.342146  
     745A      5.348678   746A      5.363727   747A      5.371385  
     748A      5.382410   749A      5.399872   750A      5.414128  
     751A      5.415275   752A      5.472341   753A      5.489848  
     754A      5.515485   755A      5.560668   756A      5.587849  
     757A      5.591168   758A      5.605546   759A      5.608932  
     760A      5.636088   761A      5.660562   762A      5.685154  
     763A      5.698786   764A      5.709380   765A      5.750010  
     766A      5.756393   767A      5.792674   768A      5.830939  
     769A      5.833801   770A      5.905327   771A      5.934729  
     772A      5.966404   773A      5.982373   774A      5.994736  
     775A      6.035959   776A      6.044232   777A      6.069029  
     778A      6.139459   779A      6.173635   780A      6.227762  
     781A      6.244725   782A      6.255875   783A      6.314837  
     784A      6.340026   785A      6.361662   786A      6.420131  
     787A      6.431721   788A      6.466640   789A      6.482639  
     790A      6.520993   791A      6.554049   792A      6.671268  
     793A      6.681745   794A      6.757790   795A      6.793431  
     796A      6.802729   797A      6.810564   798A      6.842386  
     799A      6.888685   800A      6.920466   801A      6.961608  
     802A      6.976219   803A      6.987524   804A      7.161733  
     805A      7.182685   806A      7.332177   807A      7.375953  
     808A      7.441996   809A      7.549464   810A      7.604056  
     811A      7.612508   812A      7.688809   813A      7.919859  
     814A      8.313627   815A      8.588218   816A     16.065392  
     817A     16.361664   818A     16.642808   819A     16.910371  
     820A     16.944624   821A     18.818610   822A     19.189756  
     823A     19.544762   824A     19.753932   825A     20.146284  
     826A     20.272083   827A     20.389087   828A     21.613434  

    Final Occupation by Irrep:
              A 
    DOCC [    45 ]

  Energy converged.

  @DF-RHF Final Energy:  -551.67539269349027

   => Energetics <=

    Nuclear Repulsion Energy =            712.6937039920926509
    One-Electron Energy =               -2148.4346567825168677
    Two-Electron Energy =                 884.0655600969339503
    DFT Exchange-Correlation Energy =       0.0000000000000000
    Empirical Dispersion Energy =           0.0000000000000000
    PCM Polarization Energy =               0.0000000000000000
    EFP Energy =                            0.0000000000000000
    Total Energy =                       -551.6753926934902665



Properties will be evaluated at   0.000000,   0.000000,   0.000000 Bohr

Properties computed using the SCF density matrix

  Nuclear Dipole Moment: (a.u.)
     X:     2.7856      Y:    -1.6119      Z:    -1.0579

  Electronic Dipole Moment: (a.u.)
     X:     0.7138      Y:    -0.2371      Z:    -0.6206

  Dipole Moment: (a.u.)
     X:     3.4994      Y:    -1.8490      Z:    -1.6785     Total:     4.2991

  Dipole Moment: (Debye)
     X:     8.8946      Y:    -4.6997      Z:    -4.2662     Total:    10.9271


*** tstop() called on gpu-2-4.local at Mon Nov 13 07:26:13 2017
Module time:
	user time   =     634.69 seconds =      10.58 minutes
	system time =      93.94 seconds =       1.57 minutes
	total time  =        317 seconds =       5.28 minutes
Total time:
	user time   =  172538.82 seconds =    2875.65 minutes
	system time =   11126.99 seconds =     185.45 minutes
	total time  =      85687 seconds =    1428.12 minutes

  //>>>>>>>>>>>>>>>>>>>>>>>>>>>>>>>>>>>//
  //               DFMP2               //
  //<<<<<<<<<<<<<<<<<<<<<<<<<<<<<<<<<<<//

   => Loading Basis Set <=

    Name: (AUG-CC-PVTZ AUX)
    Role: RIFIT
    Keyword: DF_BASIS_MP2
    atoms 1-11  entry C          line   147 file /cbio/jclab/home/chayas/anaconda/envs/py35/share/psi4/basis/aug-cc-pvtz-ri.gbs 
    atoms 12    entry N          line   205 file /cbio/jclab/home/chayas/anaconda/envs/py35/share/psi4/basis/aug-cc-pvtz-ri.gbs 
    atoms 13    entry O          line   263 file /cbio/jclab/home/chayas/anaconda/envs/py35/share/psi4/basis/aug-cc-pvtz-ri.gbs 
    atoms 14-23 entry H          line    29 file /cbio/jclab/home/chayas/anaconda/envs/py35/share/psi4/basis/aug-cc-pvtz-ri.gbs 

	 --------------------------------------------------------
	                          DF-MP2                         
	      2nd-Order Density-Fitted Moller-Plesset Theory     
	              RMP2 Wavefunction,   8 Threads             
	                                                         
	        Rob Parrish, Justin Turney, Andy Simmonett,      
	           Ed Hohenstein, and C. David Sherrill          
	 --------------------------------------------------------

   => Auxiliary Basis Set <=

  Basis Set: (AUG-CC-PVTZ AUX)
    Blend: AUG-CC-PVTZ-RI
    Number of shells: 504
    Number of basis function: 1838
    Number of Cartesian functions: 2318
    Spherical Harmonics?: true
    Max angular momentum: 4

	 --------------------------------------------------------
	                 NBF =   828, NAUX =  1838
	 --------------------------------------------------------
	   CLASS    FOCC     OCC    AOCC    AVIR     VIR    FVIR
	   PAIRS       0      45      45     783     783       0
	 --------------------------------------------------------

