
    -----------------------------------------------------------------------
          Psi4: An Open-Source Ab Initio Electronic Structure Package
                               Psi4 1.1 release

                         Git: Rev {HEAD} add49b9 


    R. M. Parrish, L. A. Burns, D. G. A. Smith, A. C. Simmonett,
    A. E. DePrince III, E. G. Hohenstein, U. Bozkaya, A. Yu. Sokolov,
    R. Di Remigio, R. M. Richard, J. F. Gonthier, A. M. James,
    H. R. McAlexander, A. Kumar, M. Saitow, X. Wang, B. P. Pritchard,
    P. Verma, H. F. Schaefer III, K. Patkowski, R. A. King, E. F. Valeev,
    F. A. Evangelista, J. M. Turney, T. D. Crawford, and C. D. Sherrill,
    J. Chem. Theory Comput. in press (2017).
    (doi: 10.1021/acs.jctc.7b00174)

    -----------------------------------------------------------------------


    Psi4 started on: Sunday, 12 November 2017 04:39PM

    Process ID:  32510
    PSIDATADIR: /cbio/jclab/home/chayas/anaconda/envs/py35/share/psi4
    Memory:     500.0 MiB
    Threads:    8
    
  ==> Input File <==

--------------------------------------------------------------------------

memory 5 Gb

molecule phepyrOH_zwitterion {
  symmetry C1
  0 1 
  C      1.885   -1.036   -0.112
  C      2.878   -1.652   2.002
  C      0.807   -0.463   0.561
  C      1.800   -1.079   2.676
  C      3.888   -3.451   -0.732
  C      5.269   -1.574   -0.121
  C      4.979   -3.998   -1.393
  C      6.324   -2.169   -0.798
  C      2.921   -1.631   0.608
  C      4.040   -2.226   -0.090
  C      0.764   -0.484   1.955
  N      6.151   -3.349   -1.407
  O      -0.227   0.042   2.574
  H      1.904   -1.011   -1.199
  H      3.678   -2.112   2.577
  H      0.011   -0.006   -0.025
  H      1.791   -1.108   3.764
  H      2.941   -3.982   -0.724
  H      5.416   -0.617   0.371
  H      4.953   -4.943   -1.918
  H      7.312   -1.736   -0.874
  H      6.940   -3.769   -1.898
  units Angstrom
}

dih_string = "1 9 10 5 285"
set optking fixed_dihedral = $dih_string

optimize('MP2/aug-cc-PVTZ')
--------------------------------------------------------------------------

  Memory set to   4.657 GiB by Python driver.
gradient() will perform analytic gradient computation.

*** tstart() called on gpu-1-7.local
*** at Sun Nov 12 16:39:10 2017

    SCF Algorithm Type (re)set to DF.

*** tstart() called on gpu-1-7.local
*** at Sun Nov 12 16:39:10 2017

   => Loading Basis Set <=

    Name: AUG-CC-PVTZ
    Role: ORBITAL
    Keyword: BASIS
    atoms 1-11  entry C          line   221 file /cbio/jclab/home/chayas/anaconda/envs/py35/share/psi4/basis/aug-cc-pvtz.gbs 
    atoms 12    entry N          line   267 file /cbio/jclab/home/chayas/anaconda/envs/py35/share/psi4/basis/aug-cc-pvtz.gbs 
    atoms 13    entry O          line   313 file /cbio/jclab/home/chayas/anaconda/envs/py35/share/psi4/basis/aug-cc-pvtz.gbs 
    atoms 14-22 entry H          line    34 file /cbio/jclab/home/chayas/anaconda/envs/py35/share/psi4/basis/aug-cc-pvtz.gbs 


         ---------------------------------------------------------
                                   SCF
            by Justin Turney, Rob Parrish, and Andy Simmonett
                              RHF Reference
                        8 Threads,   4768 MiB Core
         ---------------------------------------------------------

  ==> Geometry <==

    Molecular point group: c1
    Full point group: C1

    Geometry (in Angstrom), charge = 0, multiplicity = 1:

       Center              X                  Y                   Z               Mass       
    ------------   -----------------  -----------------  -----------------  -----------------
           C         -1.297244481628     0.734142128637    -0.557524468340    12.000000000000
           C         -0.304244481628     0.118142128637     1.556475531660    12.000000000000
           C         -2.375244481628     1.307142128637     0.115475531660    12.000000000000
           C         -1.382244481628     0.691142128637     2.230475531660    12.000000000000
           C          0.705755518372    -1.680857871363    -1.177524468340    12.000000000000
           C          2.086755518372     0.196142128637    -0.566524468340    12.000000000000
           C          1.796755518372    -2.227857871363    -1.838524468340    12.000000000000
           C          3.141755518372    -0.398857871363    -1.243524468340    12.000000000000
           C         -0.261244481628     0.139142128637     0.162475531660    12.000000000000
           C          0.857755518372    -0.455857871363    -0.535524468340    12.000000000000
           C         -2.418244481628     1.286142128637     1.509475531660    12.000000000000
           N          2.968755518372    -1.578857871363    -1.852524468340    14.003074004780
           O         -3.409244481628     1.812142128637     2.128475531660    15.994914619560
           H         -1.278244481628     0.759142128637    -1.644524468340     1.007825032070
           H          0.495755518372    -0.341857871363     2.131475531660     1.007825032070
           H         -3.171244481628     1.764142128637    -0.470524468340     1.007825032070
           H         -1.391244481628     0.662142128637     3.318475531660     1.007825032070
           H         -0.241244481628    -2.211857871363    -1.169524468340     1.007825032070
           H          2.233755518372     1.153142128637    -0.074524468340     1.007825032070
           H          1.770755518372    -3.172857871363    -2.363524468340     1.007825032070
           H          4.129755518372     0.034142128637    -1.319524468340     1.007825032070
           H          3.757755518372    -1.998857871363    -2.343524468340     1.007825032070

  Running in c1 symmetry.

  Rotational constants: A =      0.09651  B =      0.01317  C =      0.01272 [cm^-1]
  Rotational constants: A =   2893.36294  B =    394.70082  C =    381.20957 [MHz]
  Nuclear repulsion =  700.224581446646653

  Charge       = 0
  Multiplicity = 1
  Electrons    = 90
  Nalpha       = 45
  Nbeta        = 45

  ==> Algorithm <==

  SCF Algorithm Type is DF.
  DIIS enabled.
  MOM disabled.
  Fractional occupation disabled.
  Guess Type is SAD.
  Energy threshold   = 1.00e-10
  Density threshold  = 1.00e-10
  Integral threshold = 0.00e+00

  ==> Primary Basis <==

  Basis Set: AUG-CC-PVTZ
    Blend: AUG-CC-PVTZ
    Number of shells: 263
    Number of basis function: 805
    Number of Cartesian functions: 940
    Spherical Harmonics?: true
    Max angular momentum: 3

   => Loading Basis Set <=

    Name: (AUG-CC-PVTZ AUX)
    Role: JKFIT
    Keyword: DF_BASIS_SCF
    atoms 1-11  entry C          line   161 file /cbio/jclab/home/chayas/anaconda/envs/py35/share/psi4/basis/aug-cc-pvtz-jkfit.gbs 
    atoms 12    entry N          line   223 file /cbio/jclab/home/chayas/anaconda/envs/py35/share/psi4/basis/aug-cc-pvtz-jkfit.gbs 
    atoms 13    entry O          line   285 file /cbio/jclab/home/chayas/anaconda/envs/py35/share/psi4/basis/aug-cc-pvtz-jkfit.gbs 
    atoms 14-22 entry H          line    69 file /cbio/jclab/home/chayas/anaconda/envs/py35/share/psi4/basis/aug-cc-pvtz-jkfit.gbs 

  ==> Pre-Iterations <==

   -------------------------------------------------------
    Irrep   Nso     Nmo     Nalpha   Nbeta   Ndocc  Nsocc
   -------------------------------------------------------
     A        805     805       0       0       0       0
   -------------------------------------------------------
    Total     805     805      45      45      45       0
   -------------------------------------------------------

  ==> Integral Setup <==

  ==> DFJK: Density-Fitted J/K Matrices <==

    J tasked:                  Yes
    K tasked:                  Yes
    wK tasked:                  No
    OpenMP threads:              8
    Integrals threads:           8
    Memory (MB):              3576
    Algorithm:                Disk
    Integral Cache:           NONE
    Schwarz Cutoff:          1E-12
    Fitting Condition:       1E-12

   => Auxiliary Basis Set <=

  Basis Set: (AUG-CC-PVTZ AUX)
    Blend: AUG-CC-PVTZ-JKFIT
    Number of shells: 516
    Number of basis function: 1766
    Number of Cartesian functions: 2198
    Spherical Harmonics?: true
    Max angular momentum: 4

  Minimum eigenvalue in the overlap matrix is 7.2098146842E-07.
  Using Symmetric Orthogonalization.

  SCF Guess: Superposition of Atomic Densities via on-the-fly atomic UHF.

  ==> Iterations <==

                           Total Energy        Delta E     RMS |[F,P]|

   @DF-RHF iter   0:  -557.93697241665041   -5.57937e+02   2.30336e-02 
   @DF-RHF iter   1:  -550.75082497033668    7.18615e+00   2.57818e-03 
   @DF-RHF iter   2:  -550.98232388654890   -2.31499e-01   1.35148e-03 DIIS
   @DF-RHF iter   3:  -551.15747052726192   -1.75147e-01   3.93793e-04 DIIS
   @DF-RHF iter   4:  -551.18410619230372   -2.66357e-02   1.53599e-04 DIIS
   @DF-RHF iter   5:  -551.18775688532082   -3.65069e-03   9.32970e-05 DIIS
   @DF-RHF iter   6:  -551.18877802798147   -1.02114e-03   2.89090e-05 DIIS
   @DF-RHF iter   7:  -551.18908119039111   -3.03162e-04   1.69165e-05 DIIS
   @DF-RHF iter   8:  -551.18914857527363   -6.73849e-05   6.38257e-06 DIIS
   @DF-RHF iter   9:  -551.18916551213476   -1.69369e-05   2.32008e-06 DIIS
   @DF-RHF iter  10:  -551.18916899963062   -3.48750e-06   9.11013e-07 DIIS
   @DF-RHF iter  11:  -551.18916967812163   -6.78491e-07   4.68813e-07 DIIS
   @DF-RHF iter  12:  -551.18916978424022   -1.06119e-07   1.82150e-07 DIIS
   @DF-RHF iter  13:  -551.18916980783092   -2.35907e-08   1.37369e-07 DIIS
   @DF-RHF iter  14:  -551.18916981473910   -6.90818e-09   5.19877e-08 DIIS
   @DF-RHF iter  15:  -551.18916981542839   -6.89283e-10   1.55308e-08 DIIS
   @DF-RHF iter  16:  -551.18916981550547   -7.70797e-11   6.85376e-09 DIIS
   @DF-RHF iter  17:  -551.18916981551570   -1.02318e-11   2.31609e-09 DIIS
   @DF-RHF iter  18:  -551.18916981552206   -6.36646e-12   1.26231e-09 DIIS
   @DF-RHF iter  19:  -551.18916981552889   -6.82121e-12   4.52977e-10 DIIS
   @DF-RHF iter  20:  -551.18916981553991   -1.10276e-11   2.10090e-10 DIIS
   @DF-RHF iter  21:  -551.18916981553411    5.79803e-12   9.64393e-11 DIIS

  ==> Post-Iterations <==

    Orbital Energies (a.u.)
    -----------------------

    Doubly Occupied:                                                      

       1A    -20.390651     2A    -15.736546     3A    -11.381769  
       4A    -11.381655     5A    -11.326681     6A    -11.307115  
       7A    -11.307056     8A    -11.213328     9A    -11.210850  
      10A    -11.210815    11A    -11.194941    12A    -11.163989  
      13A    -11.163945    14A     -1.413504    15A     -1.222365  
      16A     -1.192790    17A     -1.135016    18A     -1.097478  
      19A     -0.990789    20A     -0.974050    21A     -0.960589  
      22A     -0.904263    23A     -0.863005    24A     -0.791975  
      25A     -0.774538    26A     -0.761423    27A     -0.728231  
      28A     -0.696778    29A     -0.693577    30A     -0.678660  
      31A     -0.619410    32A     -0.606195    33A     -0.598947  
      34A     -0.589158    35A     -0.545554    36A     -0.517860  
      37A     -0.486413    38A     -0.474290    39A     -0.450433  
      40A     -0.449075    41A     -0.436097    42A     -0.387309  
      43A     -0.307878    44A     -0.303938    45A     -0.212610  

    Virtual:                                                              

      46A     -0.018708    47A      0.004370    48A      0.004904  
      49A      0.017534    50A      0.027496    51A      0.034418  
      52A      0.037214    53A      0.038264    54A      0.049505  
      55A      0.049717    56A      0.059522    57A      0.065566  
      58A      0.069508    59A      0.072386    60A      0.074213  
      61A      0.082628    62A      0.087456    63A      0.096567  
      64A      0.099381    65A      0.106314    66A      0.108509  
      67A      0.118316    68A      0.125109    69A      0.125183  
      70A      0.126006    71A      0.128354    72A      0.130261  
      73A      0.130974    74A      0.133555    75A      0.148281  
      76A      0.155039    77A      0.155754    78A      0.159952  
      79A      0.161825    80A      0.165197    81A      0.167744  
      82A      0.180028    83A      0.183461    84A      0.183786  
      85A      0.187495    86A      0.192455    87A      0.194408  
      88A      0.194830    89A      0.201914    90A      0.206606  
      91A      0.207036    92A      0.212181    93A      0.212207  
      94A      0.222239    95A      0.224306    96A      0.239566  
      97A      0.241960    98A      0.244032    99A      0.244869  
     100A      0.248190   101A      0.251023   102A      0.259589  
     103A      0.264125   104A      0.265064   105A      0.266421  
     106A      0.271078   107A      0.277396   108A      0.280752  
     109A      0.292064   110A      0.294784   111A      0.297567  
     112A      0.304994   113A      0.307901   114A      0.312448  
     115A      0.314099   116A      0.315713   117A      0.316934  
     118A      0.328133   119A      0.332229   120A      0.334745  
     121A      0.338546   122A      0.342004   123A      0.347168  
     124A      0.353897   125A      0.355898   126A      0.359378  
     127A      0.362790   128A      0.364508   129A      0.371931  
     130A      0.375806   131A      0.378106   132A      0.383078  
     133A      0.385461   134A      0.387401   135A      0.392920  
     136A      0.395275   137A      0.409835   138A      0.415337  
     139A      0.417546   140A      0.420021   141A      0.421558  
     142A      0.427933   143A      0.435512   144A      0.436101  
     145A      0.440922   146A      0.450876   147A      0.451738  
     148A      0.457011   149A      0.457976   150A      0.464574  
     151A      0.465179   152A      0.472787   153A      0.474975  
     154A      0.476159   155A      0.479449   156A      0.482658  
     157A      0.482925   158A      0.486461   159A      0.492986  
     160A      0.496836   161A      0.503468   162A      0.503505  
     163A      0.506452   164A      0.513761   165A      0.518617  
     166A      0.524196   167A      0.527572   168A      0.531868  
     169A      0.532845   170A      0.545965   171A      0.547027  
     172A      0.552725   173A      0.556629   174A      0.561063  
     175A      0.561497   176A      0.567452   177A      0.570909  
     178A      0.577260   179A      0.589506   180A      0.594272  
     181A      0.597002   182A      0.599895   183A      0.603871  
     184A      0.608573   185A      0.608796   186A      0.612897  
     187A      0.618922   188A      0.629359   189A      0.635967  
     190A      0.642718   191A      0.650452   192A      0.656690  
     193A      0.661171   194A      0.665247   195A      0.668719  
     196A      0.680223   197A      0.685371   198A      0.690267  
     199A      0.691548   200A      0.692768   201A      0.697608  
     202A      0.710950   203A      0.720622   204A      0.723348  
     205A      0.725862   206A      0.730740   207A      0.740928  
     208A      0.741800   209A      0.743830   210A      0.750017  
     211A      0.753248   212A      0.756331   213A      0.767349  
     214A      0.767418   215A      0.776342   216A      0.777980  
     217A      0.784968   218A      0.790920   219A      0.800495  
     220A      0.805641   221A      0.816389   222A      0.823764  
     223A      0.833729   224A      0.837727   225A      0.839910  
     226A      0.851436   227A      0.858107   228A      0.861011  
     229A      0.864049   230A      0.870506   231A      0.878776  
     232A      0.884315   233A      0.889356   234A      0.892489  
     235A      0.903039   236A      0.904049   237A      0.908113  
     238A      0.909142   239A      0.912099   240A      0.921645  
     241A      0.923921   242A      0.924483   243A      0.930233  
     244A      0.934035   245A      0.941505   246A      0.942401  
     247A      0.946206   248A      0.956493   249A      0.959037  
     250A      0.963860   251A      0.965821   252A      0.970161  
     253A      0.975549   254A      0.980369   255A      0.986410  
     256A      0.990895   257A      0.997757   258A      1.003021  
     259A      1.013202   260A      1.014214   261A      1.016689  
     262A      1.022450   263A      1.024783   264A      1.026248  
     265A      1.037166   266A      1.039083   267A      1.051749  
     268A      1.051873   269A      1.058497   270A      1.060126  
     271A      1.060670   272A      1.067751   273A      1.076181  
     274A      1.084543   275A      1.087002   276A      1.087714  
     277A      1.093062   278A      1.093208   279A      1.098649  
     280A      1.100719   281A      1.105608   282A      1.112346  
     283A      1.116191   284A      1.118780   285A      1.121647  
     286A      1.130772   287A      1.131738   288A      1.133769  
     289A      1.139258   290A      1.159795   291A      1.160048  
     292A      1.166403   293A      1.171716   294A      1.176307  
     295A      1.185065   296A      1.185731   297A      1.195210  
     298A      1.200243   299A      1.203776   300A      1.204046  
     301A      1.211305   302A      1.213138   303A      1.220708  
     304A      1.224294   305A      1.230346   306A      1.234519  
     307A      1.243727   308A      1.245502   309A      1.248350  
     310A      1.253826   311A      1.257336   312A      1.259927  
     313A      1.271511   314A      1.278879   315A      1.288314  
     316A      1.290922   317A      1.296473   318A      1.309524  
     319A      1.313925   320A      1.320676   321A      1.321932  
     322A      1.339689   323A      1.342849   324A      1.345656  
     325A      1.347420   326A      1.351868   327A      1.363063  
     328A      1.365799   329A      1.367280   330A      1.375756  
     331A      1.390422   332A      1.402696   333A      1.404317  
     334A      1.409920   335A      1.412786   336A      1.418608  
     337A      1.427906   338A      1.434585   339A      1.439363  
     340A      1.444092   341A      1.446266   342A      1.453933  
     343A      1.466349   344A      1.474545   345A      1.482944  
     346A      1.488022   347A      1.498988   348A      1.509025  
     349A      1.517137   350A      1.533059   351A      1.535578  
     352A      1.539265   353A      1.545950   354A      1.550282  
     355A      1.561452   356A      1.570542   357A      1.572510  
     358A      1.587138   359A      1.588661   360A      1.598243  
     361A      1.610747   362A      1.613373   363A      1.618046  
     364A      1.619528   365A      1.627330   366A      1.638841  
     367A      1.641074   368A      1.647243   369A      1.655359  
     370A      1.675023   371A      1.677478   372A      1.692114  
     373A      1.700398   374A      1.713286   375A      1.728959  
     376A      1.729338   377A      1.736986   378A      1.739659  
     379A      1.749676   380A      1.761411   381A      1.762070  
     382A      1.771380   383A      1.776191   384A      1.792655  
     385A      1.798810   386A      1.802464   387A      1.803680  
     388A      1.810753   389A      1.819708   390A      1.837131  
     391A      1.846492   392A      1.850631   393A      1.854329  
     394A      1.866982   395A      1.869108   396A      1.893221  
     397A      1.898492   398A      1.911610   399A      1.922255  
     400A      1.926838   401A      1.931306   402A      1.937064  
     403A      1.941939   404A      1.959786   405A      1.961914  
     406A      1.962819   407A      1.975693   408A      1.977492  
     409A      1.985800   410A      1.987734   411A      1.995171  
     412A      2.005116   413A      2.017056   414A      2.023816  
     415A      2.034198   416A      2.037747   417A      2.042320  
     418A      2.047294   419A      2.064961   420A      2.068735  
     421A      2.070305   422A      2.075836   423A      2.078741  
     424A      2.100844   425A      2.117377   426A      2.136428  
     427A      2.137212   428A      2.142610   429A      2.143215  
     430A      2.155072   431A      2.156113   432A      2.169503  
     433A      2.179867   434A      2.181084   435A      2.184002  
     436A      2.197457   437A      2.199435   438A      2.206851  
     439A      2.208694   440A      2.231843   441A      2.236146  
     442A      2.240520   443A      2.255618   444A      2.276352  
     445A      2.294128   446A      2.297360   447A      2.310554  
     448A      2.313589   449A      2.322107   450A      2.344123  
     451A      2.348084   452A      2.351763   453A      2.371709  
     454A      2.379439   455A      2.379650   456A      2.393147  
     457A      2.403430   458A      2.422866   459A      2.425573  
     460A      2.438990   461A      2.442636   462A      2.448409  
     463A      2.451582   464A      2.462618   465A      2.485846  
     466A      2.493157   467A      2.508823   468A      2.512199  
     469A      2.513639   470A      2.535457   471A      2.546794  
     472A      2.554238   473A      2.556637   474A      2.569012  
     475A      2.579550   476A      2.592308   477A      2.616120  
     478A      2.630160   479A      2.632318   480A      2.640979  
     481A      2.641522   482A      2.667863   483A      2.675837  
     484A      2.678034   485A      2.691539   486A      2.695881  
     487A      2.707821   488A      2.767382   489A      2.783979  
     490A      2.798993   491A      2.805640   492A      2.821416  
     493A      2.833076   494A      2.853279   495A      2.858119  
     496A      2.881194   497A      2.901816   498A      2.916875  
     499A      2.926558   500A      2.963995   501A      3.000094  
     502A      3.012028   503A      3.025871   504A      3.043709  
     505A      3.067524   506A      3.076719   507A      3.084747  
     508A      3.089864   509A      3.123765   510A      3.161516  
     511A      3.170796   512A      3.185197   513A      3.194669  
     514A      3.215795   515A      3.234081   516A      3.242002  
     517A      3.268871   518A      3.271994   519A      3.278398  
     520A      3.286335   521A      3.307128   522A      3.327673  
     523A      3.341590   524A      3.352221   525A      3.362782  
     526A      3.365784   527A      3.386310   528A      3.399459  
     529A      3.412685   530A      3.416533   531A      3.423586  
     532A      3.428162   533A      3.443264   534A      3.446466  
     535A      3.460423   536A      3.469724   537A      3.482821  
     538A      3.490562   539A      3.496615   540A      3.503505  
     541A      3.528423   542A      3.536433   543A      3.542963  
     544A      3.554151   545A      3.563454   546A      3.565690  
     547A      3.580797   548A      3.581678   549A      3.586923  
     550A      3.595303   551A      3.607641   552A      3.623109  
     553A      3.625348   554A      3.625667   555A      3.637312  
     556A      3.646108   557A      3.659095   558A      3.662905  
     559A      3.682583   560A      3.689087   561A      3.704162  
     562A      3.710922   563A      3.712923   564A      3.720338  
     565A      3.729330   566A      3.736389   567A      3.743150  
     568A      3.749733   569A      3.767113   570A      3.788122  
     571A      3.803268   572A      3.804913   573A      3.812007  
     574A      3.812359   575A      3.813829   576A      3.829558  
     577A      3.836926   578A      3.848536   579A      3.852640  
     580A      3.868147   581A      3.870627   582A      3.891423  
     583A      3.906297   584A      3.914085   585A      3.915283  
     586A      3.921408   587A      3.932508   588A      3.946239  
     589A      3.953158   590A      3.957819   591A      3.980886  
     592A      3.983316   593A      3.986729   594A      3.990502  
     595A      4.009185   596A      4.010801   597A      4.022584  
     598A      4.035634   599A      4.045772   600A      4.063040  
     601A      4.063927   602A      4.067712   603A      4.086987  
     604A      4.090491   605A      4.096178   606A      4.102636  
     607A      4.108374   608A      4.112075   609A      4.126485  
     610A      4.145234   611A      4.151730   612A      4.157702  
     613A      4.168522   614A      4.175861   615A      4.179423  
     616A      4.188670   617A      4.199616   618A      4.206361  
     619A      4.207477   620A      4.215953   621A      4.224791  
     622A      4.229006   623A      4.257575   624A      4.267649  
     625A      4.277185   626A      4.279634   627A      4.293304  
     628A      4.295212   629A      4.308748   630A      4.319159  
     631A      4.328371   632A      4.339440   633A      4.353410  
     634A      4.354762   635A      4.360716   636A      4.374242  
     637A      4.390143   638A      4.401034   639A      4.403123  
     640A      4.407169   641A      4.422993   642A      4.428034  
     643A      4.434764   644A      4.435437   645A      4.448896  
     646A      4.467290   647A      4.472616   648A      4.482386  
     649A      4.491140   650A      4.501018   651A      4.506734  
     652A      4.526559   653A      4.532854   654A      4.542404  
     655A      4.545952   656A      4.561945   657A      4.583960  
     658A      4.591171   659A      4.596043   660A      4.607382  
     661A      4.626212   662A      4.626620   663A      4.665632  
     664A      4.673100   665A      4.675614   666A      4.724234  
     667A      4.738707   668A      4.741791   669A      4.756596  
     670A      4.764782   671A      4.786506   672A      4.787632  
     673A      4.789358   674A      4.810841   675A      4.844980  
     676A      4.853577   677A      4.856732   678A      4.879344  
     679A      4.883502   680A      4.893661   681A      4.910753  
     682A      4.921261   683A      4.931664   684A      4.943634  
     685A      4.956331   686A      4.958151   687A      4.994942  
     688A      5.004306   689A      5.020344   690A      5.028453  
     691A      5.038630   692A      5.042028   693A      5.051967  
     694A      5.056757   695A      5.064014   696A      5.073723  
     697A      5.099152   698A      5.104473   699A      5.119431  
     700A      5.129400   701A      5.144675   702A      5.146100  
     703A      5.171219   704A      5.196494   705A      5.197628  
     706A      5.202835   707A      5.207583   708A      5.228236  
     709A      5.230800   710A      5.237951   711A      5.268627  
     712A      5.284131   713A      5.295001   714A      5.304331  
     715A      5.318264   716A      5.337632   717A      5.359214  
     718A      5.361282   719A      5.387449   720A      5.399403  
     721A      5.407545   722A      5.418280   723A      5.436685  
     724A      5.442025   725A      5.466976   726A      5.493146  
     727A      5.503711   728A      5.511966   729A      5.548506  
     730A      5.568818   731A      5.605714   732A      5.638065  
     733A      5.668827   734A      5.697208   735A      5.710196  
     736A      5.712986   737A      5.722957   738A      5.741087  
     739A      5.781967   740A      5.798644   741A      5.806838  
     742A      5.809039   743A      5.854099   744A      5.866288  
     745A      5.886430   746A      5.935579   747A      5.950235  
     748A      6.010051   749A      6.031834   750A      6.079228  
     751A      6.099759   752A      6.136333   753A      6.146092  
     754A      6.166728   755A      6.213444   756A      6.246058  
     757A      6.307006   758A      6.351741   759A      6.357640  
     760A      6.368775   761A      6.437098   762A      6.452468  
     763A      6.515701   764A      6.546588   765A      6.587457  
     766A      6.627024   767A      6.630721   768A      6.665734  
     769A      6.760154   770A      6.786791   771A      6.809934  
     772A      6.843934   773A      6.894599   774A      6.928473  
     775A      6.947593   776A      6.965134   777A      6.996263  
     778A      7.066534   779A      7.102695   780A      7.142669  
     781A      7.217012   782A      7.247645   783A      7.268105  
     784A      7.525586   785A      7.547722   786A      7.549655  
     787A      7.641345   788A      7.838358   789A      7.853826  
     790A      7.934686   791A      8.064191   792A      8.127234  
     793A     16.029311   794A     16.178661   795A     16.248131  
     796A     16.529848   797A     17.127393   798A     18.852589  
     799A     19.208042   800A     19.719248   801A     19.915450  
     802A     20.143411   803A     20.190365   804A     20.218672  
     805A     21.773816  

    Final Occupation by Irrep:
              A 
    DOCC [    45 ]

  Energy converged.

  @DF-RHF Final Energy:  -551.18916981553411

   => Energetics <=

    Nuclear Repulsion Energy =            700.2245814466466527
    One-Electron Energy =               -2137.1204204997775378
    Two-Electron Energy =                 885.7066692375967705
    DFT Exchange-Correlation Energy =       0.0000000000000000
    Empirical Dispersion Energy =           0.0000000000000000
    PCM Polarization Energy =               0.0000000000000000
    EFP Energy =                            0.0000000000000000
    Total Energy =                       -551.1891698155341146



Properties will be evaluated at   0.000000,   0.000000,   0.000000 Bohr

Properties computed using the SCF density matrix

  Nuclear Dipole Moment: (a.u.)
     X:     5.8865      Y:    -3.1298      Z:    -3.6740

  Electronic Dipole Moment: (a.u.)
     X:     1.2180      Y:    -0.6483      Z:    -0.7606

  Dipole Moment: (a.u.)
     X:     7.1045      Y:    -3.7780      Z:    -4.4346     Total:     9.1877

  Dipole Moment: (Debye)
     X:    18.0578      Y:    -9.6028      Z:   -11.2716     Total:    23.3527


*** tstop() called on gpu-1-7.local at Sun Nov 12 16:47:32 2017
Module time:
	user time   =    1258.65 seconds =      20.98 minutes
	system time =      54.28 seconds =       0.90 minutes
	total time  =        502 seconds =       8.37 minutes
Total time:
	user time   =    1258.66 seconds =      20.98 minutes
	system time =      54.28 seconds =       0.90 minutes
	total time  =        502 seconds =       8.37 minutes

  //>>>>>>>>>>>>>>>>>>>>>>>>>>>>>>>>>>>//
  //               DFMP2               //
  //<<<<<<<<<<<<<<<<<<<<<<<<<<<<<<<<<<<//

   => Loading Basis Set <=

    Name: (AUG-CC-PVTZ AUX)
    Role: RIFIT
    Keyword: DF_BASIS_MP2
    atoms 1-11  entry C          line   147 file /cbio/jclab/home/chayas/anaconda/envs/py35/share/psi4/basis/aug-cc-pvtz-ri.gbs 
    atoms 12    entry N          line   205 file /cbio/jclab/home/chayas/anaconda/envs/py35/share/psi4/basis/aug-cc-pvtz-ri.gbs 
    atoms 13    entry O          line   263 file /cbio/jclab/home/chayas/anaconda/envs/py35/share/psi4/basis/aug-cc-pvtz-ri.gbs 
    atoms 14-22 entry H          line    29 file /cbio/jclab/home/chayas/anaconda/envs/py35/share/psi4/basis/aug-cc-pvtz-ri.gbs 

	 --------------------------------------------------------
	                          DF-MP2                         
	      2nd-Order Density-Fitted Moller-Plesset Theory     
	              RMP2 Wavefunction,   8 Threads             
	                                                         
	        Rob Parrish, Justin Turney, Andy Simmonett,      
	           Ed Hohenstein, and C. David Sherrill          
	 --------------------------------------------------------

   => Auxiliary Basis Set <=

  Basis Set: (AUG-CC-PVTZ AUX)
    Blend: AUG-CC-PVTZ-RI
    Number of shells: 490
    Number of basis function: 1792
    Number of Cartesian functions: 2263
    Spherical Harmonics?: true
    Max angular momentum: 4

	 --------------------------------------------------------
	                 NBF =   805, NAUX =  1792
	 --------------------------------------------------------
	   CLASS    FOCC     OCC    AOCC    AVIR     VIR    FVIR
	   PAIRS       0      45      45     760     760       0
	 --------------------------------------------------------


         ------------------------------------------------------------
                                     CPHF                           
                                  Rob Parrish                       
         ------------------------------------------------------------

  ==> Geometry <==

    Molecular point group: c1
    Full point group: C1

    Geometry (in Angstrom), charge = 0, multiplicity = 1:

       Center              X                  Y                   Z               Mass       
    ------------   -----------------  -----------------  -----------------  -----------------
           C         -1.297244481628     0.734142128637    -0.557524468340    12.000000000000
           C         -0.304244481628     0.118142128637     1.556475531660    12.000000000000
           C         -2.375244481628     1.307142128637     0.115475531660    12.000000000000
           C         -1.382244481628     0.691142128637     2.230475531660    12.000000000000
           C          0.705755518372    -1.680857871363    -1.177524468340    12.000000000000
           C          2.086755518372     0.196142128637    -0.566524468340    12.000000000000
           C          1.796755518372    -2.227857871363    -1.838524468340    12.000000000000
           C          3.141755518372    -0.398857871363    -1.243524468340    12.000000000000
           C         -0.261244481628     0.139142128637     0.162475531660    12.000000000000
           C          0.857755518372    -0.455857871363    -0.535524468340    12.000000000000
           C         -2.418244481628     1.286142128637     1.509475531660    12.000000000000
           N          2.968755518372    -1.578857871363    -1.852524468340    14.003074004780
           O         -3.409244481628     1.812142128637     2.128475531660    15.994914619560
           H         -1.278244481628     0.759142128637    -1.644524468340     1.007825032070
           H          0.495755518372    -0.341857871363     2.131475531660     1.007825032070
           H         -3.171244481628     1.764142128637    -0.470524468340     1.007825032070
           H         -1.391244481628     0.662142128637     3.318475531660     1.007825032070
           H         -0.241244481628    -2.211857871363    -1.169524468340     1.007825032070
           H          2.233755518372     1.153142128637    -0.074524468340     1.007825032070
           H          1.770755518372    -3.172857871363    -2.363524468340     1.007825032070
           H          4.129755518372     0.034142128637    -1.319524468340     1.007825032070
           H          3.757755518372    -1.998857871363    -2.343524468340     1.007825032070

  Nuclear repulsion =  700.224581446646653
  Reference energy  = -551.189169815534115

  ==> Basis Set <==

  Basis Set: AUG-CC-PVTZ
    Blend: AUG-CC-PVTZ
    Number of shells: 263
    Number of basis function: 805
    Number of Cartesian functions: 940
    Spherical Harmonics?: true
    Max angular momentum: 3

  ==> CGRSolver (by Rob Parrish) <==

   Number of roots    =         1
   Preconditioning    =    JACOBI
   Convergence cutoff =     1E-06
   Maximum iterations =       100

  ==> CPHFRHamiltonian (by Rob Parrish) <== 

  ==> DFJK: Density-Fitted J/K Matrices <==

    J tasked:                  Yes
    K tasked:                  Yes
    wK tasked:                  No
    OpenMP threads:              8
    Integrals threads:           8
    Memory (MB):              3576
    Algorithm:                Disk
    Integral Cache:           NONE
    Schwarz Cutoff:          1E-12
    Fitting Condition:       1E-12

   => Auxiliary Basis Set <=

  Basis Set: (AUG-CC-PVTZ AUX)
    Blend: AUG-CC-PVTZ-JKFIT
    Number of shells: 516
    Number of basis function: 1766
    Number of Cartesian functions: 2198
    Spherical Harmonics?: true
    Max angular momentum: 4

  ==> CPHF Iterations <==

  => Iterations <=

             Iter  Converged  Remaining    Residual
  CGR           1          0          1   1.552E-01
  CGR           2          0          1   6.317E-02
  CGR           3          0          1   3.408E-02
  CGR           4          0          1   1.015E-02
  CGR           5          0          1   4.307E-03
  CGR           6          0          1   2.320E-03
  CGR           7          0          1   8.919E-04
  CGR           8          0          1   4.692E-04
  CGR           9          0          1   2.060E-04
  CGR          10          0          1   7.644E-05
  CGR          11          0          1   3.165E-05
  CGR          12          0          1   1.154E-05
  CGR          13          0          1   3.928E-06
  CGR          14          0          1   1.311E-06
  CGR          15          1          0   4.384E-07

    CGRSolver converged.

  ==> DFCorrGrad: Density-Fitted Correlated Gradients <==

    OpenMP threads:              8
    Integrals threads:           8
    Memory (MB):              3576
    Schwarz Cutoff:          0E+00
    Fitting Condition:       1E-12

   => Auxiliary Basis Set <=

  Basis Set: (AUG-CC-PVTZ AUX)
    Blend: AUG-CC-PVTZ-JKFIT
    Number of shells: 516
    Number of basis function: 1766
    Number of Cartesian functions: 2198
    Spherical Harmonics?: true
    Max angular momentum: 4

	-----------------------------------------------------------
	 ==================> DF-MP2 Energies <==================== 
	-----------------------------------------------------------
	 Reference Energy          =    -551.1891698155341146 [Eh]
	 Singles Energy            =      -0.0000000000000006 [Eh]
	 Same-Spin Energy          =      -0.6057615518815233 [Eh]
	 Opposite-Spin Energy      =      -1.8346383327033586 [Eh]
	 Correlation Energy        =      -2.4403998845848824 [Eh]
	 Total Energy              =    -553.6295697001189637 [Eh]
	-----------------------------------------------------------
	 ================> DF-SCS-MP2 Energies <================== 
	-----------------------------------------------------------
	 SCS Same-Spin Scale       =       0.3333333333333333 [-]
	 SCS Opposite-Spin Scale   =       1.2000000000000000 [-]
	 SCS Same-Spin Energy      =      -0.2019205172938411 [Eh]
	 SCS Opposite-Spin Energy  =      -2.2015659992440302 [Eh]
	 SCS Correlation Energy    =      -2.4034865165378716 [Eh]
	 SCS Total Energy          =    -553.5926563320720106 [Eh]
	-----------------------------------------------------------


  -Total Gradient:
     Atom            X                  Y                   Z
    ------   -----------------  -----------------  -----------------
       1        0.024666528228     0.000148680303    -0.000089465572
       2        0.005160184043    -0.015987998211    -0.018558676504
       3       -0.024453957642     0.011509093724     0.042398293649
       4       -0.043811147901     0.024631361236     0.001115497580
       5       -0.015939029252     0.009316751546     0.021523077601
       6       -0.024807638710     0.012145723847     0.003552135655
       7        0.018627639678     0.006705288993     0.000614716025
       8       -0.001236663597    -0.016364623595    -0.011515235276
       9       -0.012817727637     0.006703912148     0.007921600129
      10        0.024090418706    -0.012927315105    -0.014889025328
      11        0.060208224347    -0.031815316379    -0.038130147545
      12       -0.007410915039     0.004531676542     0.004859073977
      13       -0.011806948672     0.006203209182     0.007452519440
      14       -0.002005683304     0.001096243347    -0.002823012538
      15        0.000979348410    -0.000522905864     0.003326127018
      16       -0.003465284395     0.000448721862    -0.008767418357
      17        0.005562834617    -0.001545842183     0.007110011010
      18       -0.004708611269    -0.003966939679    -0.001414444614
      19        0.002736585397     0.005213134668     0.002818897637
      20        0.000321560393    -0.001618005001    -0.002388523518
      21        0.002907135109    -0.000123911806     0.000295338275
      22        0.007203148479    -0.003780939576    -0.004411338728


*** tstop() called on gpu-1-7.local at Sun Nov 12 17:18:50 2017
Module time:
	user time   =    5277.09 seconds =      87.95 minutes
	system time =     110.74 seconds =       1.85 minutes
	total time  =       2380 seconds =      39.67 minutes
Total time:
	user time   =    5277.10 seconds =      87.95 minutes
	system time =     110.74 seconds =       1.85 minutes
	total time  =       2380 seconds =      39.67 minutes

			-----------------------------------------
			 OPTKING 2.0: for geometry optimizations 
			  - R.A. King,  Bethel University        
			-----------------------------------------

	Internal coordinates to be generated automatically.
	Detected frag 1 with atoms:  1 2 3 4 5 6 7 8 9 10 11 12 13 14 15 16 17 18 19 20
	 21 22
	---Fragment 1 Bond Connectivity---
	 1 : 3 9 14
	 2 : 4 9 15
	 3 : 1 11 16
	 4 : 2 11 17
	 5 : 7 10 18
	 6 : 8 10 19
	 7 : 5 12 20
	 8 : 6 12 21
	 9 : 1 2 10
	 10 : 5 6 9
	 11 : 3 4 13
	 12 : 7 8 22
	 13 : 11
	 14 : 1
	 15 : 2
	 16 : 3
	 17 : 4
	 18 : 5
	 19 : 6
	 20 : 7
	 21 : 8
	 22 : 12

	Assuming in current code that numbering for constraints corresponds to unified fragment.
	Fixed dihedral atom list: 
	     1     9    10     5
	---Fragment 1 Geometry and Gradient---
	 C          -2.4514367977        1.3873275657       -1.0535685575
	 C          -0.5749387477        0.2232562679        2.9413124874
	 C          -4.4885615689        2.4701406399        0.2182171299
	 C          -2.6120635190        1.3060693420        4.2149879009
	 C           1.3336846465       -3.1763610452       -2.2251987599
	 C           3.9433964360        0.3706549062       -1.0705760927
	 C           3.3953758575       -4.2100412399       -3.4743077338
	 C           5.9370575062       -0.7537321428       -2.3499206847
	 C          -0.4936805240        0.2629405167        0.3070342581
	 C           1.6209230187       -0.8614465324       -1.0119945826
	 C          -4.5698197926        2.4304563911        2.8524953591
	 N           5.6101348852       -2.9836089796       -3.5007638996
	 O          -6.4425383903        3.4244523370        4.0222358354
	 H          -2.4155320012        1.4345707191       -3.1077008640
	 H           0.9368421586       -0.6460177532        4.0279050138
	 H          -5.9927835707        3.3337454826       -0.8891623840
	 H          -2.6290710542        1.2512672842        6.2710099335
	 H          -0.4558860013       -4.1798056217       -2.2100809509
	 H           4.2211861775        2.1791228154       -0.1408308354
	 H           3.3462429780       -5.9958324354       -4.4664139535
	 H           7.8041069255        0.0645192727       -2.4935398708
	 H           7.1011288041       -3.7772939554       -4.4286194309
	             0.0246665282        0.0001486803       -0.0000894656
	             0.0051601840       -0.0159879982       -0.0185586765
	            -0.0244539576        0.0115090937        0.0423982936
	            -0.0438111479        0.0246313612        0.0011154976
	            -0.0159390293        0.0093167515        0.0215230776
	            -0.0248076387        0.0121457238        0.0035521357
	             0.0186276397        0.0067052890        0.0006147160
	            -0.0012366636       -0.0163646236       -0.0115152353
	            -0.0128177276        0.0067039121        0.0079216001
	             0.0240904187       -0.0129273151       -0.0148890253
	             0.0602082243       -0.0318153164       -0.0381301475
	            -0.0074109150        0.0045316765        0.0048590740
	            -0.0118069487        0.0062032092        0.0074525194
	            -0.0020056833        0.0010962433       -0.0028230125
	             0.0009793484       -0.0005229059        0.0033261270
	            -0.0034652844        0.0004487219       -0.0087674184
	             0.0055628346       -0.0015458422        0.0071100110
	            -0.0047086113       -0.0039669397       -0.0014144446
	             0.0027365854        0.0052131347        0.0028188976
	             0.0003215604       -0.0016180050       -0.0023885235
	             0.0029071351       -0.0001239118        0.0002953383
	             0.0072031485       -0.0037809396       -0.0044113387

	Previous optimization step data not found.  Starting new optimization.

	---Fragment 1 Intrafragment Coordinates---
	 - Coordinate -           - BOHR/RAD -       - ANG/DEG -
	 R(1,3)           =         2.634350	       1.394038
	 R(1,9)           =         2.635962	       1.394891
	 R(1,14)          =         2.054989	       1.087453
	 R(2,4)           =         2.635263	       1.394521
	 R(2,9)           =         2.635830	       1.394821
	 R(2,15)          =         2.054702	       1.087302
	 R(3,11)          =         2.635830	       1.394821
	 R(3,16)          =         2.057860	       1.088972
	 R(4,11)          =         2.636938	       1.395407
	 R(4,17)          =         2.056823	       1.088424
	 R(5,7)           =         2.622849	       1.387952
	 R(5,10)          =         2.629296	       1.391364
	 R(5,18)          =         2.051754	       1.085741
	 R(6,8)           =         2.622147	       1.387580
	 R(6,10)          =         2.629713	       1.391584
	 R(6,19)          =         2.052352	       1.086058
	 R(7,12)          =         2.531797	       1.339769
	 R(7,20)          =         2.043462	       1.081354
	 R(8,12)          =         2.530547	       1.339108
	 R(8,21)          =         2.043535	       1.081392
	 R(9,10)          =         2.734160	       1.446855
	 R(11,13)         =         2.421445	       1.281373
	 R(12,22)         =         1.927152	       1.019805
	 B(1,3,11)        =         2.094553	     120.009056
	 B(1,3,16)        =         2.069123	     118.552025
	 B(1,9,2)         =         2.093692	     119.959722
	 B(1,9,10)        =         2.095337	     120.053983
	 B(2,4,11)        =         2.093699	     119.960108
	 B(2,4,17)        =         2.069829	     118.592446
	 B(2,9,10)        =         2.094156	     119.986294
	 B(3,1,9)         =         2.094940	     120.031219
	 B(3,1,14)        =         2.079025	     119.119344
	 B(3,11,4)        =         2.094306	     119.994870
	 B(3,11,13)       =         2.094918	     120.029973
	 B(4,2,9)         =         2.095181	     120.045019
	 B(4,2,15)        =         2.079455	     119.143974
	 B(4,11,13)       =         2.093961	     119.975136
	 B(5,7,12)        =         2.096343	     120.111616
	 B(5,7,20)        =         2.161237	     123.829780
	 B(5,10,6)        =         2.092909	     119.914826
	 B(5,10,9)        =         2.094597	     120.011571
	 B(6,8,12)        =         2.096147	     120.100392
	 B(6,8,21)        =         2.161861	     123.865513
	 B(6,10,9)        =         2.095679	     120.073590
	 B(7,5,10)        =         2.072428	     118.741384
	 B(7,5,18)        =         2.090208	     119.760124
	 B(7,12,8)        =         2.135442	     122.351813
	 B(7,12,22)       =         2.074103	     118.837358
	 B(8,6,10)        =         2.073101	     118.779930
	 B(8,6,19)        =         2.089741	     119.733333
	 B(8,12,22)       =         2.073639	     118.810788
	 B(9,1,14)        =         2.109221	     120.849435
	 B(9,2,15)        =         2.108550	     120.811005
	 B(10,5,18)       =         2.120548	     121.498435
	 B(10,6,19)       =         2.120343	     121.486730
	 B(11,3,16)       =         2.119509	     121.438903
	 B(11,4,17)       =         2.119657	     121.447411
	 B(12,7,20)       =         2.025604	     116.058560
	 B(12,8,21)       =         2.025177	     116.034095
	 D(1,3,11,4)      =        -0.000325	      -0.018609
	 D(1,3,11,13)     =        -3.141004	    -179.966279
	 D(1,9,2,4)       =         0.000325	       0.018608
	 D(1,9,2,15)      =        -3.141527	    -179.996257
	 D(1,9,10,5)      =        -1.308633	     -74.979176
	 D(1,9,10,6)      =         1.832256	     104.980511
	 D(2,4,11,3)      =         0.000301	       0.017261
	 D(2,4,11,13)     =         3.140981	     179.964960
	 D(2,9,1,3)       =        -0.000348	      -0.019945
	 D(2,9,1,14)      =         3.141027	     179.967567
	 D(2,9,10,5)      =         1.833176	     105.033263
	 D(2,9,10,6)      =        -1.309120	     -75.007050
	 D(3,1,9,10)      =         3.141462	     179.992491
	 D(3,11,4,17)     =         3.140700	     179.948827
	 D(4,2,9,10)      =        -3.141485	    -179.993820
	 D(4,11,3,16)     =         3.140472	     179.935781
	 D(5,7,12,8)      =         0.000580	       0.033211
	 D(5,7,12,22)     =         3.140868	     179.958501
	 D(5,10,6,8)      =        -0.000878	      -0.050307
	 D(5,10,6,19)     =         3.141254	     179.980599
	 D(6,8,12,7)      =        -0.000152	      -0.008711
	 D(6,8,12,22)     =        -3.140441	    -179.934020
	 D(6,10,5,7)      =         0.001289	       0.073835
	 D(6,10,5,18)     =         3.141361	     179.986701
	 D(7,5,10,9)      =        -3.141006	    -179.966413
	 D(7,12,8,21)     =         3.141493	     179.994306
	 D(8,6,10,9)      =         3.141418	     179.989967
	 D(8,12,7,20)     =         3.140891	     179.959773
	 D(9,1,3,11)      =         0.000348	       0.019955
	 D(9,1,3,16)      =        -3.140471	    -179.935743
	 D(9,2,4,11)      =        -0.000301	      -0.017270
	 D(9,2,4,17)      =        -3.140734	    -179.950778
	 D(9,10,5,18)     =        -0.000935	      -0.053548
	 D(9,10,6,19)     =         0.000364	       0.020873
	 D(10,5,7,12)     =        -0.001138	      -0.065200
	 D(10,5,7,20)     =        -3.141344	    -179.985781
	 D(10,6,8,12)     =         0.000300	       0.017179
	 D(10,6,8,21)     =        -3.141350	    -179.986086
	 D(10,9,1,14)     =        -0.000349	      -0.019997
	 D(10,9,2,15)     =        -0.000152	      -0.008685
	 D(11,3,1,14)     =        -3.141030	    -179.967773
	 D(11,4,2,15)     =         3.141546	     179.997347
	 D(12,7,5,18)     =        -3.141237	    -179.979616
	 D(12,8,6,19)     =         3.141363	     179.986827
	 D(13,11,3,16)    =        -0.000207	      -0.011889
	 D(13,11,4,17)    =        -0.001806	      -0.103475
	 D(14,1,3,16)     =         0.001336	       0.076530
	 D(15,2,4,17)     =         0.001114	       0.063839
	 D(18,5,7,20)     =         0.001742	       0.099803
	 D(19,6,8,21)     =        -0.000287	      -0.016437
	 D(20,7,12,22)    =        -0.002006	      -0.114937
	 D(21,8,12,22)    =         0.001204	       0.068997

	Current energy   :      -553.6295697001

	Generating empirical Hessian (Schlegel '84) for each fragment.
	Adding user-defined constraint: Fragment 1; Coordinate 64:
		Value =    -1.308633; Fixed value    =    -1.308997
		Force =    -0.000182; Force constant =     0.500000
	Removing off-diagonal coupling between coordinate 64 and others.
	Taking RFO optimization step.
	Going to follow RFO solution 1.
	Using RFO vector 1.

	Determining step-restricting scale parameter for RS-RFO.
	Maximum step size allowed    0.10000

	 Iter      |step|        alpha        rfo_root  
	------------------------------------------------
	    0     0.43567       1.00000           1
	    1     0.28018       3.07788           1
	    2     0.19524       8.10907           1
	    3     0.14465      19.33244           1
	    4     0.11551      36.62985           1
	    5     0.10287      50.25522           1
	    6     0.10013      54.02521           1
	    7     0.10000      54.21226           1
	------------------------------------------------
	Norm of target step-size    0.10000
	Projected energy change by RFO approximation:        -0.0068502113

	Back-transformation to cartesian coordinates...
	Could not converge backtransformation.
	Using first guess instead.

	--- Internal Coordinate Step in ANG or DEG, aJ/ANG or AJ/DEG ---
	 ---------------------------------------------------------------------------
	   Coordinate                Previous        Force       Change         New 
	   ----------                --------       ------       ------       ------
	    1 R(1,3)          =      1.394038    -0.093295    -0.007095     1.386943
	    2 R(1,9)          =      1.394891     0.064018     0.004616     1.399507
	    3 R(1,14)         =      1.087453    -0.023167    -0.002018     1.085435
	    4 R(2,4)          =      1.394521    -0.096302    -0.007343     1.387178
	    5 R(2,9)          =      1.394821     0.065007     0.004713     1.399534
	    6 R(2,15)         =      1.087302    -0.022251    -0.001924     1.085377
	    7 R(3,11)         =      1.394821     0.247059     0.019337     1.414158
	    8 R(3,16)         =      1.088972    -0.061290    -0.005411     1.083562
	    9 R(4,11)         =      1.395407     0.243661     0.019141     1.414548
	   10 R(4,17)         =      1.088424    -0.058515    -0.005154     1.083270
	   11 R(5,7)          =      1.387952    -0.110186    -0.008289     1.379663
	   12 R(5,10)         =      1.391364     0.083630     0.006373     1.397737
	   13 R(5,18)         =      1.085741    -0.049734    -0.004360     1.081382
	   14 R(6,8)          =      1.387580    -0.107881    -0.008084     1.379496
	   15 R(6,10)         =      1.391584     0.081266     0.006206     1.397790
	   16 R(6,19)         =      1.086058    -0.051419    -0.004503     1.081555
	   17 R(7,12)         =      1.339769     0.062336     0.004293     1.344062
	   18 R(7,20)         =      1.081354    -0.021139    -0.001838     1.079516
	   19 R(8,12)         =      1.339108     0.067905     0.004655     1.343763
	   20 R(8,21)         =      1.081392    -0.021303    -0.001833     1.079559
	   21 R(9,10)         =      1.446855    -0.018107    -0.001521     1.445335
	   22 R(11,13)        =      1.281373    -0.125870    -0.007325     1.274048
	   23 R(12,22)        =      1.019805    -0.076241    -0.005966     1.013839
	   24 B(1,3,11)       =    120.009056     0.000626     0.808139   120.817196
	   25 B(1,3,16)       =    118.552025     0.000126     0.205648   118.757673
	   26 B(1,9,2)        =    119.959722    -0.000136    -0.266113   119.693609
	   27 B(1,9,10)       =    120.053983     0.000062     0.125963   120.179946
	   28 B(2,4,11)       =    119.960108     0.000641     0.820229   120.780338
	   29 B(2,4,17)       =    118.592446     0.000116     0.195025   118.787471
	   30 B(2,9,10)       =    119.986294     0.000074     0.139255   120.125549
	   31 B(3,1,9)        =    120.031219     0.000244     0.242610   120.273829
	   32 B(3,1,14)       =    119.119344     0.000058     0.130091   119.249435
	   33 B(3,11,4)       =    119.994870    -0.001622    -1.849826   118.145044
	   34 B(3,11,13)      =    120.029973     0.000803     0.917162   120.947135
	   35 B(4,2,9)        =    120.045019     0.000247     0.244254   120.289273
	   36 B(4,2,15)       =    119.143974     0.000051     0.121385   119.265359
	   37 B(4,11,13)      =    119.975136     0.000819     0.932685   120.907821
	   38 B(5,7,12)       =    120.111616    -0.000279    -0.356252   119.755364
	   39 B(5,7,20)       =    123.829780     0.000084     0.099305   123.929085
	   40 B(5,10,6)       =    119.914826    -0.000787    -0.960025   118.954801
	   41 B(5,10,9)       =    120.011571     0.000401     0.489255   120.500826
	   42 B(6,8,12)       =    120.100392    -0.000277    -0.352111   119.748281
	   43 B(6,8,21)       =    123.865513     0.000075     0.086688   123.952201
	   44 B(6,10,9)       =    120.073590     0.000386     0.470127   120.543717
	   45 B(7,5,10)       =    118.741384     0.000586     0.720787   119.462170
	   46 B(7,5,18)       =    119.760124    -0.000155    -0.169392   119.590732
	   47 B(7,12,8)       =    122.351813     0.000190     0.244878   122.596691
	   48 B(7,12,22)      =    118.837358    -0.000099    -0.127512   118.709846
	   49 B(8,6,10)       =    118.779930     0.000568     0.702679   119.482609
	   50 B(8,6,19)       =    119.733333    -0.000143    -0.156500   119.576833
	   51 B(8,12,22)      =    118.810788    -0.000091    -0.117418   118.693370
	   52 B(9,1,14)       =    120.849435    -0.000302    -0.372864   120.476572
	   53 B(9,2,15)       =    120.811005    -0.000298    -0.365905   120.445099
	   54 B(10,5,18)      =    121.498435    -0.000431    -0.551429   120.947006
	   55 B(10,6,19)      =    121.486730    -0.000425    -0.546183   120.940547
	   56 B(11,3,16)      =    121.438903    -0.000752    -1.013791   120.425112
	   57 B(11,4,17)      =    121.447411    -0.000757    -1.015307   120.432104
	   58 B(12,7,20)      =    116.058560     0.000196     0.256972   116.315532
	   59 B(12,8,21)      =    116.034095     0.000202     0.265378   116.299473
	   60 D(1,3,11,4)     =     -0.018609     0.000015     0.141925     0.123317
	   61 D(1,3,11,13)    =   -179.966279     0.000011     0.090580  -179.875699
	   62 D(1,9,2,4)      =      0.018608     0.000025     0.257761     0.276369
	   63 D(1,9,2,15)     =   -179.996257     0.000004     0.082966  -179.913291
	   64 D(1,9,10,5)     =    -74.979176     0.000101     0.567082   -74.412094
	   65 D(1,9,10,6)     =    104.980511     0.000128     0.905024   105.885535
	   66 D(2,4,11,3)     =      0.017261     0.000009     0.066958     0.084219
	   67 D(2,4,11,13)    =    179.964960     0.000014     0.118275   180.083235
	   68 D(2,9,1,3)      =     -0.019945    -0.000000    -0.049440    -0.069385
	   69 D(2,9,1,14)     =    179.967567    -0.000017    -0.185531   179.782036
	   70 D(2,9,10,5)     =    105.033263     0.000128     0.900029   105.933292
	   71 D(2,9,10,6)     =    -75.007050     0.000155     1.237971   -73.769079
	   72 D(3,1,9,10)     =    179.992491     0.000027     0.282015   180.274506
	   73 D(3,11,4,17)    =    179.948827     0.000006     0.026914   179.975741
	   74 D(4,2,9,10)     =   -179.993820    -0.000002    -0.073513  -180.067333
	   75 D(4,11,3,16)    =    179.935781     0.000015     0.136709   180.072490
	   76 D(5,7,12,8)     =      0.033211     0.000000     0.015391     0.048602
	   77 D(5,7,12,22)    =    179.958501    -0.000003    -0.022568   179.935932
	   78 D(5,10,6,8)     =     -0.050307     0.000011     0.143411     0.093104
	   79 D(5,10,6,19)    =    179.980599     0.000004     0.075429   180.056028
	   80 D(6,8,12,7)     =     -0.008711    -0.000004    -0.039639    -0.048350
	   81 D(6,8,12,22)    =   -179.934020    -0.000001    -0.001678  -179.935698
	   82 D(6,10,5,7)     =      0.073835    -0.000015    -0.166677    -0.092842
	   83 D(6,10,5,18)    =    179.986701    -0.000018    -0.190262   179.796439
	   84 D(7,5,10,9)     =   -179.966413     0.000013     0.166520  -179.799893
	   85 D(7,12,8,21)    =    179.994306     0.000006     0.032075   180.026381
	   86 D(8,6,10,9)     =    179.989967    -0.000016    -0.189941   179.800026
	   87 D(8,12,7,20)    =    179.959773     0.000015     0.136947   180.096720
	   88 D(9,1,3,11)     =      0.019955    -0.000020    -0.150658    -0.130703
	   89 D(9,1,3,16)     =   -179.935743    -0.000019    -0.144967  -180.080710
	   90 D(9,2,4,11)     =     -0.017270    -0.000030    -0.266983    -0.284253
	   91 D(9,2,4,17)     =   -179.950778    -0.000026    -0.226753  -180.177531
	   92 D(9,10,5,18)    =     -0.053548     0.000009     0.142935     0.089388
	   93 D(9,10,6,19)    =      0.020873    -0.000024    -0.257923    -0.237050
	   94 D(10,5,7,12)    =     -0.065200     0.000009     0.088895     0.023695
	   95 D(10,5,7,20)    =   -179.985781    -0.000007    -0.042507  -180.028287
	   96 D(10,6,8,12)    =      0.017179    -0.000002    -0.041368    -0.024189
	   97 D(10,6,8,21)    =   -179.986086    -0.000013    -0.118870  -180.104956
	   98 D(10,9,1,14)    =     -0.019997     0.000009     0.145924     0.125927
	   99 D(10,9,2,15)    =     -0.008685    -0.000023    -0.248308    -0.256992
	  100 D(11,3,1,14)    =   -179.967773    -0.000003    -0.016168  -179.983940
	  101 D(11,4,2,15)    =    179.997347    -0.000009    -0.094169   179.903178
	  102 D(12,7,5,18)    =   -179.979616     0.000012     0.112512  -179.867105
	  103 D(12,8,6,19)    =    179.986827     0.000005     0.025548   180.012375
	  104 D(13,11,3,16)   =     -0.011889     0.000011     0.085364     0.073475
	  105 D(13,11,4,17)   =     -0.103475     0.000010     0.078231    -0.025243
	  106 D(14,1,3,16)    =      0.076530    -0.000002    -0.010477     0.066053
	  107 D(15,2,4,17)    =      0.063839    -0.000006    -0.053939     0.009901
	  108 D(18,5,7,20)    =      0.099803    -0.000003    -0.018890     0.080913
	  109 D(19,6,8,21)    =     -0.016437    -0.000005    -0.051954    -0.068391
	  110 D(20,7,12,22)   =     -0.114937     0.000012     0.098988    -0.015950
	  111 D(21,8,12,22)   =      0.068997     0.000009     0.070036     0.139033
	 ---------------------------------------------------------------------------
	Successfully symmetrized geometry.
	 Forces used to impose fixed constraints are not included.
	  Forces zeroed: 64 

  ==> Convergence Check <==

  Measures of convergence in internal coordinates in au.
  Criteria marked as inactive (o), active & met (*), and active & unmet ( ).
  --------------------------------------------------------------------------------------------- ~
   Step     Total Energy     Delta E     MAX Force     RMS Force      MAX Disp      RMS Disp    ~
  --------------------------------------------------------------------------------------------- ~
    Convergence Criteria    1.00e-06 *    3.00e-04 *             o    1.20e-03 *             o  ~
  --------------------------------------------------------------------------------------------- ~
      1    -553.62956970   -5.54e+02      3.00e-02      6.75e-03 o    3.65e-02      9.48e-03 o  ~
  ---------------------------------------------------------------------------------------------

	Writing optimization data to binary file.
	Structure for next step:
	Cartesian Geometry (in Angstrom)
	    C    -1.3090426982   0.7283594510  -0.5578544401
	    C    -0.3026196161   0.1275156579   1.5596690441
	    C    -2.3802188816   1.3021089766   0.1107287381
	    C    -1.3734675356   0.6960232453   2.2337205848
	    C     0.7127544152  -1.6821794228  -1.1923441038
	    C     2.0956624067   0.1867609249  -0.5648078836
	    C     1.7954050957  -2.2298126220  -1.8491820745
	    C     3.1491495724  -0.4000519899  -1.2347524249
	    C    -0.2638586026   0.1368473481   0.1607025869
	    C     0.8543112579  -0.4552225179  -0.5379685792
	    C    -2.4383949242   1.2982899855   1.5236841604
	    N     2.9719642997  -1.5800452590  -1.8527485952
	    O    -3.4223261044   1.8225372982   2.1403222466
	    H    -1.2902558426   0.7458744195  -1.6429854785
	    H     0.5020612071  -0.3266252864   2.1291324868
	    H    -3.1753786256   1.7544364891  -0.4699832675
	    H    -1.3799455345   0.6726355568   3.3167183119
	    H    -0.2320210279  -2.2082748550  -1.1893471606
	    H     2.2413095142   1.1366341452  -0.0685329294
	    H     1.7671122209  -3.1713995693  -2.3764082300
	    H     4.1360981558   0.0320923782  -1.3028133230
	    H     3.7573226520  -1.9973775240  -2.3394879730
			--------------------------
			 OPTKING Finished Execution 
			--------------------------

    Structure for next step:
    Molecular point group: c1
    Full point group: C1

    Geometry (in Angstrom), charge = 0, multiplicity = 1:

    C           -1.307457334266     0.727534084183    -0.558641704084
    C           -0.301034252150     0.126690291089     1.558881780118
    C           -2.378633517600     1.301283609824     0.109941474150
    C           -1.371882171600     0.695197878510     2.232933320865
    C            0.714339779155    -1.683004789549    -1.193131367742
    C            2.097247770647     0.185935558137    -0.565595147553
    C            1.796990459634    -2.230637988750    -1.849969338439
    C            3.150734936311    -0.400877356714    -1.235539688903
    C           -0.262273238660     0.136021981364     0.159915322895
    C            0.855896621841    -0.456047884711    -0.538755843201
    C           -2.436809560275     1.297464618728     1.522896896459
    N            2.973549663616    -1.580870625773    -1.853535859201
    O           -3.420740740459     1.821711931386     2.139534982616
    H           -1.288670478612     0.745049052764    -1.643772742430
    H            0.503646571008    -0.327450653180     2.128345222855
    H           -3.173793261603     1.753611122326    -0.470770531464
    H           -1.378360170583     0.671810189999     3.315931047940
    H           -0.230435663944    -2.209100221740    -1.190134424584
    H            2.242894878170     1.135808778403    -0.069320193357
    H            1.768697584852    -3.172224936096    -2.377195493984
    H            4.137683519710     0.031267011401    -1.303600586961
    H            3.758908015952    -1.998202890740    -2.340275236955

gradient() will perform analytic gradient computation.

*** tstart() called on gpu-1-7.local
*** at Sun Nov 12 17:18:51 2017

    SCF Algorithm Type (re)set to DF.

*** tstart() called on gpu-1-7.local
*** at Sun Nov 12 17:18:51 2017

   => Loading Basis Set <=

    Name: AUG-CC-PVTZ
    Role: ORBITAL
    Keyword: BASIS
    atoms 1-11  entry C          line   221 file /cbio/jclab/home/chayas/anaconda/envs/py35/share/psi4/basis/aug-cc-pvtz.gbs 
    atoms 12    entry N          line   267 file /cbio/jclab/home/chayas/anaconda/envs/py35/share/psi4/basis/aug-cc-pvtz.gbs 
    atoms 13    entry O          line   313 file /cbio/jclab/home/chayas/anaconda/envs/py35/share/psi4/basis/aug-cc-pvtz.gbs 
    atoms 14-22 entry H          line    34 file /cbio/jclab/home/chayas/anaconda/envs/py35/share/psi4/basis/aug-cc-pvtz.gbs 


         ---------------------------------------------------------
                                   SCF
            by Justin Turney, Rob Parrish, and Andy Simmonett
                              RHF Reference
                        8 Threads,   4768 MiB Core
         ---------------------------------------------------------

  ==> Geometry <==

    Molecular point group: c1
    Full point group: C1

    Geometry (in Angstrom), charge = 0, multiplicity = 1:

       Center              X                  Y                   Z               Mass       
    ------------   -----------------  -----------------  -----------------  -----------------
           C         -1.307457334266     0.727534084183    -0.558641704084    12.000000000000
           C         -0.301034252150     0.126690291089     1.558881780118    12.000000000000
           C         -2.378633517600     1.301283609824     0.109941474150    12.000000000000
           C         -1.371882171600     0.695197878510     2.232933320865    12.000000000000
           C          0.714339779155    -1.683004789549    -1.193131367742    12.000000000000
           C          2.097247770647     0.185935558137    -0.565595147553    12.000000000000
           C          1.796990459634    -2.230637988750    -1.849969338439    12.000000000000
           C          3.150734936311    -0.400877356714    -1.235539688903    12.000000000000
           C         -0.262273238660     0.136021981364     0.159915322895    12.000000000000
           C          0.855896621841    -0.456047884711    -0.538755843201    12.000000000000
           C         -2.436809560275     1.297464618728     1.522896896459    12.000000000000
           N          2.973549663616    -1.580870625773    -1.853535859201    14.003074004780
           O         -3.420740740459     1.821711931386     2.139534982616    15.994914619560
           H         -1.288670478612     0.745049052764    -1.643772742430     1.007825032070
           H          0.503646571008    -0.327450653180     2.128345222855     1.007825032070
           H         -3.173793261603     1.753611122326    -0.470770531464     1.007825032070
           H         -1.378360170583     0.671810189999     3.315931047940     1.007825032070
           H         -0.230435663944    -2.209100221740    -1.190134424584     1.007825032070
           H          2.242894878170     1.135808778403    -0.069320193357     1.007825032070
           H          1.768697584852    -3.172224936096    -2.377195493984     1.007825032070
           H          4.137683519710     0.031267011401    -1.303600586961     1.007825032070
           H          3.758908015952    -1.998202890740    -2.340275236955     1.007825032070

  Running in c1 symmetry.

  Rotational constants: A =      0.09613  B =      0.01311  C =      0.01264 [cm^-1]
  Rotational constants: A =   2881.92652  B =    392.92217  C =    378.78964 [MHz]
  Nuclear repulsion =  698.926450285917895

  Charge       = 0
  Multiplicity = 1
  Electrons    = 90
  Nalpha       = 45
  Nbeta        = 45

  ==> Algorithm <==

  SCF Algorithm Type is DF.
  DIIS enabled.
  MOM disabled.
  Fractional occupation disabled.
  Guess Type is READ.
  Energy threshold   = 1.00e-10
  Density threshold  = 1.00e-10
  Integral threshold = 0.00e+00

  ==> Primary Basis <==

  Basis Set: AUG-CC-PVTZ
    Blend: AUG-CC-PVTZ
    Number of shells: 263
    Number of basis function: 805
    Number of Cartesian functions: 940
    Spherical Harmonics?: true
    Max angular momentum: 3

   => Loading Basis Set <=

    Name: (AUG-CC-PVTZ AUX)
    Role: JKFIT
    Keyword: DF_BASIS_SCF
    atoms 1-11  entry C          line   161 file /cbio/jclab/home/chayas/anaconda/envs/py35/share/psi4/basis/aug-cc-pvtz-jkfit.gbs 
    atoms 12    entry N          line   223 file /cbio/jclab/home/chayas/anaconda/envs/py35/share/psi4/basis/aug-cc-pvtz-jkfit.gbs 
    atoms 13    entry O          line   285 file /cbio/jclab/home/chayas/anaconda/envs/py35/share/psi4/basis/aug-cc-pvtz-jkfit.gbs 
    atoms 14-22 entry H          line    69 file /cbio/jclab/home/chayas/anaconda/envs/py35/share/psi4/basis/aug-cc-pvtz-jkfit.gbs 

  Reading orbitals from file 180, no projection.

  ==> Pre-Iterations <==

   -------------------------------------------------------
    Irrep   Nso     Nmo     Nalpha   Nbeta   Ndocc  Nsocc
   -------------------------------------------------------
     A        805     805       0       0       0       0
   -------------------------------------------------------
    Total     805     805      45      45      45       0
   -------------------------------------------------------

  ==> Integral Setup <==

  ==> DFJK: Density-Fitted J/K Matrices <==

    J tasked:                  Yes
    K tasked:                  Yes
    wK tasked:                  No
    OpenMP threads:              8
    Integrals threads:           8
    Memory (MB):              3576
    Algorithm:                Disk
    Integral Cache:           NONE
    Schwarz Cutoff:          1E-12
    Fitting Condition:       1E-12

   => Auxiliary Basis Set <=

  Basis Set: (AUG-CC-PVTZ AUX)
    Blend: AUG-CC-PVTZ-JKFIT
    Number of shells: 516
    Number of basis function: 1766
    Number of Cartesian functions: 2198
    Spherical Harmonics?: true
    Max angular momentum: 4

  Minimum eigenvalue in the overlap matrix is 7.3072512122E-07.
  Using Symmetric Orthogonalization.

  SCF Guess: Orbitals guess was supplied from a previous computation.

  ==> Iterations <==

                           Total Energy        Delta E     RMS |[F,P]|

   @DF-RHF iter   0:  -551.25816934383306   -5.51258e+02   5.25435e-04 
   @DF-RHF iter   1:  -551.19567294498700    6.24964e-02   7.61694e-05 
   @DF-RHF iter   2:  -551.19593994834793   -2.67003e-04   6.25352e-05 DIIS
   @DF-RHF iter   3:  -551.19613425356283   -1.94305e-04   9.79381e-06 DIIS
   @DF-RHF iter   4:  -551.19614884278803   -1.45892e-05   3.42453e-06 DIIS
   @DF-RHF iter   5:  -551.19615574520424   -6.90242e-06   1.85622e-06 DIIS
   @DF-RHF iter   6:  -551.19615881559025   -3.07039e-06   1.24810e-06 DIIS
   @DF-RHF iter   7:  -551.19615975375791   -9.38168e-07   4.82647e-07 DIIS
   @DF-RHF iter   8:  -551.19615985244388   -9.86860e-08   1.76222e-07 DIIS
   @DF-RHF iter   9:  -551.19615986472081   -1.22769e-08   8.94610e-08 DIIS
   @DF-RHF iter  10:  -551.19615986663030   -1.90948e-09   3.36048e-08 DIIS
   @DF-RHF iter  11:  -551.19615986708186   -4.51564e-10   1.84665e-08 DIIS
   @DF-RHF iter  12:  -551.19615986717179   -8.99263e-11   7.25978e-09 DIIS
   @DF-RHF iter  13:  -551.19615986720828   -3.64935e-11   3.53150e-09 DIIS
   @DF-RHF iter  14:  -551.19615986719771    1.05729e-11   1.22554e-09 DIIS
   @DF-RHF iter  15:  -551.19615986719759    1.13687e-13   4.16001e-10 DIIS
   @DF-RHF iter  16:  -551.19615986719259    5.00222e-12   1.53512e-10 DIIS
   @DF-RHF iter  17:  -551.19615986717747    1.51203e-11   5.99435e-11 DIIS

  ==> Post-Iterations <==

    Orbital Energies (a.u.)
    -----------------------

    Doubly Occupied:                                                      

       1A    -20.400317     2A    -15.731757     3A    -11.378880  
       4A    -11.378850     5A    -11.327496     6A    -11.303606  
       7A    -11.303548     8A    -11.222158     9A    -11.211745  
      10A    -11.211717    11A    -11.195251    12A    -11.165331  
      13A    -11.165235    14A     -1.408361    15A     -1.230994  
      16A     -1.189813    17A     -1.134056    18A     -1.097221  
      19A     -0.990707    20A     -0.975640    21A     -0.956459  
      22A     -0.903045    23A     -0.860562    24A     -0.790204  
      25A     -0.775378    26A     -0.758492    27A     -0.727737  
      28A     -0.695118    29A     -0.694175    30A     -0.674815  
      31A     -0.621398    32A     -0.603320    33A     -0.596548  
      34A     -0.591174    35A     -0.547595    36A     -0.520896  
      37A     -0.485751    38A     -0.473067    39A     -0.460396  
      40A     -0.447221    41A     -0.436333    42A     -0.390949  
      43A     -0.313928    44A     -0.306748    45A     -0.213650  

    Virtual:                                                              

      46A     -0.017359    47A      0.005071    48A      0.005237  
      49A      0.018280    50A      0.027885    51A      0.035028  
      52A      0.038746    53A      0.040608    54A      0.050027  
      55A      0.050180    56A      0.060595    57A      0.065768  
      58A      0.070058    59A      0.072207    60A      0.074973  
      61A      0.083230    62A      0.087995    63A      0.097421  
      64A      0.099975    65A      0.106714    66A      0.109234  
      67A      0.118758    68A      0.124985    69A      0.125385  
      70A      0.126412    71A      0.128891    72A      0.130889  
      73A      0.131374    74A      0.134072    75A      0.148344  
      76A      0.154753    77A      0.155727    78A      0.159824  
      79A      0.162281    80A      0.164639    81A      0.168155  
      82A      0.179616    83A      0.183439    84A      0.183985  
      85A      0.187288    86A      0.192938    87A      0.193967  
      88A      0.195184    89A      0.201848    90A      0.206242  
      91A      0.206647    92A      0.211989    93A      0.213284  
      94A      0.222884    95A      0.225205    96A      0.238609  
      97A      0.242076    98A      0.245213    99A      0.245407  
     100A      0.248846   101A      0.250744   102A      0.260286  
     103A      0.264050   104A      0.265395   105A      0.267220  
     106A      0.270514   107A      0.277641   108A      0.281503  
     109A      0.292449   110A      0.294218   111A      0.298250  
     112A      0.305142   113A      0.308418   114A      0.312617  
     115A      0.314104   116A      0.316507   117A      0.316637  
     118A      0.328666   119A      0.331944   120A      0.334954  
     121A      0.337259   122A      0.342022   123A      0.346984  
     124A      0.354102   125A      0.355737   126A      0.360200  
     127A      0.362800   128A      0.364603   129A      0.371359  
     130A      0.376313   131A      0.378324   132A      0.381916  
     133A      0.387901   134A      0.388445   135A      0.393402  
     136A      0.395698   137A      0.410307   138A      0.415251  
     139A      0.418248   140A      0.420450   141A      0.422386  
     142A      0.429691   143A      0.435674   144A      0.437750  
     145A      0.440632   146A      0.451126   147A      0.451397  
     148A      0.457276   149A      0.458115   150A      0.464935  
     151A      0.466692   152A      0.473390   153A      0.475301  
     154A      0.477173   155A      0.480853   156A      0.481995  
     157A      0.482338   158A      0.487063   159A      0.493904  
     160A      0.495934   161A      0.503244   162A      0.503971  
     163A      0.505827   164A      0.514828   165A      0.518544  
     166A      0.524408   167A      0.526356   168A      0.531870  
     169A      0.532686   170A      0.546694   171A      0.547465  
     172A      0.553326   173A      0.555249   174A      0.560264  
     175A      0.563505   176A      0.568463   177A      0.571270  
     178A      0.577088   179A      0.588805   180A      0.593876  
     181A      0.597205   182A      0.599947   183A      0.600388  
     184A      0.608389   185A      0.608677   186A      0.613364  
     187A      0.618438   188A      0.628209   189A      0.635803  
     190A      0.641603   191A      0.652361   192A      0.657359  
     193A      0.662122   194A      0.664753   195A      0.669189  
     196A      0.678625   197A      0.686142   198A      0.689244  
     199A      0.689690   200A      0.695726   201A      0.697916  
     202A      0.712016   203A      0.720484   204A      0.724003  
     205A      0.726365   206A      0.729929   207A      0.738665  
     208A      0.740972   209A      0.742553   210A      0.747446  
     211A      0.752540   212A      0.757048   213A      0.763610  
     214A      0.766763   215A      0.775749   216A      0.778405  
     217A      0.785035   218A      0.790307   219A      0.799782  
     220A      0.804995   221A      0.817738   222A      0.822156  
     223A      0.831643   224A      0.838005   225A      0.839104  
     226A      0.850909   227A      0.859677   228A      0.862396  
     229A      0.862543   230A      0.870875   231A      0.881694  
     232A      0.886673   233A      0.891481   234A      0.895821  
     235A      0.902571   236A      0.903602   237A      0.907333  
     238A      0.909310   239A      0.912659   240A      0.920411  
     241A      0.923593   242A      0.924158   243A      0.930958  
     244A      0.934345   245A      0.939853   246A      0.942192  
     247A      0.946225   248A      0.955633   249A      0.958295  
     250A      0.962908   251A      0.966046   252A      0.968799  
     253A      0.974681   254A      0.980600   255A      0.987471  
     256A      0.990642   257A      0.997931   258A      1.004386  
     259A      1.012897   260A      1.014823   261A      1.018698  
     262A      1.021579   263A      1.024587   264A      1.026127  
     265A      1.035576   266A      1.038248   267A      1.050089  
     268A      1.050557   269A      1.056440   270A      1.058293  
     271A      1.060749   272A      1.067443   273A      1.075541  
     274A      1.084011   275A      1.088058   276A      1.088441  
     277A      1.092311   278A      1.093257   279A      1.094286  
     280A      1.102383   281A      1.106535   282A      1.112817  
     283A      1.117365   284A      1.118097   285A      1.122851  
     286A      1.130412   287A      1.132597   288A      1.134471  
     289A      1.139641   290A      1.160912   291A      1.161034  
     292A      1.166034   293A      1.172150   294A      1.176644  
     295A      1.183730   296A      1.186107   297A      1.195070  
     298A      1.198246   299A      1.203641   300A      1.204454  
     301A      1.212296   302A      1.213913   303A      1.220771  
     304A      1.226168   305A      1.229096   306A      1.233935  
     307A      1.243435   308A      1.245904   309A      1.246903  
     310A      1.253815   311A      1.254561   312A      1.260272  
     313A      1.271649   314A      1.279726   315A      1.289087  
[...]
      76A      0.153152    77A      0.153803    78A      0.158701  
      79A      0.160734    80A      0.164568    81A      0.169059  
      82A      0.171266    83A      0.177851    84A      0.180308  
      85A      0.183744    86A      0.190571    87A      0.191827  
      88A      0.198596    89A      0.205282    90A      0.206802  
      91A      0.211246    92A      0.218996    93A      0.223087  
      94A      0.224311    95A      0.227368    96A      0.231484  
      97A      0.236782    98A      0.246187    99A      0.248802  
     100A      0.252362   101A      0.256132   102A      0.262426  
     103A      0.263975   104A      0.264946   105A      0.272499  
     106A      0.280312   107A      0.285481   108A      0.287641  
     109A      0.291011   110A      0.295748   111A      0.297966  
     112A      0.303704   113A      0.306716   114A      0.310081  
     115A      0.316261   116A      0.323488   117A      0.324483  
     118A      0.329208   119A      0.331938   120A      0.336319  
     121A      0.339678   122A      0.347089   123A      0.351201  
     124A      0.351709   125A      0.355909   126A      0.360162  
     127A      0.366841   128A      0.367270   129A      0.371631  
     130A      0.371777   131A      0.378598   132A      0.383286  
     133A      0.389011   134A      0.395038   135A      0.402791  
     136A      0.410168   137A      0.413649   138A      0.420117  
     139A      0.425328   140A      0.429944   141A      0.435055  
     142A      0.436355   143A      0.437854   144A      0.444800  
     145A      0.447951   146A      0.451883   147A      0.452726  
     148A      0.461882   149A      0.464232   150A      0.468776  
     151A      0.472293   152A      0.474133   153A      0.477923  
     154A      0.480084   155A      0.480833   156A      0.486386  
     157A      0.487757   158A      0.490019   159A      0.496321  
     160A      0.498191   161A      0.505084   162A      0.505704  
     163A      0.506472   164A      0.516850   165A      0.523210  
     166A      0.523577   167A      0.529431   168A      0.536693  
     169A      0.537331   170A      0.542452   171A      0.544720  
     172A      0.546466   173A      0.548149   174A      0.553214  
     175A      0.562826   176A      0.567230   177A      0.571254  
     178A      0.575729   179A      0.582102   180A      0.585380  
     181A      0.590769   182A      0.595599   183A      0.605125  
     184A      0.607497   185A      0.612037   186A      0.617139  
     187A      0.620508   188A      0.636484   189A      0.642432  
     190A      0.645066   191A      0.654056   192A      0.662039  
     193A      0.665296   194A      0.672072   195A      0.676880  
     196A      0.679869   197A      0.688420   198A      0.693398  
     199A      0.697720   200A      0.701666   201A      0.706252  
     202A      0.711998   203A      0.716358   204A      0.719345  
     205A      0.725780   206A      0.732431   207A      0.739027  
     208A      0.741110   209A      0.744862   210A      0.750990  
     211A      0.758615   212A      0.766798   213A      0.768305  
     214A      0.772711   215A      0.778368   216A      0.781807  
     217A      0.786034   218A      0.795096   219A      0.804933  
     220A      0.817333   221A      0.823930   222A      0.827574  
     223A      0.838044   224A      0.843924   225A      0.850792  
     226A      0.855009   227A      0.862919   228A      0.866022  
     229A      0.871633   230A      0.874978   231A      0.884379  
     232A      0.887867   233A      0.889105   234A      0.892608  
     235A      0.893821   236A      0.901471   237A      0.905184  
     238A      0.911494   239A      0.918262   240A      0.919671  
     241A      0.925890   242A      0.927750   243A      0.933445  
     244A      0.935704   245A      0.937246   246A      0.943897  
     247A      0.949865   248A      0.954694   249A      0.963788  
     250A      0.967240   251A      0.972045   252A      0.978340  
     253A      0.984895   254A      0.986772   255A      0.995596  
     256A      1.001763   257A      1.004657   258A      1.008553  
     259A      1.013132   260A      1.015634   261A      1.019421  
     262A      1.024497   263A      1.030289   264A      1.035540  
     265A      1.038190   266A      1.039440   267A      1.043707  
     268A      1.049250   269A      1.054269   270A      1.060069  
     271A      1.063063   272A      1.065629   273A      1.076478  
     274A      1.077643   275A      1.084766   276A      1.086572  
     277A      1.098863   278A      1.101356   279A      1.104405  
     280A      1.106229   281A      1.114777   282A      1.117601  
     283A      1.121217   284A      1.125736   285A      1.130849  
     286A      1.132544   287A      1.140245   288A      1.145056  
     289A      1.149475   290A      1.152092   291A      1.156913  
     292A      1.159924   293A      1.172130   294A      1.174346  
     295A      1.181057   296A      1.187297   297A      1.190991  
     298A      1.193660   299A      1.198190   300A      1.203621  
     301A      1.209016   302A      1.212956   303A      1.220409  
     304A      1.225226   305A      1.229965   306A      1.234916  
     307A      1.236521   308A      1.240928   309A      1.252874  
     310A      1.260636   311A      1.263469   312A      1.274306  
     313A      1.276419   314A      1.279754   315A      1.288214  
     316A      1.294757   317A      1.299387   318A      1.304611  
     319A      1.312294   320A      1.320214   321A      1.321750  
     322A      1.331995   323A      1.338402   324A      1.346229  
     325A      1.348967   326A      1.351847   327A      1.362195  
     328A      1.368336   329A      1.376435   330A      1.387437  
     331A      1.388537   332A      1.397587   333A      1.401791  
     334A      1.408305   335A      1.418168   336A      1.423718  
     337A      1.430712   338A      1.437694   339A      1.446923  
     340A      1.449210   341A      1.454509   342A      1.468712  
     343A      1.470293   344A      1.480440   345A      1.483035  
     346A      1.491501   347A      1.503714   348A      1.508425  
     349A      1.515227   350A      1.517253   351A      1.531426  
     352A      1.543578   353A      1.549934   354A      1.558121  
     355A      1.564073   356A      1.564707   357A      1.576141  
     358A      1.581595   359A      1.597621   360A      1.599606  
     361A      1.617071   362A      1.623597   363A      1.627052  
     364A      1.635867   365A      1.638296   366A      1.651538  
     367A      1.653026   368A      1.671922   369A      1.680055  
     370A      1.690784   371A      1.694829   372A      1.701000  
     373A      1.708060   374A      1.714677   375A      1.718841  
     376A      1.725995   377A      1.728296   378A      1.736451  
     379A      1.739010   380A      1.761069   381A      1.772264  
     382A      1.782484   383A      1.789256   384A      1.796987  
     385A      1.800158   386A      1.814477   387A      1.817449  
     388A      1.823000   389A      1.835298   390A      1.842948  
     391A      1.849842   392A      1.854516   393A      1.857973  
     394A      1.861948   395A      1.883032   396A      1.888004  
     397A      1.906870   398A      1.910001   399A      1.916551  
     400A      1.919522   401A      1.930167   402A      1.936347  
     403A      1.942241   404A      1.949105   405A      1.963981  
     406A      1.966650   407A      1.973847   408A      1.982594  
     409A      1.991145   410A      2.003664   411A      2.005248  
     412A      2.012700   413A      2.019326   414A      2.024977  
     415A      2.029781   416A      2.036686   417A      2.043104  
     418A      2.052348   419A      2.061153   420A      2.070269  
     421A      2.077892   422A      2.081248   423A      2.089624  
     424A      2.093924   425A      2.103083   426A      2.121371  
     427A      2.131233   428A      2.140891   429A      2.146867  
     430A      2.150093   431A      2.161200   432A      2.167424  
     433A      2.179569   434A      2.187786   435A      2.195492  
     436A      2.203573   437A      2.207993   438A      2.212907  
     439A      2.230491   440A      2.242952   441A      2.250271  
     442A      2.252414   443A      2.258327   444A      2.273671  
     445A      2.289619   446A      2.292459   447A      2.308094  
     448A      2.320841   449A      2.331105   450A      2.345755  
     451A      2.353342   452A      2.366050   453A      2.369196  
     454A      2.378602   455A      2.387135   456A      2.403277  
     457A      2.405586   458A      2.415921   459A      2.427250  
     460A      2.430356   461A      2.449072   462A      2.455817  
     463A      2.462284   464A      2.467734   465A      2.479177  
     466A      2.489087   467A      2.493324   468A      2.508265  
     469A      2.512881   470A      2.543259   471A      2.546972  
     472A      2.556144   473A      2.563927   474A      2.585595  
     475A      2.599220   476A      2.607663   477A      2.613648  
     478A      2.630243   479A      2.641650   480A      2.648621  
     481A      2.656908   482A      2.677835   483A      2.690572  
     484A      2.700179   485A      2.724464   486A      2.726166  
     487A      2.736607   488A      2.748742   489A      2.763247  
     490A      2.769309   491A      2.777967   492A      2.778953  
     493A      2.807039   494A      2.830930   495A      2.847723  
     496A      2.855158   497A      2.877774   498A      2.902192  
     499A      2.915329   500A      2.929196   501A      2.959214  
     502A      3.005128   503A      3.023914   504A      3.040817  
     505A      3.060480   506A      3.064994   507A      3.094116  
     508A      3.107700   509A      3.117495   510A      3.135692  
     511A      3.160872   512A      3.168295   513A      3.199869  
     514A      3.201462   515A      3.226403   516A      3.240766  
     517A      3.245536   518A      3.264895   519A      3.284829  
     520A      3.297703   521A      3.319430   522A      3.326291  
     523A      3.343911   524A      3.361070   525A      3.371338  
     526A      3.375301   527A      3.377646   528A      3.392081  
     529A      3.407012   530A      3.417662   531A      3.430356  
     532A      3.437142   533A      3.445701   534A      3.465013  
     535A      3.473430   536A      3.481069   537A      3.494066  
     538A      3.503128   539A      3.507395   540A      3.513696  
     541A      3.525482   542A      3.533483   543A      3.539394  
     544A      3.545192   545A      3.553259   546A      3.558052  
     547A      3.573186   548A      3.582427   549A      3.591444  
     550A      3.593455   551A      3.599510   552A      3.610705  
     553A      3.620377   554A      3.629521   555A      3.635613  
     556A      3.656876   557A      3.661502   558A      3.666409  
     559A      3.675520   560A      3.682316   561A      3.685948  
     562A      3.704639   563A      3.716237   564A      3.725543  
     565A      3.734255   566A      3.742211   567A      3.750075  
     568A      3.755394   569A      3.760182   570A      3.775483  
     571A      3.789275   572A      3.790481   573A      3.801088  
     574A      3.802973   575A      3.830263   576A      3.842459  
     577A      3.848052   578A      3.856716   579A      3.871524  
     580A      3.881313   581A      3.885676   582A      3.893355  
     583A      3.906441   584A      3.920102   585A      3.922051  
     586A      3.930069   587A      3.945294   588A      3.957659  
     589A      3.959773   590A      3.964202   591A      3.974249  
     592A      3.987990   593A      3.995792   594A      4.005853  
     595A      4.012474   596A      4.018182   597A      4.024836  
     598A      4.046753   599A      4.050227   600A      4.065985  
     601A      4.068216   602A      4.073601   603A      4.084348  
     604A      4.089317   605A      4.103079   606A      4.107584  
     607A      4.117683   608A      4.120801   609A      4.142530  
     610A      4.157498   611A      4.162489   612A      4.164845  
     613A      4.173823   614A      4.183670   615A      4.186697  
     616A      4.199971   617A      4.209966   618A      4.213992  
     619A      4.229036   620A      4.233402   621A      4.237015  
     622A      4.246958   623A      4.262428   624A      4.275460  
     625A      4.279668   626A      4.286129   627A      4.292395  
     628A      4.316019   629A      4.320261   630A      4.325734  
     631A      4.331167   632A      4.341567   633A      4.352437  
     634A      4.361450   635A      4.373105   636A      4.378889  
     637A      4.394240   638A      4.398637   639A      4.403036  
     640A      4.411236   641A      4.422817   642A      4.429832  
     643A      4.435162   644A      4.451051   645A      4.453734  
     646A      4.469937   647A      4.471736   648A      4.484123  
     649A      4.503041   650A      4.509697   651A      4.512614  
     652A      4.525333   653A      4.529395   654A      4.542319  
     655A      4.546272   656A      4.556056   657A      4.573479  
     658A      4.579161   659A      4.605162   660A      4.619214  
     661A      4.641538   662A      4.656192   663A      4.664443  
     664A      4.684113   665A      4.714407   666A      4.721931  
     667A      4.727319   668A      4.744432   669A      4.760022  
     670A      4.772896   671A      4.791422   672A      4.796909  
     673A      4.813211   674A      4.825786   675A      4.829063  
     676A      4.848853   677A      4.858018   678A      4.867831  
     679A      4.889515   680A      4.901759   681A      4.923594  
     682A      4.929022   683A      4.954982   684A      4.968143  
     685A      4.975363   686A      4.983834   687A      4.997699  
     688A      5.005008   689A      5.033066   690A      5.055483  
     691A      5.062129   692A      5.070556   693A      5.093091  
     694A      5.097489   695A      5.103890   696A      5.110960  
     697A      5.125622   698A      5.132068   699A      5.138746  
     700A      5.144589   701A      5.149295   702A      5.170412  
     703A      5.178233   704A      5.182301   705A      5.198778  
     706A      5.205863   707A      5.220032   708A      5.238830  
     709A      5.241247   710A      5.246731   711A      5.256813  
     712A      5.264685   713A      5.295976   714A      5.317392  
     715A      5.324526   716A      5.345600   717A      5.380540  
     718A      5.394096   719A      5.413858   720A      5.417872  
     721A      5.436346   722A      5.449110   723A      5.478446  
     724A      5.483401   725A      5.490551   726A      5.511478  
     727A      5.521882   728A      5.542676   729A      5.557263  
     730A      5.574811   731A      5.596565   732A      5.634315  
     733A      5.658395   734A      5.690473   735A      5.711104  
     736A      5.731718   737A      5.742064   738A      5.756835  
     739A      5.775533   740A      5.788203   741A      5.819936  
     742A      5.831374   743A      5.838826   744A      5.857604  
     745A      5.895119   746A      5.931221   747A      5.973517  
     748A      6.000419   749A      6.062175   750A      6.085875  
     751A      6.103718   752A      6.105367   753A      6.138514  
     754A      6.159048   755A      6.199771   756A      6.215037  
     757A      6.293375   758A      6.317215   759A      6.337442  
     760A      6.355358   761A      6.479521   762A      6.483506  
     763A      6.562224   764A      6.579051   765A      6.606018  
     766A      6.648231   767A      6.652815   768A      6.666606  
     769A      6.724955   770A      6.753525   771A      6.772149  
     772A      6.818748   773A      6.839284   774A      6.923363  
     775A      6.933563   776A      6.979129   777A      7.004829  
     778A      7.062974   779A      7.071728   780A      7.090998  
     781A      7.112707   782A      7.178797   783A      7.251355  
     784A      7.467030   785A      7.507691   786A      7.536367  
     787A      7.685394   788A      7.799753   789A      7.822332  
     790A      7.892136   791A      7.992917   792A      8.072838  
     793A     15.953764   794A     16.471483   795A     16.619420  
     796A     16.754414   797A     17.072430   798A     18.774960  
     799A     18.882038   800A     19.558186   801A     19.668260  
     802A     19.885053   803A     20.258850   804A     20.585289  
     805A     21.577042  

    Final Occupation by Irrep:
              A 
    DOCC [    45 ]

  Energy converged.

  @DF-RHF Final Energy:  -551.21489167140601

   => Energetics <=

    Nuclear Repulsion Energy =            698.8732158667024805
    One-Electron Energy =               -2134.3307660520745230
    Two-Electron Energy =                 884.2426585139659210
    DFT Exchange-Correlation Energy =       0.0000000000000000
    Empirical Dispersion Energy =           0.0000000000000000
    PCM Polarization Energy =               0.0000000000000000
    EFP Energy =                            0.0000000000000000
    Total Energy =                       -551.2148916714060078



Properties will be evaluated at   0.000000,   0.000000,   0.000000 Bohr

Properties computed using the SCF density matrix

  Nuclear Dipole Moment: (a.u.)
     X:     5.9956      Y:    -3.1892      Z:    -3.5021

  Electronic Dipole Moment: (a.u.)
     X:    -0.8541      Y:     0.3753      Z:     0.2829

  Dipole Moment: (a.u.)
     X:     5.1416      Y:    -2.8139      Z:    -3.2192     Total:     6.6870

  Dipole Moment: (Debye)
     X:    13.0685      Y:    -7.1521      Z:    -8.1823     Total:    16.9968


*** tstop() called on gpu-1-7.local at Mon Nov 13 16:26:47 2017
Module time:
	user time   =     866.42 seconds =      14.44 minutes
	system time =      38.88 seconds =       0.65 minutes
	total time  =        344 seconds =       5.73 minutes
Total time:
	user time   =  190718.06 seconds =    3178.63 minutes
	system time =    4131.47 seconds =      68.86 minutes
	total time  =      85657 seconds =    1427.62 minutes

  //>>>>>>>>>>>>>>>>>>>>>>>>>>>>>>>>>>>//
  //               DFMP2               //
  //<<<<<<<<<<<<<<<<<<<<<<<<<<<<<<<<<<<//

   => Loading Basis Set <=

    Name: (AUG-CC-PVTZ AUX)
    Role: RIFIT
    Keyword: DF_BASIS_MP2
    atoms 1-11  entry C          line   147 file /cbio/jclab/home/chayas/anaconda/envs/py35/share/psi4/basis/aug-cc-pvtz-ri.gbs 
    atoms 12    entry N          line   205 file /cbio/jclab/home/chayas/anaconda/envs/py35/share/psi4/basis/aug-cc-pvtz-ri.gbs 
    atoms 13    entry O          line   263 file /cbio/jclab/home/chayas/anaconda/envs/py35/share/psi4/basis/aug-cc-pvtz-ri.gbs 
    atoms 14-22 entry H          line    29 file /cbio/jclab/home/chayas/anaconda/envs/py35/share/psi4/basis/aug-cc-pvtz-ri.gbs 

	 --------------------------------------------------------
	                          DF-MP2                         
	      2nd-Order Density-Fitted Moller-Plesset Theory     
	              RMP2 Wavefunction,   8 Threads             
	                                                         
	        Rob Parrish, Justin Turney, Andy Simmonett,      
	           Ed Hohenstein, and C. David Sherrill          
	 --------------------------------------------------------

   => Auxiliary Basis Set <=

  Basis Set: (AUG-CC-PVTZ AUX)
    Blend: AUG-CC-PVTZ-RI
    Number of shells: 490
    Number of basis function: 1792
    Number of Cartesian functions: 2263
    Spherical Harmonics?: true
    Max angular momentum: 4

	 --------------------------------------------------------
	                 NBF =   805, NAUX =  1792
	 --------------------------------------------------------
	   CLASS    FOCC     OCC    AOCC    AVIR     VIR    FVIR
	   PAIRS       0      45      45     760     760       0
	 --------------------------------------------------------

