
    -----------------------------------------------------------------------
          Psi4: An Open-Source Ab Initio Electronic Structure Package
                               Psi4 1.1 release

                         Git: Rev {HEAD} add49b9 


    R. M. Parrish, L. A. Burns, D. G. A. Smith, A. C. Simmonett,
    A. E. DePrince III, E. G. Hohenstein, U. Bozkaya, A. Yu. Sokolov,
    R. Di Remigio, R. M. Richard, J. F. Gonthier, A. M. James,
    H. R. McAlexander, A. Kumar, M. Saitow, X. Wang, B. P. Pritchard,
    P. Verma, H. F. Schaefer III, K. Patkowski, R. A. King, E. F. Valeev,
    F. A. Evangelista, J. M. Turney, T. D. Crawford, and C. D. Sherrill,
    J. Chem. Theory Comput. in press (2017).
    (doi: 10.1021/acs.jctc.7b00174)

    -----------------------------------------------------------------------


    Psi4 started on: Saturday, 11 November 2017 06:16PM

    Process ID:  17745
    PSIDATADIR: /cbio/jclab/home/chayas/anaconda/envs/py35/share/psi4
    Memory:     500.0 MiB
    Threads:    8
    
  ==> Input File <==

--------------------------------------------------------------------------

memory 5 Gb

molecule phepyrFOH_cation {
  symmetry C1
  1 1 
  C      1.885   -1.036   -0.112
  C      0.807   -0.463   0.561
  C      4.245   -1.940   -1.441
  C      4.906   -3.082   0.574
  C      1.800   -1.079   2.676
  C      5.323   -2.524   -2.090
  C      5.968   -3.637   -0.126
  C      2.921   -1.631   0.608
  C      4.038   -2.225   -0.095
  C      0.764   -0.484   1.955
  C      2.878   -1.652   2.002
  N      6.144   -3.346   -1.422
  O      -0.289   0.076   2.612
  F      3.866   -2.220   2.709
  H      1.904   -1.012   -1.199
  H      0.002   -0.002   -0.006
  H      3.583   -1.274   -1.988
  H      4.769   -3.322   1.624
  H      1.772   -1.099   3.762
  H      5.561   -2.359   -3.132
  H      6.691   -4.312   0.312
  H      6.930   -3.765   -1.917
  H      -0.175   -0.018   3.571
  units Angstrom
}

dih_string = "1 8 9 3 15"
set optking fixed_dihedral = $dih_string

optimize('MP2/aug-cc-PVTZ')
--------------------------------------------------------------------------

  Memory set to   4.657 GiB by Python driver.
gradient() will perform analytic gradient computation.

*** tstart() called on gpu-1-14.local
*** at Sat Nov 11 18:16:21 2017

    SCF Algorithm Type (re)set to DF.

*** tstart() called on gpu-1-14.local
*** at Sat Nov 11 18:16:21 2017

   => Loading Basis Set <=

    Name: AUG-CC-PVTZ
    Role: ORBITAL
    Keyword: BASIS
    atoms 1-11  entry C          line   221 file /cbio/jclab/home/chayas/anaconda/envs/py35/share/psi4/basis/aug-cc-pvtz.gbs 
    atoms 12    entry N          line   267 file /cbio/jclab/home/chayas/anaconda/envs/py35/share/psi4/basis/aug-cc-pvtz.gbs 
    atoms 13    entry O          line   313 file /cbio/jclab/home/chayas/anaconda/envs/py35/share/psi4/basis/aug-cc-pvtz.gbs 
    atoms 14    entry F          line   359 file /cbio/jclab/home/chayas/anaconda/envs/py35/share/psi4/basis/aug-cc-pvtz.gbs 
    atoms 15-23 entry H          line    34 file /cbio/jclab/home/chayas/anaconda/envs/py35/share/psi4/basis/aug-cc-pvtz.gbs 


         ---------------------------------------------------------
                                   SCF
            by Justin Turney, Rob Parrish, and Andy Simmonett
                              RHF Reference
                        8 Threads,   4768 MiB Core
         ---------------------------------------------------------

  ==> Geometry <==

    Molecular point group: c1
    Full point group: C1

    Geometry (in Angstrom), charge = 1, multiplicity = 1:

       Center              X                  Y                   Z               Mass       
    ------------   -----------------  -----------------  -----------------  -----------------
           C         -1.337866873723     0.764148144981    -0.788141466086    12.000000000000
           C         -2.415866873723     1.337148144981    -0.115141466086    12.000000000000
           C          1.022133126277    -0.139851855019    -2.117141466086    12.000000000000
           C          1.683133126277    -1.281851855019    -0.102141466086    12.000000000000
           C         -1.422866873723     0.721148144981     1.999858533914    12.000000000000
           C          2.100133126277    -0.723851855019    -2.766141466086    12.000000000000
           C          2.745133126277    -1.836851855019    -0.802141466086    12.000000000000
           C         -0.301866873723     0.169148144981    -0.068141466086    12.000000000000
           C          0.815133126277    -0.424851855019    -0.771141466086    12.000000000000
           C         -2.458866873723     1.316148144981     1.278858533914    12.000000000000
           C         -0.344866873723     0.148148144981     1.325858533914    12.000000000000
           N          2.921133126277    -1.545851855019    -2.098141466086    14.003074004780
           O         -3.511866873723     1.876148144981     1.935858533914    15.994914619560
           F          0.643133126277    -0.419851855019     2.032858533914    18.998403224000
           H         -1.318866873723     0.788148144981    -1.875141466086     1.007825032070
           H         -3.220866873723     1.798148144981    -0.682141466086     1.007825032070
           H          0.360133126277     0.526148144981    -2.664141466086     1.007825032070
           H          1.546133126277    -1.521851855019     0.947858533914     1.007825032070
           H         -1.450866873723     0.701148144981     3.085858533914     1.007825032070
           H          2.338133126277    -0.558851855019    -3.808141466086     1.007825032070
           H          3.468133126277    -2.511851855019    -0.364141466086     1.007825032070
           H          3.707133126277    -1.964851855019    -2.593141466086     1.007825032070
           H         -3.397866873723     1.782148144981     2.894858533914     1.007825032070

  Running in c1 symmetry.

  Rotational constants: A =      0.06291  B =      0.01341  C =      0.01111 [cm^-1]
  Rotational constants: A =   1886.08966  B =    402.07214  C =    333.15495 [MHz]
  Nuclear repulsion =  833.090393783842387

  Charge       = 1
  Multiplicity = 1
  Electrons    = 98
  Nalpha       = 49
  Nbeta        = 49

  ==> Algorithm <==

  SCF Algorithm Type is DF.
  DIIS enabled.
  MOM disabled.
  Fractional occupation disabled.
  Guess Type is SAD.
  Energy threshold   = 1.00e-10
  Density threshold  = 1.00e-10
  Integral threshold = 0.00e+00

  ==> Primary Basis <==

  Basis Set: AUG-CC-PVTZ
    Blend: AUG-CC-PVTZ
    Number of shells: 277
    Number of basis function: 851
    Number of Cartesian functions: 995
    Spherical Harmonics?: true
    Max angular momentum: 3

   => Loading Basis Set <=

    Name: (AUG-CC-PVTZ AUX)
    Role: JKFIT
    Keyword: DF_BASIS_SCF
    atoms 1-11  entry C          line   161 file /cbio/jclab/home/chayas/anaconda/envs/py35/share/psi4/basis/aug-cc-pvtz-jkfit.gbs 
    atoms 12    entry N          line   223 file /cbio/jclab/home/chayas/anaconda/envs/py35/share/psi4/basis/aug-cc-pvtz-jkfit.gbs 
    atoms 13    entry O          line   285 file /cbio/jclab/home/chayas/anaconda/envs/py35/share/psi4/basis/aug-cc-pvtz-jkfit.gbs 
    atoms 14    entry F          line   347 file /cbio/jclab/home/chayas/anaconda/envs/py35/share/psi4/basis/aug-cc-pvtz-jkfit.gbs 
    atoms 15-23 entry H          line    69 file /cbio/jclab/home/chayas/anaconda/envs/py35/share/psi4/basis/aug-cc-pvtz-jkfit.gbs 

  ==> Pre-Iterations <==

   -------------------------------------------------------
    Irrep   Nso     Nmo     Nalpha   Nbeta   Ndocc  Nsocc
   -------------------------------------------------------
     A        851     851       0       0       0       0
   -------------------------------------------------------
    Total     851     851      49      49      49       0
   -------------------------------------------------------

  ==> Integral Setup <==

  ==> DFJK: Density-Fitted J/K Matrices <==

    J tasked:                  Yes
    K tasked:                  Yes
    wK tasked:                  No
    OpenMP threads:              8
    Integrals threads:           8
    Memory (MB):              3576
    Algorithm:                Disk
    Integral Cache:           NONE
    Schwarz Cutoff:          1E-12
    Fitting Condition:       1E-12

   => Auxiliary Basis Set <=

  Basis Set: (AUG-CC-PVTZ AUX)
    Blend: AUG-CC-PVTZ-JKFIT
    Number of shells: 546
    Number of basis function: 1870
    Number of Cartesian functions: 2329
    Spherical Harmonics?: true
    Max angular momentum: 4

  Minimum eigenvalue in the overlap matrix is 5.6508682770E-07.
  Using Symmetric Orthogonalization.

  SCF Guess: Superposition of Atomic Densities via on-the-fly atomic UHF.

  ==> Iterations <==

                           Total Energy        Delta E     RMS |[F,P]|

   @DF-RHF iter   0:  -655.29479461713413   -6.55295e+02   1.22992e-02 
   @DF-RHF iter   1:  -650.21175408598685    5.08304e+00   1.32937e-03 
   @DF-RHF iter   2:  -650.49076334201879   -2.79009e-01   5.83769e-04 DIIS
   @DF-RHF iter   3:  -650.53803379600618   -4.72705e-02   3.02454e-04 DIIS
   @DF-RHF iter   4:  -650.55131943166441   -1.32856e-02   8.39681e-05 DIIS
   @DF-RHF iter   5:  -650.55297475228701   -1.65532e-03   3.59503e-05 DIIS
   @DF-RHF iter   6:  -650.55325723610667   -2.82484e-04   1.56733e-05 DIIS
   @DF-RHF iter   7:  -650.55328668195421   -2.94458e-05   4.15381e-06 DIIS
   @DF-RHF iter   8:  -650.55329014849372   -3.46654e-06   1.61723e-06 DIIS
   @DF-RHF iter   9:  -650.55329054100241   -3.92509e-07   6.24155e-07 DIIS
   @DF-RHF iter  10:  -650.55329063709485   -9.60924e-08   2.95687e-07 DIIS
   @DF-RHF iter  11:  -650.55329066331365   -2.62188e-08   1.24147e-07 DIIS
   @DF-RHF iter  12:  -650.55329066824140   -4.92776e-09   5.67725e-08 DIIS
   @DF-RHF iter  13:  -650.55329066898491   -7.43512e-10   2.54236e-08 DIIS
   @DF-RHF iter  14:  -650.55329066914612   -1.61208e-10   6.24644e-09 DIIS
   @DF-RHF iter  15:  -650.55329066920058   -5.44560e-11   3.59987e-09 DIIS
   @DF-RHF iter  16:  -650.55329066916079    3.97904e-11   1.22397e-09 DIIS
   @DF-RHF iter  17:  -650.55329066921115   -5.03633e-11   5.55404e-10 DIIS
   @DF-RHF iter  18:  -650.55329066918807    2.30784e-11   2.57497e-10 DIIS
   @DF-RHF iter  19:  -650.55329066917363    1.44382e-11   1.08787e-10 DIIS
   @DF-RHF iter  20:  -650.55329066920740   -3.37650e-11   3.38151e-11 DIIS

  ==> Post-Iterations <==

    Orbital Energies (a.u.)
    -----------------------

    Doubly Occupied:                                                      

       1A    -26.459169     2A    -20.715632     3A    -15.829702  
       4A    -11.481322     5A    -11.481234     6A    -11.478388  
       7A    -11.451096     8A    -11.446867     9A    -11.413812  
      10A    -11.403419    11A    -11.393019    12A    -11.383934  
      13A    -11.369828    14A    -11.362006    15A     -1.782565  
      16A     -1.529715    17A     -1.507478    18A     -1.325814  
      19A     -1.273568    20A     -1.233295    21A     -1.167452  
      22A     -1.161998    23A     -1.070288    24A     -1.058149  
      25A     -0.999068    26A     -0.975182    27A     -0.956588  
      28A     -0.905147    29A     -0.879063    30A     -0.864551  
      31A     -0.851399    32A     -0.846085    33A     -0.828871  
      34A     -0.805341    35A     -0.779516    36A     -0.773009  
      37A     -0.772337    38A     -0.758143    39A     -0.721990  
      40A     -0.714982    41A     -0.708226    42A     -0.687676  
      43A     -0.654520    44A     -0.651202    45A     -0.645763  
      46A     -0.574513    47A     -0.533219    48A     -0.478704  
      49A     -0.447710  

    Virtual:                                                              

      50A     -0.106648    51A     -0.082649    52A     -0.061769  
      53A     -0.061232    54A     -0.056966    55A     -0.045454  
      56A     -0.044056    57A     -0.039503    58A     -0.031818  
      59A     -0.025688    60A     -0.022027    61A     -0.019674  
      62A     -0.013889    63A     -0.010007    64A     -0.008046  
      65A     -0.000398    66A      0.005124    67A      0.008125  
      68A      0.010153    69A      0.016282    70A      0.019255  
      71A      0.023006    72A      0.025128    73A      0.028349  
      74A      0.031740    75A      0.033518    76A      0.035070  
      77A      0.038458    78A      0.042185    79A      0.049685  
      80A      0.053003    81A      0.055154    82A      0.061616  
      83A      0.063304    84A      0.066523    85A      0.072775  
      86A      0.074431    87A      0.075582    88A      0.081121  
      89A      0.086033    90A      0.090488    91A      0.096743  
      92A      0.098509    93A      0.103772    94A      0.106970  
      95A      0.108678    96A      0.119207    97A      0.123584  
      98A      0.127727    99A      0.133005   100A      0.134079  
     101A      0.136785   102A      0.139670   103A      0.143678  
     104A      0.145835   105A      0.148298   106A      0.152238  
     107A      0.156469   108A      0.161613   109A      0.165026  
     110A      0.170524   111A      0.173279   112A      0.174385  
     113A      0.180258   114A      0.182775   115A      0.190292  
     116A      0.191651   117A      0.194340   118A      0.199928  
     119A      0.204837   120A      0.205712   121A      0.214961  
     122A      0.217643   123A      0.220618   124A      0.223224  
     125A      0.225892   126A      0.227610   127A      0.233317  
     128A      0.234299   129A      0.239614   130A      0.242610  
     131A      0.248954   132A      0.253060   133A      0.253465  
     134A      0.259908   135A      0.266035   136A      0.270472  
     137A      0.272216   138A      0.278026   139A      0.283379  
     140A      0.286991   141A      0.288659   142A      0.295386  
     143A      0.297205   144A      0.303870   145A      0.307000  
     146A      0.308783   147A      0.313057   148A      0.321033  
     149A      0.325313   150A      0.327973   151A      0.330024  
     152A      0.332355   153A      0.335783   154A      0.338074  
     155A      0.340702   156A      0.344672   157A      0.346682  
     158A      0.352701   159A      0.354528   160A      0.356812  
     161A      0.365166   162A      0.366268   163A      0.372004  
     164A      0.372681   165A      0.379974   166A      0.383599  
     167A      0.386308   168A      0.388307   169A      0.391541  
     170A      0.391943   171A      0.393612   172A      0.402631  
     173A      0.405241   174A      0.408730   175A      0.411947  
     176A      0.414284   177A      0.418310   178A      0.421217  
     179A      0.426347   180A      0.434739   181A      0.438394  
     182A      0.440476   183A      0.446512   184A      0.452376  
     185A      0.453939   186A      0.456242   187A      0.462574  
     188A      0.463793   189A      0.469859   190A      0.481063  
     191A      0.491417   192A      0.495152   193A      0.500674  
     194A      0.506608   195A      0.510656   196A      0.519098  
     197A      0.521704   198A      0.534178   199A      0.535761  
     200A      0.543951   201A      0.546275   202A      0.552182  
     203A      0.558026   204A      0.561516   205A      0.569526  
     206A      0.575763   207A      0.580969   208A      0.585523  
     209A      0.587028   210A      0.590531   211A      0.595869  
     212A      0.600012   213A      0.606303   214A      0.616089  
     215A      0.624402   216A      0.625096   217A      0.630139  
     218A      0.638855   219A      0.641315   220A      0.645681  
     221A      0.646836   222A      0.652876   223A      0.662295  
     224A      0.663933   225A      0.675039   226A      0.681077  
     227A      0.683329   228A      0.692687   229A      0.700786  
     230A      0.705364   231A      0.709064   232A      0.711499  
     233A      0.720240   234A      0.726187   235A      0.733122  
     236A      0.735588   237A      0.744025   238A      0.744217  
     239A      0.749798   240A      0.751195   241A      0.753807  
     242A      0.763021   243A      0.765266   244A      0.767742  
     245A      0.774385   246A      0.777834   247A      0.787533  
     248A      0.789182   249A      0.795569   250A      0.797216  
     251A      0.801093   252A      0.803631   253A      0.809934  
     254A      0.812538   255A      0.817752   256A      0.823009  
     257A      0.829142   258A      0.834147   259A      0.840140  
     260A      0.845859   261A      0.847693   262A      0.850922  
     263A      0.854346   264A      0.856937   265A      0.861455  
     266A      0.863475   267A      0.870651   268A      0.876383  
     269A      0.879032   270A      0.880435   271A      0.888902  
     272A      0.897171   273A      0.899041   274A      0.908098  
     275A      0.912887   276A      0.917043   277A      0.923008  
     278A      0.924252   279A      0.931459   280A      0.938007  
     281A      0.940041   282A      0.944145   283A      0.945884  
     284A      0.950043   285A      0.955578   286A      0.962040  
     287A      0.967767   288A      0.970777   289A      0.975540  
     290A      0.981783   291A      0.987461   292A      0.990839  
     293A      0.992804   294A      0.998072   295A      1.003445  
     296A      1.004400   297A      1.012055   298A      1.016807  
     299A      1.022649   300A      1.022738   301A      1.033932  
     302A      1.034968   303A      1.041316   304A      1.045021  
     305A      1.053172   306A      1.057253   307A      1.059354  
     308A      1.063966   309A      1.070553   310A      1.075572  
     311A      1.077205   312A      1.078598   313A      1.082967  
     314A      1.093833   315A      1.097511   316A      1.099196  
     317A      1.111193   318A      1.114231   319A      1.117158  
     320A      1.121846   321A      1.126556   322A      1.136515  
     323A      1.143388   324A      1.145254   325A      1.147918  
     326A      1.149472   327A      1.162107   328A      1.164069  
     329A      1.170474   330A      1.172345   331A      1.180849  
     332A      1.191706   333A      1.193732   334A      1.203624  
     335A      1.214843   336A      1.221022   337A      1.228711  
     338A      1.237168   339A      1.242464   340A      1.245391  
     341A      1.249361   342A      1.256744   343A      1.260541  
     344A      1.264134   345A      1.273436   346A      1.279971  
     347A      1.287528   348A      1.296956   349A      1.307024  
     350A      1.313509   351A      1.319157   352A      1.322436  
     353A      1.332629   354A      1.336141   355A      1.337871  
     356A      1.341293   357A      1.357331   358A      1.363864  
     359A      1.370546   360A      1.381489   361A      1.382913  
     362A      1.388774   363A      1.396190   364A      1.408546  
     365A      1.411765   366A      1.412702   367A      1.424975  
     368A      1.434706   369A      1.446676   370A      1.454350  
     371A      1.460998   372A      1.474718   373A      1.476183  
     374A      1.483967   375A      1.490910   376A      1.499191  
     377A      1.509493   378A      1.522397   379A      1.522911  
     380A      1.527405   381A      1.530350   382A      1.535099  
     383A      1.545521   384A      1.552479   385A      1.566145  
     386A      1.568335   387A      1.572677   388A      1.575549  
     389A      1.583256   390A      1.603835   391A      1.610833  
     392A      1.626589   393A      1.633890   394A      1.640942  
     395A      1.647001   396A      1.653559   397A      1.658397  
     398A      1.661320   399A      1.664762   400A      1.678338  
     401A      1.688815   402A      1.693749   403A      1.708970  
     404A      1.711035   405A      1.723062   406A      1.727567  
     407A      1.732985   408A      1.733409   409A      1.739872  
     410A      1.751115   411A      1.760223   412A      1.769320  
     413A      1.774347   414A      1.784479   415A      1.790475  
     416A      1.800635   417A      1.808478   418A      1.822125  
     419A      1.826281   420A      1.829273   421A      1.839289  
     422A      1.845389   423A      1.856817   424A      1.858775  
     425A      1.865955   426A      1.872112   427A      1.876819  
     428A      1.891337   429A      1.902425   430A      1.903132  
     431A      1.908133   432A      1.918482   433A      1.922320  
     434A      1.927640   435A      1.934108   436A      1.940028  
     437A      1.947427   438A      1.951653   439A      1.957943  
     440A      1.971219   441A      1.979744   442A      1.987122  
     443A      1.990261   444A      2.004251   445A      2.016484  
     446A      2.024696   447A      2.030844   448A      2.034481  
     449A      2.044048   450A      2.051066   451A      2.059947  
     452A      2.070712   453A      2.077203   454A      2.083537  
     455A      2.085197   456A      2.089284   457A      2.104514  
     458A      2.108541   459A      2.119609   460A      2.144181  
     461A      2.157303   462A      2.160809   463A      2.171786  
     464A      2.182650   465A      2.188792   466A      2.195702  
     467A      2.207508   468A      2.214115   469A      2.227266  
     470A      2.232277   471A      2.237562   472A      2.246040  
     473A      2.270964   474A      2.273336   475A      2.280582  
     476A      2.299735   477A      2.302964   478A      2.310673  
     479A      2.322190   480A      2.339061   481A      2.347699  
     482A      2.355338   483A      2.370074   484A      2.377548  
     485A      2.386629   486A      2.402858   487A      2.407237  
     488A      2.412919   489A      2.430726   490A      2.437043  
     491A      2.447925   492A      2.459199   493A      2.464968  
     494A      2.480972   495A      2.503165   496A      2.512197  
     497A      2.515793   498A      2.534914   499A      2.544434  
     500A      2.556529   501A      2.570812   502A      2.594820  
     503A      2.596718   504A      2.615429   505A      2.634307  
     506A      2.640728   507A      2.659237   508A      2.667698  
     509A      2.705037   510A      2.718840   511A      2.727189  
     512A      2.740824   513A      2.754664   514A      2.761458  
     515A      2.786591   516A      2.799008   517A      2.827728  
     518A      2.849632   519A      2.865155   520A      2.876884  
     521A      2.908155   522A      2.919499   523A      2.932192  
     524A      2.952531   525A      2.961718   526A      2.969414  
     527A      2.996069   528A      2.999343   529A      3.027852  
     530A      3.041342   531A      3.051177   532A      3.057756  
     533A      3.065707   534A      3.079131   535A      3.092282  
     536A      3.094807   537A      3.114314   538A      3.125216  
     539A      3.150537   540A      3.155454   541A      3.177622  
     542A      3.181563   543A      3.189090   544A      3.198141  
     545A      3.213154   546A      3.217033   547A      3.227644  
     548A      3.232653   549A      3.238137   550A      3.248143  
     551A      3.262688   552A      3.279894   553A      3.282690  
     554A      3.301000   555A      3.311521   556A      3.319685  
     557A      3.325871   558A      3.339129   559A      3.343562  
     560A      3.349483   561A      3.363146   562A      3.364659  
     563A      3.373772   564A      3.386303   565A      3.397967  
     566A      3.399037   567A      3.404940   568A      3.409418  
     569A      3.418341   570A      3.435780   571A      3.439928  
     572A      3.451314   573A      3.462458   574A      3.475378  
     575A      3.480356   576A      3.489969   577A      3.500037  
     578A      3.509832   579A      3.517095   580A      3.526990  
     581A      3.530792   582A      3.536337   583A      3.556766  
     584A      3.559996   585A      3.569953   586A      3.578773  
     587A      3.590299   588A      3.600041   589A      3.609536  
     590A      3.618258   591A      3.628728   592A      3.640783  
     593A      3.645126   594A      3.648567   595A      3.655568  
     596A      3.667073   597A      3.675761   598A      3.684872  
     599A      3.696435   600A      3.699957   601A      3.714760  
     602A      3.718453   603A      3.724142   604A      3.740197  
     605A      3.745453   606A      3.755966   607A      3.766589  
     608A      3.775972   609A      3.781608   610A      3.786155  
     611A      3.788160   612A      3.808722   613A      3.810698  
     614A      3.815372   615A      3.822324   616A      3.825033  
     617A      3.837425   618A      3.842446   619A      3.852274  
     620A      3.862469   621A      3.868089   622A      3.887360  
     623A      3.892954   624A      3.902697   625A      3.907729  
     626A      3.918128   627A      3.927042   628A      3.934733  
     629A      3.955412   630A      3.957930   631A      3.974509  
     632A      3.984117   633A      3.993732   634A      3.997370  
     635A      3.999374   636A      4.026427   637A      4.035039  
     638A      4.039253   639A      4.047411   640A      4.059225  
     641A      4.067347   642A      4.068941   643A      4.075414  
     644A      4.084162   645A      4.096046   646A      4.099112  
     647A      4.112404   648A      4.117537   649A      4.119849  
     650A      4.138085   651A      4.142930   652A      4.154790  
     653A      4.162838   654A      4.176063   655A      4.187139  
     656A      4.191844   657A      4.194367   658A      4.197873  
     659A      4.201183   660A      4.214263   661A      4.216690  
     662A      4.228904   663A      4.238679   664A      4.250602  
     665A      4.255414   666A      4.264945   667A      4.273321  
     668A      4.291206   669A      4.295358   670A      4.297770  
     671A      4.315402   672A      4.331012   673A      4.335127  
     674A      4.344253   675A      4.359173   676A      4.361356  
     677A      4.366877   678A      4.367425   679A      4.384075  
     680A      4.397381   681A      4.408648   682A      4.416384  
     683A      4.422717   684A      4.433099   685A      4.452772  
     686A      4.460029   687A      4.469835   688A      4.475949  
     689A      4.489594   690A      4.493321   691A      4.514861  
     692A      4.519569   693A      4.540401   694A      4.555738  
     695A      4.565515   696A      4.574925   697A      4.590145  
     698A      4.599243   699A      4.626332   700A      4.636171  
     701A      4.637259   702A      4.655454   703A      4.661370  
     704A      4.671939   705A      4.680283   706A      4.699076  
     707A      4.710705   708A      4.719810   709A      4.731232  
     710A      4.759281   711A      4.765647   712A      4.771063  
     713A      4.787706   714A      4.798146   715A      4.811137  
     716A      4.819289   717A      4.831987   718A      4.839255  
     719A      4.857673   720A      4.877632   721A      4.899526  
     722A      4.912415   723A      4.920266   724A      4.931452  
     725A      4.951928   726A      4.956823   727A      4.962479  
     728A      4.968168   729A      4.985307   730A      4.988301  
     731A      5.001741   732A      5.016290   733A      5.022987  
     734A      5.032769   735A      5.044828   736A      5.058019  
     737A      5.061799   738A      5.082266   739A      5.090755  
     740A      5.124301   741A      5.139377   742A      5.154468  
     743A      5.159314   744A      5.197144   745A      5.207004  
     746A      5.215545   747A      5.224804   748A      5.252347  
     749A      5.259954   750A      5.275285   751A      5.299180  
     752A      5.313938   753A      5.322625   754A      5.362197  
     755A      5.380272   756A      5.391451   757A      5.409235  
     758A      5.414931   759A      5.430768   760A      5.439399  
     761A      5.473225   762A      5.494091   763A      5.512996  
     764A      5.527395   765A      5.571909   766A      5.584997  
     767A      5.616058   768A      5.619634   769A      5.625730  
     770A      5.672288   771A      5.682611   772A      5.695115  
     773A      5.705428   774A      5.710880   775A      5.768055  
     776A      5.785348   777A      5.800609   778A      5.845169  
     779A      5.853593   780A      5.877018   781A      5.951505  
     782A      5.979232   783A      5.997230   784A      6.032552  
     785A      6.062462   786A      6.092897   787A      6.136722  
     788A      6.159663   789A      6.189848   790A      6.253720  
     791A      6.267881   792A      6.308274   793A      6.324892  
     794A      6.364925   795A      6.412795   796A      6.454863  
     797A      6.468802   798A      6.499791   799A      6.554554  
     800A      6.584785   801A      6.616699   802A      6.622530  
     803A      6.699481   804A      6.762857   805A      6.782688  
     806A      6.786482   807A      6.809210   808A      6.850143  
     809A      6.888645   810A      6.928300   811A      6.949195  
     812A      6.987103   813A      7.093718   814A      7.149176  
     815A      7.294990   816A      7.312245   817A      7.372567  
     818A      7.481581   819A      7.555334   820A      7.569105  
     821A      7.588259   822A      7.640602   823A      7.899159  
     824A      8.275439   825A      8.528480   826A      9.021465  
     827A      9.084788   828A      9.175084   829A      9.228363  
     830A      9.312187   831A      9.422508   832A      9.440223  
     833A      9.497300   834A      9.588455   835A      9.616297  
     836A      9.963892   837A      9.984158   838A     15.879453  
     839A     16.162468   840A     16.501621   841A     16.850465  
     842A     17.108819   843A     17.203629   844A     18.817784  
     845A     19.541291   846A     19.668840   847A     19.894895  
     848A     20.348899   849A     20.438653   850A     20.888765  
     851A     21.422480  

    Final Occupation by Irrep:
              A 
    DOCC [    49 ]

  Energy converged.

  @DF-RHF Final Energy:  -650.55329066920740

   => Energetics <=

    Nuclear Repulsion Energy =            833.0903937838423872
    One-Electron Energy =               -2526.1022601169174777
    Two-Electron Energy =                1042.4585756638675775
    DFT Exchange-Correlation Energy =       0.0000000000000000
    Empirical Dispersion Energy =           0.0000000000000000
    PCM Polarization Energy =               0.0000000000000000
    EFP Energy =                            0.0000000000000000
    Total Energy =                       -650.5532906692073993



Properties will be evaluated at   0.000000,   0.000000,   0.000000 Bohr

Properties computed using the SCF density matrix

  Nuclear Dipole Moment: (a.u.)
     X:     1.2721      Y:    -0.4920      Z:    -6.6443

  Electronic Dipole Moment: (a.u.)
     X:     1.3261      Y:    -0.8817      Z:     4.6222

  Dipole Moment: (a.u.)
     X:     2.5982      Y:    -1.3736      Z:    -2.0221     Total:     3.5674

  Dipole Moment: (Debye)
     X:     6.6040      Y:    -3.4915      Z:    -5.1396     Total:     9.0674


*** tstop() called on gpu-1-14.local at Sat Nov 11 18:26:09 2017
Module time:
	user time   =    1472.32 seconds =      24.54 minutes
	system time =      59.80 seconds =       1.00 minutes
	total time  =        588 seconds =       9.80 minutes
Total time:
	user time   =    1472.33 seconds =      24.54 minutes
	system time =      59.80 seconds =       1.00 minutes
	total time  =        588 seconds =       9.80 minutes

  //>>>>>>>>>>>>>>>>>>>>>>>>>>>>>>>>>>>//
  //               DFMP2               //
  //<<<<<<<<<<<<<<<<<<<<<<<<<<<<<<<<<<<//

   => Loading Basis Set <=

    Name: (AUG-CC-PVTZ AUX)
    Role: RIFIT
    Keyword: DF_BASIS_MP2
    atoms 1-11  entry C          line   147 file /cbio/jclab/home/chayas/anaconda/envs/py35/share/psi4/basis/aug-cc-pvtz-ri.gbs 
    atoms 12    entry N          line   205 file /cbio/jclab/home/chayas/anaconda/envs/py35/share/psi4/basis/aug-cc-pvtz-ri.gbs 
    atoms 13    entry O          line   263 file /cbio/jclab/home/chayas/anaconda/envs/py35/share/psi4/basis/aug-cc-pvtz-ri.gbs 
    atoms 14    entry F          line   321 file /cbio/jclab/home/chayas/anaconda/envs/py35/share/psi4/basis/aug-cc-pvtz-ri.gbs 
    atoms 15-23 entry H          line    29 file /cbio/jclab/home/chayas/anaconda/envs/py35/share/psi4/basis/aug-cc-pvtz-ri.gbs 

	 --------------------------------------------------------
	                          DF-MP2                         
	      2nd-Order Density-Fitted Moller-Plesset Theory     
	              RMP2 Wavefunction,   8 Threads             
	                                                         
	        Rob Parrish, Justin Turney, Andy Simmonett,      
	           Ed Hohenstein, and C. David Sherrill          
	 --------------------------------------------------------

   => Auxiliary Basis Set <=

  Basis Set: (AUG-CC-PVTZ AUX)
    Blend: AUG-CC-PVTZ-RI
    Number of shells: 518
    Number of basis function: 1898
    Number of Cartesian functions: 2399
    Spherical Harmonics?: true
    Max angular momentum: 4

	 --------------------------------------------------------
	                 NBF =   851, NAUX =  1898
	 --------------------------------------------------------
	   CLASS    FOCC     OCC    AOCC    AVIR     VIR    FVIR
	   PAIRS       0      49      49     802     802       0
	 --------------------------------------------------------


         ------------------------------------------------------------
                                     CPHF                           
                                  Rob Parrish                       
         ------------------------------------------------------------

  ==> Geometry <==

    Molecular point group: c1
    Full point group: C1

    Geometry (in Angstrom), charge = 1, multiplicity = 1:

       Center              X                  Y                   Z               Mass       
    ------------   -----------------  -----------------  -----------------  -----------------
           C         -1.337866873723     0.764148144981    -0.788141466086    12.000000000000
           C         -2.415866873723     1.337148144981    -0.115141466086    12.000000000000
           C          1.022133126277    -0.139851855019    -2.117141466086    12.000000000000
           C          1.683133126277    -1.281851855019    -0.102141466086    12.000000000000
           C         -1.422866873723     0.721148144981     1.999858533914    12.000000000000
           C          2.100133126277    -0.723851855019    -2.766141466086    12.000000000000
           C          2.745133126277    -1.836851855019    -0.802141466086    12.000000000000
           C         -0.301866873723     0.169148144981    -0.068141466086    12.000000000000
           C          0.815133126277    -0.424851855019    -0.771141466086    12.000000000000
           C         -2.458866873723     1.316148144981     1.278858533914    12.000000000000
           C         -0.344866873723     0.148148144981     1.325858533914    12.000000000000
           N          2.921133126277    -1.545851855019    -2.098141466086    14.003074004780
           O         -3.511866873723     1.876148144981     1.935858533914    15.994914619560
           F          0.643133126277    -0.419851855019     2.032858533914    18.998403224000
           H         -1.318866873723     0.788148144981    -1.875141466086     1.007825032070
           H         -3.220866873723     1.798148144981    -0.682141466086     1.007825032070
           H          0.360133126277     0.526148144981    -2.664141466086     1.007825032070
           H          1.546133126277    -1.521851855019     0.947858533914     1.007825032070
           H         -1.450866873723     0.701148144981     3.085858533914     1.007825032070
           H          2.338133126277    -0.558851855019    -3.808141466086     1.007825032070
           H          3.468133126277    -2.511851855019    -0.364141466086     1.007825032070
           H          3.707133126277    -1.964851855019    -2.593141466086     1.007825032070
           H         -3.397866873723     1.782148144981     2.894858533914     1.007825032070

  Nuclear repulsion =  833.090393783842387
  Reference energy  = -650.553290669207399

  ==> Basis Set <==

  Basis Set: AUG-CC-PVTZ
    Blend: AUG-CC-PVTZ
    Number of shells: 277
    Number of basis function: 851
    Number of Cartesian functions: 995
    Spherical Harmonics?: true
    Max angular momentum: 3

  ==> CGRSolver (by Rob Parrish) <==

   Number of roots    =         1
   Preconditioning    =    JACOBI
   Convergence cutoff =     1E-06
   Maximum iterations =       100

  ==> CPHFRHamiltonian (by Rob Parrish) <== 

  ==> DFJK: Density-Fitted J/K Matrices <==

    J tasked:                  Yes
    K tasked:                  Yes
    wK tasked:                  No
    OpenMP threads:              8
    Integrals threads:           8
    Memory (MB):              3576
    Algorithm:                Disk
    Integral Cache:           NONE
    Schwarz Cutoff:          1E-12
    Fitting Condition:       1E-12

   => Auxiliary Basis Set <=

  Basis Set: (AUG-CC-PVTZ AUX)
    Blend: AUG-CC-PVTZ-JKFIT
    Number of shells: 546
    Number of basis function: 1870
    Number of Cartesian functions: 2329
    Spherical Harmonics?: true
    Max angular momentum: 4

  ==> CPHF Iterations <==

  => Iterations <=

             Iter  Converged  Remaining    Residual
  CGR           1          0          1   1.273E-01
  CGR           2          0          1   5.113E-02
  CGR           3          0          1   3.007E-02
  CGR           4          0          1   1.002E-02
  CGR           5          0          1   4.678E-03
  CGR           6          0          1   2.080E-03
  CGR           7          0          1   6.594E-04
  CGR           8          0          1   2.887E-04
  CGR           9          0          1   1.270E-04
  CGR          10          0          1   4.625E-05
  CGR          11          0          1   1.823E-05
  CGR          12          0          1   5.934E-06
  CGR          13          0          1   2.041E-06
  CGR          14          1          0   6.667E-07

    CGRSolver converged.

  ==> DFCorrGrad: Density-Fitted Correlated Gradients <==

    OpenMP threads:              8
    Integrals threads:           8
    Memory (MB):              3576
    Schwarz Cutoff:          0E+00
    Fitting Condition:       1E-12

   => Auxiliary Basis Set <=

  Basis Set: (AUG-CC-PVTZ AUX)
    Blend: AUG-CC-PVTZ-JKFIT
    Number of shells: 546
    Number of basis function: 1870
    Number of Cartesian functions: 2329
    Spherical Harmonics?: true
    Max angular momentum: 4

	-----------------------------------------------------------
	 ==================> DF-MP2 Energies <==================== 
	-----------------------------------------------------------
	 Reference Energy          =    -650.5532906692073993 [Eh]
	 Singles Energy            =      -0.0000000000000001 [Eh]
	 Same-Spin Energy          =      -0.6709027692066855 [Eh]
	 Opposite-Spin Energy      =      -2.0164240498425987 [Eh]
	 Correlation Energy        =      -2.6873268190492841 [Eh]
	 Total Energy              =    -653.2406174882567029 [Eh]
	-----------------------------------------------------------
	 ================> DF-SCS-MP2 Energies <================== 
	-----------------------------------------------------------
	 SCS Same-Spin Scale       =       0.3333333333333333 [-]
	 SCS Opposite-Spin Scale   =       1.2000000000000000 [-]
	 SCS Same-Spin Energy      =      -0.2236342564022285 [Eh]
	 SCS Opposite-Spin Energy  =      -2.4197088598111183 [Eh]
	 SCS Correlation Energy    =      -2.6433431162133467 [Eh]
	 SCS Total Energy          =    -653.1966337854207723 [Eh]
	-----------------------------------------------------------


  -Total Gradient:
     Atom            X                  Y                   Z
    ------   -----------------  -----------------  -----------------
       1        0.016203314216    -0.010808903134    -0.014474400926
       2       -0.000238581665    -0.000006429162     0.012061806621
       3       -0.015903663023     0.008887528383     0.013404868015
       4       -0.023707123080     0.016329983423     0.010055167235
       5       -0.013442972973     0.007000091952     0.000861282840
       6        0.010690084535    -0.008973464583     0.005143670920
       7        0.004301790477     0.000736233085    -0.011038901073
       8       -0.015203633127     0.008127251816     0.006038516580
       9        0.014486278386    -0.008302485107    -0.010391140916
      10        0.001382739637    -0.000637965153    -0.014420801955
      11        0.030225370956    -0.013586154469    -0.001814553849
      12       -0.002569248844     0.001191961630     0.000693885422
      13       -0.008709181525     0.004628369801     0.009742699304
      14        0.009025334170    -0.010326472196    -0.011865232484
      15        0.002765604120     0.000708752676    -0.008782519541
      16       -0.003339111018     0.002261179697    -0.005281012805
      17       -0.008402521581     0.004773309447    -0.002071726722
      18       -0.005499520058     0.002887135680     0.015939058445
      19       -0.001534472963     0.000523176890     0.004653935422
      20        0.001826530651    -0.000601888820    -0.002544303643
      21        0.002879350302    -0.001663790745    -0.000070542639
      22        0.004705556107    -0.002842375972    -0.002810278108
      23        0.000058076288    -0.000305045127     0.006970523880


*** tstop() called on gpu-1-14.local at Sat Nov 11 19:08:43 2017
Module time:
	user time   =    7425.09 seconds =     123.75 minutes
	system time =     125.70 seconds =       2.10 minutes
	total time  =       3142 seconds =      52.37 minutes
Total time:
	user time   =    7425.10 seconds =     123.75 minutes
	system time =     125.70 seconds =       2.10 minutes
	total time  =       3142 seconds =      52.37 minutes

			-----------------------------------------
			 OPTKING 2.0: for geometry optimizations 
			  - R.A. King,  Bethel University        
			-----------------------------------------

	Internal coordinates to be generated automatically.
	Detected frag 1 with atoms:  1 2 3 4 5 6 7 8 9 10 11 12 13 14 15 16 17 18 19 20
	 21 22 23
	---Fragment 1 Bond Connectivity---
	 1 : 2 8 15
	 2 : 1 10 16
	 3 : 6 9 17
	 4 : 7 9 18
	 5 : 10 11 19
	 6 : 3 12 20
	 7 : 4 12 21
	 8 : 1 9 11
	 9 : 3 4 8
	 10 : 2 5 13
	 11 : 5 8 14
	 12 : 6 7 22
	 13 : 10 23
	 14 : 11
	 15 : 1
	 16 : 2
	 17 : 3
	 18 : 4
	 19 : 5
	 20 : 6
	 21 : 7
	 22 : 12
	 23 : 13

	Assuming in current code that numbering for constraints corresponds to unified fragment.
	Fixed dihedral atom list: 
	     1     8     9     3
	---Fragment 1 Geometry and Gradient---
	 C          -2.5282019936        1.4440307190       -1.4893715249
	 C          -4.5653267648        2.5268437931       -0.2175858374
	 C           1.9315516800       -0.2642817052       -4.0008175555
	 C           3.1806606539       -2.4223489489       -0.1930193977
	 C          -2.6888287149        1.3627724953        3.7791849336
	 C           3.9686764513       -1.3678817668       -5.2272498157
	 C           5.1875498070       -3.4711469527       -1.5158276907
	 C          -0.5704457199        0.3196436699       -0.1287687092
	 C           1.5403783705       -0.8028536530       -1.4572461806
	 C          -4.6465849886        2.4871595443        2.4166923918
	 C          -0.6517039436        0.2799594211        2.5055095200
	 N           5.5201416064       -2.9212366480       -3.9649127590
	 O          -6.6364666065        3.5454061787        3.6582424611
	 F           1.2153454757       -0.7934050224        3.8415458960
	 H          -2.4922971971        1.4893841462       -3.5435038313
	 H          -6.0865563018        3.3980075404       -1.2890605548
	 H           0.6805529800        0.9942758993       -5.0344977502
	 H           2.9217681736       -2.8758832208        1.7911930418
	 H          -2.7417410466        1.3249779726        5.8314275139
	 H           4.4184312709       -1.0560769548       -7.1963444462
	 H           6.5538218011       -4.7467120924       -0.6881276445
	 H           7.0054663468       -3.7130318977       -4.9003271947
	 H          -6.4210378273        3.3677719222        5.4704898225
	             0.0162033142       -0.0108089031       -0.0144744009
	            -0.0002385817       -0.0000064292        0.0120618066
	            -0.0159036630        0.0088875284        0.0134048680
	            -0.0237071231        0.0163299834        0.0100551672
	            -0.0134429730        0.0070000920        0.0008612828
	             0.0106900845       -0.0089734646        0.0051436709
	             0.0043017905        0.0007362331       -0.0110389011
	            -0.0152036331        0.0081272518        0.0060385166
	             0.0144862784       -0.0083024851       -0.0103911409
	             0.0013827396       -0.0006379652       -0.0144208020
	             0.0302253710       -0.0135861545       -0.0018145538
	            -0.0025692488        0.0011919616        0.0006938854
	            -0.0087091815        0.0046283698        0.0097426993
	             0.0090253342       -0.0103264722       -0.0118652325
	             0.0027656041        0.0007087527       -0.0087825195
	            -0.0033391110        0.0022611797       -0.0052810128
	            -0.0084025216        0.0047733094       -0.0020717267
	            -0.0054995201        0.0028871357        0.0159390584
	            -0.0015344730        0.0005231769        0.0046539354
	             0.0018265307       -0.0006018888       -0.0025443036
	             0.0028793503       -0.0016637907       -0.0000705426
	             0.0047055561       -0.0028423760       -0.0028102781
	             0.0000580763       -0.0003050451        0.0069705239

	Previous optimization step data not found.  Starting new optimization.

	---Fragment 1 Intrafragment Coordinates---
	 - Coordinate -           - BOHR/RAD -       - ANG/DEG -
	 R(1,2)           =         2.634350	       1.394038
	 R(1,8)           =         2.635962	       1.394891
	 R(1,15)          =         2.054947	       1.087431
	 R(2,10)          =         2.635830	       1.394821
	 R(2,16)          =         2.054537	       1.087214
	 R(3,6)           =         2.621440	       1.387206
	 R(3,9)           =         2.629226	       1.391327
	 R(3,17)          =         2.053645	       1.086742
	 R(4,7)           =         2.622480	       1.387757
	 R(4,9)           =         2.628985	       1.391199
	 R(4,18)          =         2.051784	       1.085757
	 R(5,10)          =         2.636938	       1.395407
	 R(5,11)          =         2.635263	       1.394521
	 R(5,19)          =         2.053272	       1.086545
	 R(6,12)          =         2.532479	       1.340130
	 R(6,20)          =         2.043731	       1.081496
	 R(7,12)          =         2.532002	       1.339878
	 R(7,21)          =         2.044224	       1.081757
	 R(8,9)           =         2.735038	       1.447320
	 R(8,11)          =         2.635830	       1.394821
	 R(10,13)         =         2.573123	       1.361638
	 R(11,14)         =         2.534359	       1.341125
	 R(12,22)         =         1.925650	       1.019010
	 R(13,23)         =         1.833631	       0.970316
	 B(1,2,10)        =         2.094553	     120.009056
	 B(1,2,16)        =         2.088723	     119.675016
	 B(1,8,9)         =         2.091569	     119.838095
	 B(1,8,11)        =         2.093692	     119.959722
	 B(2,1,8)         =         2.094940	     120.031219
	 B(2,1,15)        =         2.079469	     119.144799
	 B(2,10,5)        =         2.094306	     119.994870
	 B(2,10,13)       =         2.094247	     119.991510
	 B(3,6,12)        =         2.095660	     120.072467
	 B(3,6,20)        =         2.162223	     123.886229
	 B(3,9,4)         =         2.092748	     119.905605
	 B(3,9,8)         =         2.095152	     120.043371
	 B(4,7,12)        =         2.096194	     120.103045
	 B(4,7,21)        =         2.161304	     123.833598
	 B(4,9,8)         =         2.095286	     120.051021
	 B(5,10,13)       =         2.094633	     120.013619
	 B(5,11,8)        =         2.095181	     120.045019
	 B(5,11,14)       =         2.081414	     119.256220
	 B(6,3,9)         =         2.073716	     118.815176
	 B(6,3,17)        =         2.089660	     119.728678
	 B(6,12,7)        =         2.135160	     122.335683
	 B(6,12,22)       =         2.074436	     118.856419
	 B(7,4,9)         =         2.072893	     118.768015
	 B(7,4,18)        =         2.089735	     119.732976
	 B(7,12,22)       =         2.073589	     118.807896
	 B(8,1,15)        =         2.108776	     120.823969
	 B(8,11,14)       =         2.106591	     120.698759
	 B(9,3,17)        =         2.119810	     121.456146
	 B(9,4,18)        =         2.120558	     121.499007
	 B(9,8,11)        =         2.097924	     120.202184
	 B(10,2,16)       =         2.099909	     120.315896
	 B(10,5,11)       =         2.093699	     119.960108
	 B(10,5,19)       =         2.100355	     120.341451
	 B(10,13,23)      =         1.924294	     110.253909
	 B(11,5,19)       =         2.089132	     119.698439
	 B(12,6,20)       =         2.025301	     116.041217
	 B(12,7,21)       =         2.025688	     116.063355
	 D(1,2,10,5)      =        -0.000325	      -0.018609
	 D(1,2,10,13)     =         3.141388	     179.988267
	 D(1,8,9,3)       =         0.261668	      14.992489
	 D(1,8,9,4)       =        -2.879617	    -164.989881
	 D(1,8,11,5)      =         0.000325	       0.018608
	 D(1,8,11,14)     =        -3.141528	    -179.996269
	 D(2,1,8,9)       =         3.141277	     179.981897
	 D(2,1,8,11)      =        -0.000348	      -0.019945
	 D(2,10,5,11)     =         0.000301	       0.017261
	 D(2,10,5,19)     =        -3.141029	    -179.967685
	 D(2,10,13,23)    =         3.141285	     179.982383
	 D(3,6,12,7)      =         0.000074	       0.004226
	 D(3,6,12,22)     =         3.141363	     179.986834
	 D(3,9,4,7)       =        -0.000035	      -0.002001
	 D(3,9,4,18)      =         3.141289	     179.982594
	 D(3,9,8,11)      =        -2.879892	    -165.005665
	 D(4,7,12,6)      =         0.000348	       0.019945
	 D(4,7,12,22)     =        -3.140941	    -179.962671
	 D(4,9,3,6)       =         0.000441	       0.025267
	 D(4,9,3,17)      =        -3.141226	    -179.978979
	 D(4,9,8,11)      =         0.262008	      15.011965
	 D(5,10,2,16)     =         3.140149	     179.917291
	 D(5,10,13,23)    =        -0.000187	      -0.010740
	 D(5,11,8,9)      =        -3.141300	    -179.983240
	 D(6,3,9,8)       =        -3.140844	    -179.957129
	 D(6,12,7,21)     =        -3.141512	    -179.995406
	 D(7,4,9,8)       =         3.141250	     179.980394
	 D(7,12,6,20)     =         3.139864	     179.900980
	 D(8,1,2,10)      =         0.000348	       0.019955
	 D(8,1,2,16)      =        -3.140133	    -179.916358
	 D(8,9,3,17)      =         0.000674	       0.038626
	 D(8,9,4,18)      =        -0.000611	      -0.035012
	 D(8,11,5,10)     =        -0.000301	      -0.017270
	 D(8,11,5,19)     =         3.141030	     179.967774
	 D(9,3,6,12)      =        -0.000467	      -0.026744
	 D(9,3,6,20)      =        -3.140109	    -179.915000
	 D(9,4,7,12)      =        -0.000361	      -0.020667
	 D(9,4,7,21)      =         3.141522	     179.995934
	 D(9,8,1,15)      =         0.000403	       0.023110
	 D(9,8,11,14)     =         0.000033	       0.001883
	 D(10,2,1,15)     =         3.141234	     179.979432
	 D(10,5,11,14)    =         3.141547	     179.997392
	 D(11,5,10,13)    =        -3.141411	    -179.989616
	 D(11,8,1,15)     =        -3.141221	    -179.978731
	 D(12,6,3,17)     =         3.141199	     179.977427
	 D(12,7,4,18)     =         3.141496	     179.994460
	 D(13,10,2,16)    =        -0.001324	      -0.075833
	 D(13,10,5,19)    =         0.000444	       0.025437
	 D(14,11,5,19)    =        -0.000307	      -0.017564
	 D(15,1,2,16)     =         0.000753	       0.043120
	 D(17,3,6,20)     =         0.001556	       0.089171
	 D(18,4,7,21)     =         0.000193	       0.011062
	 D(20,6,12,22)    =        -0.002032	      -0.116412
	 D(21,7,12,22)    =         0.000384	       0.021978
	 R(4,14)          =         4.774268	       2.526434

	Current energy   :      -653.2406174883

	Generating empirical Hessian (Schlegel '84) for each fragment.
	Adding user-defined constraint: Fragment 1; Coordinate 64:
		Value =     0.261668; Fixed value    =     0.261799
		Force =     0.000066; Force constant =     0.500000
	Removing off-diagonal coupling between coordinate 64 and others.
	Taking RFO optimization step.
	Going to follow RFO solution 1.
	Using RFO vector 1.

	Determining step-restricting scale parameter for RS-RFO.
	Maximum step size allowed    0.10000

	 Iter      |step|        alpha        rfo_root  
	------------------------------------------------
	    0     0.40903       1.00000           1
	    1     0.27090       3.86123           1
	    2     0.18771      11.13536           1
	    3     0.13834      25.76007           1
	    4     0.11198      44.88976           1
	    5     0.10179      57.24992           1
	    6     0.10005      59.79798           1
	    7     0.10000      59.87464           1
	------------------------------------------------
	Norm of target step-size    0.10000
	Projected energy change by RFO approximation:        -0.0063378281

	Back-transformation to cartesian coordinates...
	Could not converge backtransformation.
	Using first guess instead.

	--- Internal Coordinate Step in ANG or DEG, aJ/ANG or AJ/DEG ---
	 ---------------------------------------------------------------------------
	   Coordinate                Previous        Force       Change         New 
	   ----------                --------       ------       ------       ------
	    1 R(1,2)          =      1.394038    -0.116910    -0.008762     1.385276
	    2 R(1,8)          =      1.394891     0.043736     0.003580     1.398471
	    3 R(1,15)         =      1.087431    -0.072854    -0.006216     1.081215
	    4 R(2,10)         =      1.394821    -0.051602    -0.003995     1.390826
	    5 R(2,16)         =      1.087214    -0.050958    -0.004376     1.082839
	    6 R(3,6)          =      1.387206    -0.123894    -0.009207     1.377999
	    7 R(3,9)          =      1.391327     0.090328     0.006981     1.398307
	    8 R(3,17)         =      1.086742    -0.074863    -0.006410     1.080332
	    9 R(4,7)          =      1.387757    -0.100740    -0.007400     1.380356
	   10 R(4,9)          =      1.391199     0.119489     0.009209     1.400408
	   11 R(4,18)         =      1.085757    -0.127451    -0.010802     1.074956
	   12 R(5,10)         =      1.395407    -0.039729    -0.003108     1.392300
	   13 R(5,11)         =      1.394521    -0.151184    -0.011269     1.383253
	   14 R(5,19)         =      1.086545    -0.038571    -0.003276     1.083269
	   15 R(6,12)         =      1.340130     0.007829     0.000333     1.340463
	   16 R(6,20)         =      1.081496    -0.022752    -0.001934     1.079562
	   17 R(7,12)         =      1.339878     0.011870     0.000659     1.340537
	   18 R(7,21)         =      1.081757    -0.024172    -0.002068     1.079689
	   19 R(8,9)          =      1.447320     0.082230     0.007145     1.454464
	   20 R(8,11)         =      1.394821    -0.029184    -0.001667     1.393154
	   21 R(10,13)        =      1.361638    -0.136206    -0.009389     1.352249
	   22 R(11,14)        =      1.341125    -0.038927    -0.002582     1.338543
	   23 R(12,22)        =      1.019010    -0.050779    -0.003901     1.015109
	   24 R(13,23)        =      0.970316    -0.057061    -0.003892     0.966424
	   25 B(1,2,10)       =    120.009056    -0.000105    -0.134834   119.874222
	   26 B(1,2,16)       =    119.675016     0.000241     0.326591   120.001608
	   27 B(1,8,9)        =    119.838095     0.001051     1.139323   120.977418
	   28 B(1,8,11)       =    119.959722    -0.001278    -1.509052   118.450670
	   29 B(2,1,8)        =    120.031219     0.000592     0.763355   120.794574
	   30 B(2,1,15)       =    119.144799    -0.000455    -0.604532   118.540267
	   31 B(2,10,5)       =    119.994870     0.000041     0.023979   120.018849
	   32 B(2,10,13)      =    119.991510    -0.000938    -1.096544   118.894967
	   33 B(3,6,12)       =    120.072467    -0.000179    -0.267076   119.805391
	   34 B(3,6,20)       =    123.886229    -0.000034    -0.035653   123.850576
	   35 B(3,9,4)        =    119.905605    -0.001041    -1.206279   118.699326
	   36 B(3,9,8)        =    120.043371     0.000389     0.386718   120.430090
	   37 B(4,7,12)       =    120.103045     0.000011    -0.004570   120.098475
	   38 B(4,7,21)       =    123.833598    -0.000124    -0.161098   123.672501
	   39 B(4,9,8)        =    120.051021     0.000652     0.819460   120.870481
	   40 B(5,10,13)      =    120.013619     0.000897     1.072564   121.086183
	   41 B(5,11,8)       =    120.045019     0.001026     1.204872   121.249891
	   42 B(5,11,14)      =    119.256220    -0.000332    -0.455071   118.801150
	   43 B(6,3,9)        =    118.815176     0.000695     0.867893   119.683068
	   44 B(6,3,17)       =    119.728678    -0.000623    -0.817051   118.911627
	   45 B(6,12,7)       =    122.335683     0.000165     0.145853   122.481536
	   46 B(6,12,22)      =    118.856419    -0.000104    -0.101970   118.754448
	   47 B(7,4,9)        =    118.768015     0.000349     0.464157   119.232172
	   48 B(7,4,18)       =    119.732976    -0.000690    -0.948777   118.784199
	   49 B(7,12,22)      =    118.807896    -0.000062    -0.043903   118.763993
	   50 B(8,1,15)       =    120.823969    -0.000137    -0.159132   120.664837
	   51 B(8,11,14)      =    120.698759    -0.000694    -0.750237   119.948522
	   52 B(9,3,17)       =    121.456146    -0.000072    -0.050994   121.405152
	   53 B(9,4,18)       =    121.499007     0.000341     0.484292   121.983299
	   54 B(9,8,11)       =    120.202184     0.000228     0.369615   120.571798
	   55 B(10,2,16)      =    120.315896    -0.000137    -0.191756   120.124141
	   56 B(10,5,11)      =    119.960108    -0.000276    -0.348413   119.611696
	   57 B(10,5,19)      =    120.341451     0.000258     0.337059   120.678510
	   58 B(10,13,23)     =    110.253909    -0.000118    -0.164779   110.089129
	   59 B(11,5,19)      =    119.698439     0.000018     0.011353   119.709792
	   60 B(12,6,20)      =    116.041217     0.000214     0.302691   116.343907
	   61 B(12,7,21)      =    116.063355     0.000114     0.165647   116.229002
	   62 D(1,2,10,5)     =     -0.018609    -0.000003    -0.017613    -0.036222
	   63 D(1,2,10,13)    =    179.988267    -0.000004    -0.037654   179.950613
	   64 D(1,8,9,3)      =     14.992489     0.000028     0.158348    15.150837
	   65 D(1,8,9,4)      =   -164.989881     0.000036     0.259069  -164.730812
	   66 D(1,8,11,5)     =      0.018608     0.000001     0.025454     0.044061
	   67 D(1,8,11,14)    =   -179.996269     0.000033     0.283946  -179.712323
	   68 D(2,1,8,9)      =    179.981897     0.000002     0.028212   180.010109
	   69 D(2,1,8,11)     =     -0.019945    -0.000010    -0.092068    -0.112012
	   70 D(2,10,5,11)    =      0.017261    -0.000006    -0.048145    -0.030884
	   71 D(2,10,5,19)    =   -179.967685    -0.000009    -0.080088  -180.047773
	   72 D(2,10,13,23)   =    179.982383     0.000001     0.014494   179.996877
	   73 D(3,6,12,7)     =      0.004226     0.000003     0.026945     0.031171
	   74 D(3,6,12,22)    =    179.986834    -0.000001    -0.010965   179.975869
	   75 D(3,9,4,7)      =     -0.002001     0.000003     0.042578     0.040577
	   76 D(3,9,4,18)     =    179.982594     0.000031     0.269525   180.252119
	   77 D(3,9,8,11)     =   -165.005665     0.000039     0.281210  -164.724455
	   78 D(4,7,12,6)     =      0.019945    -0.000008    -0.066911    -0.046966
	   79 D(4,7,12,22)    =   -179.962671    -0.000004    -0.028988  -179.991659
	   80 D(4,9,3,6)      =      0.025267    -0.000008    -0.081301    -0.056033
	   81 D(4,9,3,17)     =   -179.978979     0.000010     0.066435  -179.912544
	   82 D(4,9,8,11)     =     15.011965     0.000047     0.381930    15.393895
	   83 D(5,10,2,16)    =    179.917291    -0.000003    -0.015834   179.901458
	   84 D(5,10,13,23)   =     -0.010740    -0.000000    -0.005694    -0.016434
	   85 D(5,11,8,9)     =   -179.983240    -0.000010    -0.094305  -180.077546
	   86 D(6,3,9,8)      =   -179.957129    -0.000000     0.016906  -179.940222
	   87 D(6,12,7,21)    =   -179.995406    -0.000012    -0.104446  -180.099852
	   88 D(7,4,9,8)      =    179.980394    -0.000004    -0.056156   179.924237
	   89 D(7,12,6,20)    =    179.900980     0.000000     0.006213   179.907194
	   90 D(8,1,2,10)     =      0.019955     0.000010     0.088962     0.108917
	   91 D(8,1,2,16)     =   -179.916358     0.000010     0.087518  -179.828840
	   92 D(8,9,3,17)     =      0.038626     0.000018     0.164642     0.203267
	   93 D(8,9,4,18)     =     -0.035012     0.000024     0.170791     0.135779
	   94 D(8,11,5,10)    =     -0.017270     0.000006     0.043760     0.026490
	   95 D(8,11,5,19)    =    179.967774     0.000010     0.075440   180.043214
	   96 D(9,3,6,12)     =     -0.026744     0.000005     0.048127     0.021383
	   97 D(9,3,6,20)     =   -179.915000     0.000008     0.070161  -179.844839
	   98 D(9,4,7,12)     =     -0.020667     0.000005     0.030373     0.009706
	   99 D(9,4,7,21)     =    179.995934     0.000009     0.070776   180.066711
	  100 D(9,8,1,15)     =      0.023110     0.000022     0.196320     0.219430
	  101 D(9,8,11,14)    =      0.001883     0.000022     0.164187     0.166070
	  102 D(10,2,1,15)    =    179.979432    -0.000010    -0.075473   179.903960
	  103 D(10,5,11,14)   =    179.997392    -0.000025    -0.211787   179.785605
	  104 D(11,5,10,13)   =   -179.989616    -0.000004    -0.027808  -180.017424
	  105 D(11,8,1,15)    =   -179.978731     0.000011     0.076040  -179.902691
	  106 D(12,6,3,17)    =    179.977427    -0.000013    -0.095950   179.881476
	  107 D(12,7,4,18)    =    179.994460    -0.000023    -0.189481   179.804980
	  108 D(13,10,2,16)   =     -0.075833    -0.000004    -0.035875    -0.111708
	  109 D(13,10,5,19)   =      0.025437    -0.000008    -0.059751    -0.034313
	  110 D(14,11,5,19)   =     -0.017564    -0.000022    -0.180107    -0.197671
	  111 D(15,1,2,16)    =      0.043120    -0.000010    -0.076916    -0.033797
	  112 D(17,3,6,20)    =      0.089171    -0.000010    -0.073917     0.015255
	  113 D(18,4,7,21)    =      0.011062    -0.000018    -0.149077    -0.138016
	  114 D(20,6,12,22)   =     -0.116412    -0.000004    -0.031697    -0.148108
	  115 D(21,7,12,22)   =      0.021978    -0.000008    -0.066523    -0.044545
	  116 R(4,14)         =      2.526434     0.154755     0.022927     2.549361
	 ---------------------------------------------------------------------------
	Successfully symmetrized geometry.
	 Forces used to impose fixed constraints are not included.
	  Forces zeroed: 64 

  ==> Convergence Check <==

  Measures of convergence in internal coordinates in au.
  Criteria marked as inactive (o), active & met (*), and active & unmet ( ).
  --------------------------------------------------------------------------------------------- ~
   Step     Total Energy     Delta E     MAX Force     RMS Force      MAX Disp      RMS Disp    ~
  --------------------------------------------------------------------------------------------- ~
    Convergence Criteria    1.00e-06 *    3.00e-04 *             o    1.20e-03 *             o  ~
  --------------------------------------------------------------------------------------------- ~
      1    -653.24061749   -6.53e+02      1.88e-02      6.22e-03 o    4.33e-02      9.30e-03 o  ~
  ---------------------------------------------------------------------------------------------

	Writing optimization data to binary file.
	Structure for next step:
	Cartesian Geometry (in Angstrom)
	    C    -1.3571611854   0.7704365357  -0.7723010455
	    C    -2.4272664984   1.3392994046  -0.1012874039
	    C     1.0399842183  -0.1482483633  -2.1209862604
	    C     1.6966742403  -1.2945990115  -0.1080903475
	    C    -1.4258411991   0.7262091865   2.0038763075
	    C     2.1104236469  -0.7244900657  -2.7698217023
	    C     2.7529332632  -1.8446330683  -0.8060611812
	    C    -0.3081010960   0.1703694917  -0.0686582530
	    C     0.8174678181  -0.4278923098  -0.7691176401
	    C    -2.4633774738   1.3185328836   1.2889147461
	    C    -0.3629625562   0.1599962560   1.3233769178
	    N     2.9297133651  -1.5484434778  -2.1014606216
	    O    -3.5168886778   1.8804954258   1.9236514913
	    F     0.6278130450  -0.4012190167   2.0270092749
	    H    -1.3519108741   0.7973169491  -1.8531687817
	    H    -3.2340512717   1.7981027324  -0.6590841688
	    H     0.3900755858   0.5150610893  -2.6730347607
	    H     1.5730337943  -1.5490507343   0.9289713025
	    H    -1.4426694747   0.7046958565   3.0868006421
	    H     2.3461897950  -0.5539802840  -3.8094344643
	    H     3.4720802238  -2.5208742827  -0.3687352227
	    H     3.7130800371  -1.9644255612  -2.5951637941
	    H    -3.4121768215   1.7947476986   2.8805512454
			--------------------------
			 OPTKING Finished Execution 
			--------------------------

    Structure for next step:
    Molecular point group: c1
    Full point group: C1

    Geometry (in Angstrom), charge = 1, multiplicity = 1:

    C           -1.355283442210     0.768718281141    -0.772026885624
    C           -2.425388755225     1.337581150001    -0.101013244029
    C            1.041861961511    -0.149966617843    -2.120712100524
    C            1.698551983502    -1.296317266068    -0.107816187674
    C           -1.423963455898     0.724490931889     2.004150467372
    C            2.112301390052    -0.726208320309    -2.769547542453
    C            2.754811006421    -1.846351322914    -0.805787021300
    C           -0.306223352765     0.168651237080    -0.068384093112
    C            0.819345561335    -0.429610564440    -0.768843480266
    C           -2.461499730663     1.316814629019     1.289188906011
    C           -0.361084812975     0.158278001416     1.323651077642
    N            2.931591108252    -1.550161732418    -2.101186461763
    O           -3.515010934657     1.878777171218     1.923925651215
    F            0.629690788206    -0.402937271263     2.027283434795
    H           -1.350033130907     0.795598694559    -1.852894621828
    H           -3.232173528547     1.796384477856    -0.658810008889
    H            0.391953329001     0.513342834749    -2.672760600854
    H            1.574911537481    -1.550768988890     0.929245462386
    H           -1.440791731555     0.702977601871     3.087074802016
    H            2.348067538210    -0.555698538544    -3.809160304402
    H            3.473957967018    -2.522592537339    -0.368461062812
    H            3.714957780314    -1.966143815797    -2.594889634231
    H           -3.410299078267     1.793029444031     2.880825405278

gradient() will perform analytic gradient computation.

*** tstart() called on gpu-1-14.local
*** at Sat Nov 11 19:08:45 2017

    SCF Algorithm Type (re)set to DF.

*** tstart() called on gpu-1-14.local
*** at Sat Nov 11 19:08:45 2017

   => Loading Basis Set <=

    Name: AUG-CC-PVTZ
    Role: ORBITAL
    Keyword: BASIS
    atoms 1-11  entry C          line   221 file /cbio/jclab/home/chayas/anaconda/envs/py35/share/psi4/basis/aug-cc-pvtz.gbs 
    atoms 12    entry N          line   267 file /cbio/jclab/home/chayas/anaconda/envs/py35/share/psi4/basis/aug-cc-pvtz.gbs 
    atoms 13    entry O          line   313 file /cbio/jclab/home/chayas/anaconda/envs/py35/share/psi4/basis/aug-cc-pvtz.gbs 
    atoms 14    entry F          line   359 file /cbio/jclab/home/chayas/anaconda/envs/py35/share/psi4/basis/aug-cc-pvtz.gbs 
    atoms 15-23 entry H          line    34 file /cbio/jclab/home/chayas/anaconda/envs/py35/share/psi4/basis/aug-cc-pvtz.gbs 


         ---------------------------------------------------------
                                   SCF
            by Justin Turney, Rob Parrish, and Andy Simmonett
                              RHF Reference
                        8 Threads,   4768 MiB Core
         ---------------------------------------------------------

  ==> Geometry <==

    Molecular point group: c1
    Full point group: C1

    Geometry (in Angstrom), charge = 1, multiplicity = 1:

       Center              X                  Y                   Z               Mass       
    ------------   -----------------  -----------------  -----------------  -----------------
           C         -1.355283442210     0.768718281141    -0.772026885624    12.000000000000
           C         -2.425388755225     1.337581150001    -0.101013244029    12.000000000000
           C          1.041861961511    -0.149966617843    -2.120712100524    12.000000000000
           C          1.698551983502    -1.296317266068    -0.107816187674    12.000000000000
           C         -1.423963455898     0.724490931889     2.004150467372    12.000000000000
           C          2.112301390052    -0.726208320309    -2.769547542453    12.000000000000
           C          2.754811006421    -1.846351322914    -0.805787021300    12.000000000000
           C         -0.306223352765     0.168651237080    -0.068384093112    12.000000000000
           C          0.819345561335    -0.429610564440    -0.768843480266    12.000000000000
           C         -2.461499730663     1.316814629019     1.289188906011    12.000000000000
           C         -0.361084812975     0.158278001416     1.323651077642    12.000000000000
           N          2.931591108252    -1.550161732418    -2.101186461763    14.003074004780
           O         -3.515010934657     1.878777171218     1.923925651215    15.994914619560
           F          0.629690788206    -0.402937271263     2.027283434795    18.998403224000
           H         -1.350033130907     0.795598694559    -1.852894621828     1.007825032070
           H         -3.232173528547     1.796384477856    -0.658810008889     1.007825032070
           H          0.391953329001     0.513342834749    -2.672760600854     1.007825032070
           H          1.574911537481    -1.550768988890     0.929245462386     1.007825032070
           H         -1.440791731555     0.702977601871     3.087074802016     1.007825032070
           H          2.348067538210    -0.555698538544    -3.809160304402     1.007825032070
           H          3.473957967018    -2.522592537339    -0.368461062812     1.007825032070
           H          3.714957780314    -1.966143815797    -2.594889634231     1.007825032070
           H         -3.410299078267     1.793029444031     2.880825405278     1.007825032070

  Running in c1 symmetry.

  Rotational constants: A =      0.06339  B =      0.01332  C =      0.01107 [cm^-1]
  Rotational constants: A =   1900.25884  B =    399.41967  C =    331.84275 [MHz]
  Nuclear repulsion =  832.966737363625953

  Charge       = 1
  Multiplicity = 1
  Electrons    = 98
  Nalpha       = 49
  Nbeta        = 49

  ==> Algorithm <==

  SCF Algorithm Type is DF.
  DIIS enabled.
  MOM disabled.
  Fractional occupation disabled.
  Guess Type is READ.
  Energy threshold   = 1.00e-10
  Density threshold  = 1.00e-10
  Integral threshold = 0.00e+00

  ==> Primary Basis <==

  Basis Set: AUG-CC-PVTZ
    Blend: AUG-CC-PVTZ
    Number of shells: 277
    Number of basis function: 851
    Number of Cartesian functions: 995
    Spherical Harmonics?: true
    Max angular momentum: 3

   => Loading Basis Set <=

    Name: (AUG-CC-PVTZ AUX)
    Role: JKFIT
    Keyword: DF_BASIS_SCF
    atoms 1-11  entry C          line   161 file /cbio/jclab/home/chayas/anaconda/envs/py35/share/psi4/basis/aug-cc-pvtz-jkfit.gbs 
    atoms 12    entry N          line   223 file /cbio/jclab/home/chayas/anaconda/envs/py35/share/psi4/basis/aug-cc-pvtz-jkfit.gbs 
    atoms 13    entry O          line   285 file /cbio/jclab/home/chayas/anaconda/envs/py35/share/psi4/basis/aug-cc-pvtz-jkfit.gbs 
    atoms 14    entry F          line   347 file /cbio/jclab/home/chayas/anaconda/envs/py35/share/psi4/basis/aug-cc-pvtz-jkfit.gbs 
    atoms 15-23 entry H          line    69 file /cbio/jclab/home/chayas/anaconda/envs/py35/share/psi4/basis/aug-cc-pvtz-jkfit.gbs 

  Reading orbitals from file 180, no projection.

  ==> Pre-Iterations <==

   -------------------------------------------------------
    Irrep   Nso     Nmo     Nalpha   Nbeta   Ndocc  Nsocc
   -------------------------------------------------------
     A        851     851       0       0       0       0
   -------------------------------------------------------
    Total     851     851      49      49      49       0
   -------------------------------------------------------

  ==> Integral Setup <==

  ==> DFJK: Density-Fitted J/K Matrices <==

    J tasked:                  Yes
    K tasked:                  Yes
    wK tasked:                  No
    OpenMP threads:              8
    Integrals threads:           8
    Memory (MB):              3576
    Algorithm:                Disk
    Integral Cache:           NONE
    Schwarz Cutoff:          1E-12
    Fitting Condition:       1E-12

   => Auxiliary Basis Set <=

  Basis Set: (AUG-CC-PVTZ AUX)
    Blend: AUG-CC-PVTZ-JKFIT
    Number of shells: 546
    Number of basis function: 1870
    Number of Cartesian functions: 2329
    Spherical Harmonics?: true
    Max angular momentum: 4

  Minimum eigenvalue in the overlap matrix is 5.5844077271E-07.
  Using Symmetric Orthogonalization.

  SCF Guess: Orbitals guess was supplied from a previous computation.

  ==> Iterations <==

                           Total Energy        Delta E     RMS |[F,P]|

   @DF-RHF iter   0:  -650.67663717623134   -6.50677e+02   5.10825e-04 
   @DF-RHF iter   1:  -650.56070294675669    1.15934e-01   1.21890e-04 
   @DF-RHF iter   2:  -650.56118549739119   -4.82551e-04   8.67305e-05 DIIS
   @DF-RHF iter   3:  -650.56157073151871   -3.85234e-04   7.25849e-06 DIIS
   @DF-RHF iter   4:  -650.56157985129835   -9.11978e-06   3.71716e-06 DIIS
   @DF-RHF iter   5:  -650.56158228798256   -2.43668e-06   9.62273e-07 DIIS
   @DF-RHF iter   6:  -650.56158293912836   -6.51146e-07   6.99429e-07 DIIS
   @DF-RHF iter   7:  -650.56158320417012   -2.65042e-07   3.09492e-07 DIIS
   @DF-RHF iter   8:  -650.56158326849038   -6.43203e-08   9.19576e-08 DIIS
   @DF-RHF iter   9:  -650.56158327251728   -4.02690e-09   3.01725e-08 DIIS
   @DF-RHF iter  10:  -650.56158327274989   -2.32603e-10   1.74344e-08 DIIS
   @DF-RHF iter  11:  -650.56158327285357   -1.03682e-10   5.62802e-09 DIIS
   @DF-RHF iter  12:  -650.56158327288063   -2.70575e-11   2.66890e-09 DIIS
   @DF-RHF iter  13:  -650.56158327283072    4.99085e-11   1.20416e-09 DIIS
   @DF-RHF iter  14:  -650.56158327289734   -6.66205e-11   4.76425e-10 DIIS
   @DF-RHF iter  15:  -650.56158327283663    6.07088e-11   2.17552e-10 DIIS
   @DF-RHF iter  16:  -650.56158327282560    1.10276e-11   6.71130e-11 DIIS

  ==> Post-Iterations <==

    Orbital Energies (a.u.)
    -----------------------

    Doubly Occupied:                                                      

       1A    -26.456394     2A    -20.717225     3A    -15.827622  
       4A    -11.479428     5A    -11.479144     6A    -11.476792  
       7A    -11.451380     8A    -11.450376     9A    -11.412040  
      10A    -11.403110    11A    -11.391442    12A    -11.384118  
      13A    -11.366804    14A    -11.358377    15A     -1.780820  
      16A     -1.536264    17A     -1.506666    18A     -1.323612  
      19A     -1.274937    20A     -1.234846    21A     -1.168799  
      22A     -1.163619    23A     -1.067924    24A     -1.059768  
      25A     -1.000149    26A     -0.976381    27A     -0.957432  
      28A     -0.905452    29A     -0.878585    30A     -0.864587  
      31A     -0.852213    32A     -0.844376    33A     -0.828122  
      34A     -0.805719    35A     -0.781802    36A     -0.773353  
      37A     -0.771790    38A     -0.757015    39A     -0.724763  
      40A     -0.718576    41A     -0.709690    42A     -0.689077  
      43A     -0.658585    44A     -0.650660    45A     -0.644675  
      46A     -0.574202    47A     -0.534954    48A     -0.480199  
      49A     -0.447367  

    Virtual:                                                              

      50A     -0.107643    51A     -0.082184    52A     -0.061353  
      53A     -0.059037    54A     -0.056494    55A     -0.045423  
      56A     -0.044022    57A     -0.039381    58A     -0.031552  
      59A     -0.025434    60A     -0.021752    61A     -0.019730  
      62A     -0.013324    63A     -0.008572    64A     -0.007845  
      65A     -0.000402    66A      0.005461    67A      0.008301  
      68A      0.010368    69A      0.016283    70A      0.019171  
      71A      0.023159    72A      0.025294    73A      0.028577  
      74A      0.031789    75A      0.033630    76A      0.035217  
      77A      0.038552    78A      0.042277    79A      0.049794  
      80A      0.052975    81A      0.055406    82A      0.061346  
      83A      0.063376    84A      0.066725    85A      0.072686  
      86A      0.074675    87A      0.075636    88A      0.080964  
      89A      0.086088    90A      0.090663    91A      0.097168  
      92A      0.098488    93A      0.104166    94A      0.106970  
      95A      0.108483    96A      0.119310    97A      0.123474  
      98A      0.128097    99A      0.133129   100A      0.134267  
     101A      0.137130   102A      0.139789   103A      0.143790  
     104A      0.146284   105A      0.148505   106A      0.152571  
     107A      0.156459   108A      0.161688   109A      0.166177  
     110A      0.170524   111A      0.173130   112A      0.174479  
     113A      0.180010   114A      0.183066   115A      0.190007  
     116A      0.191772   117A      0.194179   118A      0.200071  
     119A      0.205206   120A      0.206205   121A      0.215226  
     122A      0.217638   123A      0.220746   124A      0.223475  
     125A      0.225775   126A      0.227778   127A      0.233910  
     128A      0.235011   129A      0.240947   130A      0.242772  
     131A      0.249011   132A      0.253032   133A      0.254123  
     134A      0.259971   135A      0.266761   136A      0.270696  
     137A      0.272339   138A      0.278378   139A      0.284165  
     140A      0.287873   141A      0.288543   142A      0.296032  
     143A      0.297687   144A      0.303396   145A      0.305767  
     146A      0.309206   147A      0.313783   148A      0.321281  
     149A      0.325537   150A      0.328154   151A      0.330397  
     152A      0.333001   153A      0.335499   154A      0.337787  
     155A      0.340902   156A      0.344459   157A      0.347314  
     158A      0.353267   159A      0.354692   160A      0.356879  
     161A      0.365246   162A      0.365818   163A      0.372238  
     164A      0.373288   165A      0.380482   166A      0.384053  
     167A      0.386240   168A      0.388104   169A      0.391388  
     170A      0.392362   171A      0.394874   172A      0.402336  
     173A      0.406053   174A      0.408522   175A      0.412352  
     176A      0.415147   177A      0.418241   178A      0.422223  
     179A      0.426765   180A      0.435623   181A      0.438305  
     182A      0.439882   183A      0.445704   184A      0.452537  
     185A      0.452903   186A      0.456753   187A      0.463413  
     188A      0.464215   189A      0.470771   190A      0.479682  
     191A      0.491351   192A      0.495128   193A      0.500389  
[...]
	 B(7,4,9)         =         2.111766	     120.995295
	 B(7,4,18)        =         2.054838	     117.733526
	 B(7,12,22)       =         2.076770	     118.990136
	 B(8,1,15)        =         2.090541	     119.779199
	 B(8,11,14)       =         2.092987	     119.919304
	 B(9,3,17)        =         2.116016	     121.238786
	 B(9,4,18)        =         2.116405	     121.261078
	 B(9,8,11)        =         2.155969	     123.527916
	 B(10,2,16)       =         2.077258	     119.018098
	 B(10,5,11)       =         2.080522	     119.205152
	 B(10,5,19)       =         2.130056	     122.043222
	 B(10,13,23)      =         1.935657	     110.905005
	 B(11,5,19)       =         2.072566	     118.749296
	 B(12,6,20)       =         2.042745	     117.040688
	 B(12,7,21)       =         2.041450	     116.966469
	 D(1,2,10,5)      =        -0.001704	      -0.097647
	 D(1,2,10,13)     =         3.139283	     179.867683
	 D(1,8,9,3)       =         0.266679	      15.279566
	 D(1,8,9,4)       =        -2.832755	    -162.304900
	 D(1,8,11,5)      =         0.010205	       0.584726
	 D(1,8,11,14)     =        -3.093185	    -177.226452
	 D(2,1,8,9)       =        -3.119619	    -178.740994
	 D(2,1,8,11)      =        -0.019104	      -1.094584
	 D(2,10,5,11)     =        -0.006895	      -0.395038
	 D(2,10,5,19)     =         3.124882	     179.042530
	 D(2,10,13,23)    =         3.138931	     179.847479
	 D(3,6,12,7)      =         0.001057	       0.060564
	 D(3,6,12,22)     =        -3.140174	    -179.918719
	 D(3,9,4,7)       =         0.006877	       0.394000
	 D(3,9,4,18)      =        -3.114078	    -178.423550
	 D(3,9,8,11)      =        -2.830430	    -162.171687
	 D(4,7,12,6)      =        -0.004548	      -0.260572
	 D(4,7,12,22)     =         3.136683	     179.718708
	 D(4,9,3,6)       =        -0.010397	      -0.595722
	 D(4,9,3,17)      =        -3.114365	    -178.439946
	 D(4,9,8,11)      =         0.353322	      20.243847
	 D(5,10,2,16)     =         3.132333	     179.469470
	 D(5,10,13,23)    =        -0.003293	      -0.188694
	 D(5,11,8,9)      =         3.109533	     178.163130
	 D(6,3,9,8)       =        -3.112732	    -178.346425
	 D(6,12,7,21)     =         3.129094	     179.283888
	 D(7,4,9,8)       =         3.108062	     178.078819
	 D(7,12,6,20)     =         3.136449	     179.705268
	 D(8,1,2,10)      =         0.015369	       0.880553
	 D(8,1,2,16)      =        -3.118509	    -178.677403
	 D(8,9,3,17)      =         0.066486	       3.809350
	 D(8,9,4,18)      =        -0.012893	      -0.738731
	 D(8,11,5,10)     =         0.002361	       0.135297
	 D(8,11,5,19)     =        -3.129741	    -179.320930
	 D(9,3,6,12)      =         0.006731	       0.385672
	 D(9,3,6,20)      =        -3.128245	    -179.235226
	 D(9,4,7,12)      =         0.000305	       0.017454
	 D(9,4,7,21)      =        -3.132826	    -179.497734
	 D(9,8,1,15)      =         0.074074	       4.244152
	 D(9,8,11,14)     =         0.006143	       0.351952
	 D(10,2,1,15)     =         3.105889	     177.954342
	 D(10,5,11,14)    =         3.106927	     178.013809
	 D(11,5,10,13)    =         3.135344	     179.641981
	 D(11,8,1,15)     =        -3.108596	    -178.109437
	 D(12,6,3,17)     =         3.112118	     178.311206
	 D(12,7,4,18)     =         3.121966	     178.875501
	 D(13,10,2,16)    =        -0.009865	      -0.565200
	 D(13,10,5,19)    =        -0.016065	      -0.920451
	 D(14,11,5,19)    =        -0.025175	      -1.442417
	 D(15,1,2,16)     =        -0.027988	      -1.603615
	 D(17,3,6,20)     =        -0.022858	      -1.309692
	 D(18,4,7,21)     =        -0.011165	      -0.639686
	 D(20,6,12,22)    =        -0.004782	      -0.274014
	 D(21,7,12,22)    =        -0.012860	      -0.736832
	 R(4,14)          =         5.164782	       2.733085

	Current energy   :      -653.2504709001

	Energy change for the previous step:
		Projected    :         0.0000032799
		Actual       :        -0.0000011795

	Performing BFGS update.
	Previous computed or guess Hessian on step 1.
	Steps to be used in Hessian update: 7 6
	Adding user-defined constraint: Fragment 1; Coordinate 64:
		Value =     0.266679; Fixed value    =     0.261800
		Force =    -0.003293; Force constant =     0.675000
	Removing off-diagonal coupling between coordinate 64 and others.
	Taking RFO optimization step.
	Going to follow RFO solution 1.
	Using RFO vector 1.
	Norm of target step-size    0.00238
	Projected energy change by RFO approximation:         0.0000003044

	Back-transformation to cartesian coordinates...
	Successfully converged to displaced geometry.
	First geometry is closer to target in internal coordinates, so am using that one.
	First geometry has RMS(Delta(q)) = 5.62e-08

	--- Internal Coordinate Step in ANG or DEG, aJ/ANG or AJ/DEG ---
	 ---------------------------------------------------------------------------
	   Coordinate                Previous        Force       Change         New 
	   ----------                --------       ------       ------       ------
	    1 R(1,2)          =      1.373094     0.000001    -0.000004     1.373090
	    2 R(1,8)          =      1.405682     0.000264     0.000050     1.405732
	    3 R(1,15)         =      1.077720    -0.000235    -0.000039     1.077681
	    4 R(2,10)         =      1.394635    -0.000184    -0.000017     1.394617
	    5 R(2,16)         =      1.077897    -0.000140    -0.000027     1.077870
	    6 R(3,6)          =      1.370591    -0.000012    -0.000000     1.370590
	    7 R(3,9)          =      1.404498     0.000115     0.000019     1.404516
	    8 R(3,17)         =      1.076118    -0.000233    -0.000038     1.076080
	    9 R(4,7)          =      1.372306    -0.000234    -0.000035     1.372271
	   10 R(4,9)          =      1.405047     0.000451     0.000061     1.405108
	   11 R(4,18)         =      1.073871    -0.000123    -0.000003     1.073868
	   12 R(5,10)         =      1.388390     0.000053     0.000003     1.388394
	   13 R(5,11)         =      1.374535    -0.000293    -0.000039     1.374496
	   14 R(5,19)         =      1.079040    -0.000070    -0.000013     1.079027
	   15 R(6,12)         =      1.342904    -0.000323    -0.000037     1.342868
	   16 R(6,20)         =      1.077158    -0.000022    -0.000004     1.077154
	   17 R(7,12)         =      1.341720     0.000360     0.000044     1.341764
	   18 R(7,21)         =      1.077256    -0.000045    -0.000008     1.077248
	   19 R(8,9)          =      1.445901     0.000557     0.000083     1.445984
	   20 R(8,11)         =      1.397217     0.000278     0.000054     1.397271
	   21 R(10,13)        =      1.339746    -0.000101    -0.000018     1.339728
	   22 R(11,14)        =      1.344160    -0.000820    -0.000086     1.344074
	   23 R(12,22)        =      1.011690    -0.000076    -0.000011     1.011679
	   24 R(13,23)        =      0.964130    -0.000091    -0.000010     0.964120
	   25 B(1,2,10)       =    119.889145    -0.000002    -0.006566   119.882579
	   26 B(1,2,16)       =    121.091309    -0.000000    -0.002156   121.089154
	   27 B(1,8,9)        =    120.941835     0.000002     0.000741   120.942576
	   28 B(1,8,11)       =    115.485346    -0.000002    -0.007118   115.478228
	   29 B(2,1,8)        =    122.458597     0.000002     0.010073   122.468670
	   30 B(2,1,15)       =    117.697878    -0.000001    -0.001664   117.696214
	   31 B(2,10,5)       =    119.497281     0.000000    -0.000590   119.496691
	   32 B(2,10,13)      =    117.036152    -0.000000     0.000143   117.036295
	   33 B(3,6,12)       =    119.548339    -0.000001    -0.002208   119.546131
	   34 B(3,6,20)       =    123.409951     0.000001     0.002172   123.412124
	   35 B(3,9,4)        =    116.102330    -0.000002    -0.006327   116.096003
	   36 B(3,9,8)        =    120.602181     0.000003     0.007672   120.609853
	   37 B(4,7,12)       =    119.904614    -0.000001    -0.002723   119.901892
	   38 B(4,7,21)       =    123.127246     0.000002     0.009384   123.136631
	   39 B(4,9,8)        =    123.254675    -0.000001    -0.001962   123.252714
	   40 B(5,10,13)      =    123.466557    -0.000000     0.000452   123.467009
	   41 B(5,11,8)       =    123.455935    -0.000001    -0.003384   123.452551
	   42 B(5,11,14)      =    116.590952     0.000001     0.000712   116.591663
	   43 B(6,3,9)        =    121.414550     0.000001     0.004674   121.419224
	   44 B(6,3,17)       =    117.313357     0.000000     0.003108   117.316464
	   45 B(6,12,7)       =    122.032298     0.000001     0.002802   122.035100
	   46 B(6,12,22)      =    118.977564    -0.000000    -0.000083   118.977480
	   47 B(7,4,9)        =    120.995295     0.000000     0.003901   120.999196
	   48 B(7,4,18)       =    117.733526     0.000001     0.007614   117.741141
	   49 B(7,12,22)      =    118.990136    -0.000001    -0.002720   118.987416
	   50 B(8,1,15)       =    119.779199    -0.000002    -0.008850   119.770349
	   51 B(8,11,14)      =    119.919304    -0.000000     0.003470   119.922774
	   52 B(9,3,17)       =    121.238786    -0.000002    -0.008163   121.230623
	   53 B(9,4,18)       =    121.261078    -0.000001    -0.011184   121.249894
	   54 B(9,8,11)       =    123.527916     0.000000     0.006260   123.534177
	   55 B(10,2,16)      =    119.018098     0.000002     0.008652   119.026750
	   56 B(10,5,11)      =    119.205152     0.000002     0.007777   119.212929
	   57 B(10,5,19)      =    122.043222    -0.000003    -0.011422   122.031800
	   58 B(10,13,23)     =    110.905005     0.000000     0.002807   110.907813
	   59 B(11,5,19)      =    118.749296     0.000001     0.003609   118.752905
	   60 B(12,6,20)      =    117.040688    -0.000000     0.000073   117.040761
	   61 B(12,7,21)      =    116.966469    -0.000001    -0.006647   116.959821
	   62 D(1,2,10,5)     =     -0.097647     0.000000    -0.004505    -0.102152
	   63 D(1,2,10,13)    =    179.867683     0.000000     0.006883   179.874566
	   64 D(1,8,9,3)      =     15.279566    -0.000003    -0.006097    15.273469
	   65 D(1,8,9,4)      =   -162.304900    -0.000002     0.012230  -162.292670
	   66 D(1,8,11,5)     =      0.584726     0.000001     0.002246     0.586973
	   67 D(1,8,11,14)    =   -177.226452     0.000000    -0.023745  -177.250197
	   68 D(2,1,8,9)      =   -178.740994     0.000001     0.012006  -178.728988
	   69 D(2,1,8,11)     =     -1.094584    -0.000000     0.009102    -1.085482
	   70 D(2,10,5,11)    =     -0.395038    -0.000000     0.015374    -0.379664
	   71 D(2,10,5,19)    =    179.042530    -0.000000     0.011074   179.053604
	   72 D(2,10,13,23)   =    179.847479     0.000000    -0.012092   179.835387
	   73 D(3,6,12,7)     =      0.060564     0.000000    -0.019420     0.041144
	   74 D(3,6,12,22)    =   -179.918719    -0.000000    -0.016651  -179.935370
	   75 D(3,9,4,7)      =      0.394000     0.000000    -0.012334     0.381666
	   76 D(3,9,4,18)     =   -178.423550     0.000000    -0.032008  -178.455558
	   77 D(3,9,8,11)     =   -162.171687    -0.000002    -0.002616  -162.174303
	   78 D(4,7,12,6)     =     -0.260572    -0.000000     0.017551    -0.243021
	   79 D(4,7,12,22)    =    179.718708     0.000000     0.014783   179.733490
	   80 D(4,9,3,6)      =     -0.595722    -0.000000     0.010428    -0.585294
	   81 D(4,9,3,17)     =   -178.439946    -0.000000     0.022646  -178.417300
	   82 D(4,9,8,11)     =     20.243847    -0.000001     0.015711    20.259558
	   83 D(5,10,2,16)    =    179.469470     0.000000    -0.014813   179.454657
	   84 D(5,10,13,23)   =     -0.188694    -0.000000    -0.000211    -0.188905
	   85 D(5,11,8,9)     =    178.163130    -0.000001    -0.000899   178.162232
	   86 D(6,3,9,8)      =   -178.346425     0.000001     0.027421  -178.319004
	   87 D(6,12,7,21)    =    179.283888    -0.000000     0.019547   179.303435
	   88 D(7,4,9,8)      =    178.078819    -0.000001    -0.029587   178.049232
	   89 D(7,12,6,20)    =    179.705268     0.000000    -0.012765   179.692503
	   90 D(8,1,2,10)     =      0.880553     0.000000    -0.008054     0.872500
	   91 D(8,1,2,16)     =   -178.677403     0.000000     0.002424  -178.674979
	   92 D(8,9,3,17)     =      3.809350     0.000001     0.039638     3.848989
	   93 D(8,9,4,18)     =     -0.738731    -0.000001    -0.049262    -0.787993
	   94 D(8,11,5,10)    =      0.135297    -0.000000    -0.014523     0.120774
	   95 D(8,11,5,19)    =   -179.320930    -0.000000    -0.010278  -179.331208
	   96 D(9,3,6,12)     =      0.385672     0.000000     0.004887     0.390559
	   97 D(9,3,6,20)     =   -179.235226     0.000000    -0.002204  -179.237430
	   98 D(9,4,7,12)     =      0.017454    -0.000000    -0.001038     0.016416
	   99 D(9,4,7,21)     =   -179.497734    -0.000000    -0.003082  -179.500816
	  100 D(9,8,1,15)     =      4.244152     0.000001     0.022271     4.266424
	  101 D(9,8,11,14)    =      0.351952    -0.000001    -0.026890     0.325062
	  102 D(10,2,1,15)    =    177.954342     0.000000    -0.018330   177.936011
	  103 D(10,5,11,14)   =    178.013809    -0.000000     0.010728   178.024538
	  104 D(11,5,10,13)   =    179.641981     0.000000     0.003215   179.645196
	  105 D(11,8,1,15)    =   -178.109437    -0.000000     0.019367  -178.090070
	  106 D(12,6,3,17)    =    178.311206     0.000000    -0.007108   178.304097
	  107 D(12,7,4,18)    =    178.875501    -0.000000     0.017751   178.893252
	  108 D(13,10,2,16)   =     -0.565200     0.000000    -0.003425    -0.568625
	  109 D(13,10,5,19)   =     -0.920451    -0.000000    -0.001085    -0.921536
	  110 D(14,11,5,19)   =     -1.442417    -0.000000     0.014973    -1.427444
	  111 D(15,1,2,16)    =     -1.603615     0.000000    -0.007853    -1.611468
	  112 D(17,3,6,20)    =     -1.309692    -0.000000    -0.014199    -1.323892
	  113 D(18,4,7,21)    =     -0.639686    -0.000000     0.015706    -0.623980
	  114 D(20,6,12,22)   =     -0.274014    -0.000000    -0.009997    -0.284011
	  115 D(21,7,12,22)   =     -0.736832     0.000000     0.016779    -0.720053
	  116 R(4,14)         =      2.733085     0.000138     0.000393     2.733478
	 ---------------------------------------------------------------------------
	Successfully symmetrized geometry.
	 Forces used to impose fixed constraints are not included.
	  Forces zeroed: 64 

  ==> Convergence Check <==

  Measures of convergence in internal coordinates in au.
  Criteria marked as inactive (o), active & met (*), and active & unmet ( ).
  ---------------------------------------------------------------------------------------------
   Step     Total Energy     Delta E     MAX Force     RMS Force      MAX Disp      RMS Disp   
  ---------------------------------------------------------------------------------------------
    Convergence Criteria    1.00e-06 *    3.00e-04 *             o    1.20e-03 *             o
  ---------------------------------------------------------------------------------------------
      8    -653.25047090   -1.18e-06      1.03e-04 *    2.67e-05 o    8.60e-04 *    2.21e-04 o  ~
  ---------------------------------------------------------------------------------------------


  **** Optimization is complete! (in 8 steps) ****

  ==> Optimization Summary <==

  Measures of convergence in internal coordinates in au.
  --------------------------------------------------------------------------------------------------------------- ~
   Step         Total Energy             Delta E       MAX Force       RMS Force        MAX Disp        RMS Disp  ~
  --------------------------------------------------------------------------------------------------------------- ~
      1    -653.240617488257   -653.240617488257      0.01878391      0.00622326      0.04332602      0.00929631  ~
      2    -653.245675783928     -0.005058295671      0.01512207      0.00341400      0.06439072      0.00928803  ~
      3    -653.248290531513     -0.002614747585      0.01082914      0.00170028      0.08117624      0.00929003  ~
      4    -653.249554640622     -0.001264109110      0.00683716      0.00085004      0.08450763      0.00928589  ~
      5    -653.250172862072     -0.000618221449      0.00356741      0.00041095      0.07755267      0.00928495  ~
      6    -653.250430284196     -0.000257422124      0.00109393      0.00017108      0.03368054      0.00481677  ~
      7    -653.250469720604     -0.000039436408      0.00028517      0.00006572      0.00588015      0.00104158  ~
      8    -653.250470900088     -0.000001179484      0.00017080      0.00003103      0.00085978      0.00022079  ~
  --------------------------------------------------------------------------------------------------------------- ~

	Writing optimization data to binary file.
	Final energy is   -653.2504709000875
	Final (previous) structure:
	Cartesian Geometry (in Angstrom)
	    C    -1.3294943811   0.7134581726  -0.7845266052
	    C    -2.4162882079   1.3011202059  -0.1854283960
	    C     1.1147495951  -0.1843568728  -2.0644059374
	    C     1.7364707468  -1.3552332173  -0.0830516585
	    C    -1.4845859560   0.7961534197   1.9724338778
	    C     2.1735542354  -0.7571942337  -2.7196222992
	    C     2.7848393758  -1.9143883152  -0.7697051457
	    C    -0.2856423295   0.1288732678  -0.0465725512
	    C     0.8569377498  -0.4573335670  -0.7110286720
	    C    -2.5020499212   1.3480845412   1.2057742401
	    C    -0.4148660440   0.2060276136   1.3425150999
	    N     2.9805093663  -1.6042930482  -2.0603507341
	    O    -3.5854287295   1.9370003565   1.7295953220
	    F     0.5593306666  -0.2745401248   2.1341984479
	    H    -1.3153941040   0.6666454137  -1.8611366459
	    H    -3.2146852348   1.7242909083  -0.7730941124
	    H     0.5080885979   0.5101690867  -2.6190472086
	    H     1.6014429051  -1.6419268957   0.9429956155
	    H    -1.5014984670   0.8230487926   3.0510061722
	    H     2.4078956418  -0.5615903370  -3.7526239319
	    H     3.4747197139  -2.6120217941  -0.3248972802
	    H     3.7602013331  -2.0212252084  -2.5520462333
	    H    -3.5552702190   1.9181276681   2.6930689276
	Saving final (previous) structure.
			--------------------------
			 OPTKING Finished Execution 
			--------------------------

    Final optimized geometry and variables:
    Molecular point group: c1
    Full point group: C1

    Geometry (in Angstrom), charge = 1, multiplicity = 1:

    C           -1.329494381053     0.713458172613    -0.784526605175
    C           -2.416288207932     1.301120205941    -0.185428395997
    C            1.114749595090    -0.184356872807    -2.064405937422
    C            1.736470746792    -1.355233217307    -0.083051658501
    C           -1.484585956003     0.796153419699     1.972433877808
    C            2.173554235447    -0.757194233669    -2.719622299241
    C            2.784839375792    -1.914388315161    -0.769705145720
    C           -0.285642329503     0.128873267754    -0.046572551239
    C            0.856937749847    -0.457333567030    -0.711028671950
    C           -2.502049921172     1.348084541240     1.205774240061
    C           -0.414866044049     0.206027613637     1.342515099940
    N            2.980509366262    -1.604293048183    -2.060350734096
    O           -3.585428729462     1.937000356497     1.729595322036
    F            0.559330666631    -0.274540124760     2.134198447877
    H           -1.315394103966     0.666645413732    -1.861136645852
    H           -3.214685234818     1.724290908262    -0.773094112446
    H            0.508088597857     0.510169086691    -2.619047208589
    H            1.601442905076    -1.641926895722     0.942995615467
    H           -1.501498467020     0.823048792581     3.051006172181
    H            2.407895641798    -0.561590337037    -3.752623931850
    H            3.474719713949    -2.612021794136    -0.324897280156
    H            3.760201333128    -2.021225208373    -2.552046233302
    H           -3.555270218992     1.918127668117     2.693068927608

	Cleaning optimization helper files.

*** Psi4 exiting successfully. Buy a developer a beer!
