
    -----------------------------------------------------------------------
          Psi4: An Open-Source Ab Initio Electronic Structure Package
                               Psi4 1.1 release

                         Git: Rev {HEAD} add49b9 


    R. M. Parrish, L. A. Burns, D. G. A. Smith, A. C. Simmonett,
    A. E. DePrince III, E. G. Hohenstein, U. Bozkaya, A. Yu. Sokolov,
    R. Di Remigio, R. M. Richard, J. F. Gonthier, A. M. James,
    H. R. McAlexander, A. Kumar, M. Saitow, X. Wang, B. P. Pritchard,
    P. Verma, H. F. Schaefer III, K. Patkowski, R. A. King, E. F. Valeev,
    F. A. Evangelista, J. M. Turney, T. D. Crawford, and C. D. Sherrill,
    J. Chem. Theory Comput. in press (2017).
    (doi: 10.1021/acs.jctc.7b00174)

    -----------------------------------------------------------------------


    Psi4 started on: Sunday, 12 November 2017 07:54AM

    Process ID:  17224
    PSIDATADIR: /cbio/jclab/home/chayas/anaconda/envs/py35/share/psi4
    Memory:     500.0 MiB
    Threads:    8
    
  ==> Input File <==

--------------------------------------------------------------------------

memory 5 Gb

molecule phepyrOH_cation {
  symmetry C1
  1 1 
  C      1.885   -1.036   -0.112
  C      2.878   -1.652   2.002
  C      0.807   -0.463   0.561
  C      1.800   -1.079   2.676
  C      4.440   -1.719   -1.322
  C      4.716   -3.305   0.469
  C      5.517   -2.309   -1.970
  C      5.785   -3.855   -0.224
  C      2.921   -1.631   0.608
  C      4.040   -2.225   -0.090
  C      0.764   -0.484   1.955
  N      6.150   -3.348   -1.409
  O      -0.288   0.076   2.612
  H      1.904   -1.012   -1.199
  H      3.678   -2.112   2.578
  H      0.003   -0.001   -0.006
  H      1.772   -1.098   3.762
  H      3.931   -0.877   -1.782
  H      4.425   -3.721   1.429
  H      5.897   -1.982   -2.928
  H      6.368   -4.693   0.134
  H      6.938   -3.767   -1.902
  H      -0.175   -0.018   3.571
  units Angstrom
}

dih_string = "1 9 10 5 30"
set optking fixed_dihedral = $dih_string

optimize('MP2/aug-cc-PVTZ')
--------------------------------------------------------------------------

  Memory set to   4.657 GiB by Python driver.
gradient() will perform analytic gradient computation.

*** tstart() called on gpu-2-7.local
*** at Sun Nov 12 07:54:19 2017

    SCF Algorithm Type (re)set to DF.

*** tstart() called on gpu-2-7.local
*** at Sun Nov 12 07:54:19 2017

   => Loading Basis Set <=

    Name: AUG-CC-PVTZ
    Role: ORBITAL
    Keyword: BASIS
    atoms 1-11  entry C          line   221 file /cbio/jclab/home/chayas/anaconda/envs/py35/share/psi4/basis/aug-cc-pvtz.gbs 
    atoms 12    entry N          line   267 file /cbio/jclab/home/chayas/anaconda/envs/py35/share/psi4/basis/aug-cc-pvtz.gbs 
    atoms 13    entry O          line   313 file /cbio/jclab/home/chayas/anaconda/envs/py35/share/psi4/basis/aug-cc-pvtz.gbs 
    atoms 14-23 entry H          line    34 file /cbio/jclab/home/chayas/anaconda/envs/py35/share/psi4/basis/aug-cc-pvtz.gbs 


         ---------------------------------------------------------
                                   SCF
            by Justin Turney, Rob Parrish, and Andy Simmonett
                              RHF Reference
                        8 Threads,   4768 MiB Core
         ---------------------------------------------------------

  ==> Geometry <==

    Molecular point group: c1
    Full point group: C1

    Geometry (in Angstrom), charge = 1, multiplicity = 1:

       Center              X                  Y                   Z               Mass       
    ------------   -----------------  -----------------  -----------------  -----------------
           C         -1.271514940634     0.720166653531    -0.579060428265    12.000000000000
           C         -0.278514940634     0.104166653531     1.534939571735    12.000000000000
           C         -2.349514940634     1.293166653531     0.093939571735    12.000000000000
           C         -1.356514940634     0.677166653531     2.208939571735    12.000000000000
           C          1.283485059366     0.037166653531    -1.789060428265    12.000000000000
           C          1.559485059366    -1.548833346469     0.001939571735    12.000000000000
           C          2.360485059366    -0.552833346469    -2.437060428265    12.000000000000
           C          2.628485059366    -2.098833346469    -0.691060428265    12.000000000000
           C         -0.235514940634     0.125166653531     0.140939571735    12.000000000000
           C          0.883485059366    -0.468833346469    -0.557060428265    12.000000000000
           C         -2.392514940634     1.272166653531     1.487939571735    12.000000000000
           N          2.993485059366    -1.591833346469    -1.876060428265    14.003074004780
           O         -3.444514940634     1.832166653531     2.144939571735    15.994914619560
           H         -1.252514940634     0.744166653531    -1.666060428265     1.007825032070
           H          0.521485059366    -0.355833346469     2.110939571735     1.007825032070
           H         -3.153514940634     1.755166653531    -0.473060428265     1.007825032070
           H         -1.384514940634     0.658166653531     3.294939571735     1.007825032070
           H          0.774485059366     0.879166653531    -2.249060428265     1.007825032070
           H          1.268485059366    -1.964833346469     0.961939571735     1.007825032070
           H          2.740485059366    -0.225833346469    -3.395060428265     1.007825032070
           H          3.211485059366    -2.936833346469    -0.333060428265     1.007825032070
           H          3.781485059366    -2.010833346469    -2.369060428265     1.007825032070
           H         -3.331514940634     1.738166653531     3.103939571735     1.007825032070

  Running in c1 symmetry.

  Rotational constants: A =      0.09613  B =      0.01336  C =      0.01192 [cm^-1]
  Rotational constants: A =   2881.86803  B =    400.41837  C =    357.41410 [MHz]
  Nuclear repulsion =  713.256397299327887

  Charge       = 1
  Multiplicity = 1
  Electrons    = 90
  Nalpha       = 45
  Nbeta        = 45

  ==> Algorithm <==

  SCF Algorithm Type is DF.
  DIIS enabled.
  MOM disabled.
  Fractional occupation disabled.
  Guess Type is SAD.
  Energy threshold   = 1.00e-10
  Density threshold  = 1.00e-10
  Integral threshold = 0.00e+00

  ==> Primary Basis <==

  Basis Set: AUG-CC-PVTZ
    Blend: AUG-CC-PVTZ
    Number of shells: 272
    Number of basis function: 828
    Number of Cartesian functions: 965
    Spherical Harmonics?: true
    Max angular momentum: 3

   => Loading Basis Set <=

    Name: (AUG-CC-PVTZ AUX)
    Role: JKFIT
    Keyword: DF_BASIS_SCF
    atoms 1-11  entry C          line   161 file /cbio/jclab/home/chayas/anaconda/envs/py35/share/psi4/basis/aug-cc-pvtz-jkfit.gbs 
    atoms 12    entry N          line   223 file /cbio/jclab/home/chayas/anaconda/envs/py35/share/psi4/basis/aug-cc-pvtz-jkfit.gbs 
    atoms 13    entry O          line   285 file /cbio/jclab/home/chayas/anaconda/envs/py35/share/psi4/basis/aug-cc-pvtz-jkfit.gbs 
    atoms 14-23 entry H          line    69 file /cbio/jclab/home/chayas/anaconda/envs/py35/share/psi4/basis/aug-cc-pvtz-jkfit.gbs 

  ==> Pre-Iterations <==

   -------------------------------------------------------
    Irrep   Nso     Nmo     Nalpha   Nbeta   Ndocc  Nsocc
   -------------------------------------------------------
     A        828     828       0       0       0       0
   -------------------------------------------------------
    Total     828     828      45      45      45       0
   -------------------------------------------------------

  ==> Integral Setup <==

  ==> DFJK: Density-Fitted J/K Matrices <==

    J tasked:                  Yes
    K tasked:                  Yes
    wK tasked:                  No
    OpenMP threads:              8
    Integrals threads:           8
    Memory (MB):              3576
    Algorithm:                Disk
    Integral Cache:           NONE
    Schwarz Cutoff:          1E-12
    Fitting Condition:       1E-12

   => Auxiliary Basis Set <=

  Basis Set: (AUG-CC-PVTZ AUX)
    Blend: AUG-CC-PVTZ-JKFIT
    Number of shells: 530
    Number of basis function: 1812
    Number of Cartesian functions: 2253
    Spherical Harmonics?: true
    Max angular momentum: 4

  Minimum eigenvalue in the overlap matrix is 5.3070222919E-07.
  Using Symmetric Orthogonalization.

  SCF Guess: Superposition of Atomic Densities via on-the-fly atomic UHF.

  ==> Iterations <==

                           Total Energy        Delta E     RMS |[F,P]|

   @DF-RHF iter   0:  -553.69191859296188   -5.53692e+02   2.00617e-02 
   @DF-RHF iter   1:  -551.23929953504035    2.45262e+00   1.80173e-03 
   @DF-RHF iter   2:  -551.58639333423753   -3.47094e-01   8.49070e-04 DIIS
   @DF-RHF iter   3:  -551.65574742580509   -6.93541e-02   3.41298e-04 DIIS
   @DF-RHF iter   4:  -551.67284672378844   -1.70993e-02   1.79515e-04 DIIS
   @DF-RHF iter   5:  -551.67543247309038   -2.58575e-03   6.15841e-05 DIIS
   @DF-RHF iter   6:  -551.67592665816437   -4.94185e-04   1.72251e-05 DIIS
   @DF-RHF iter   7:  -551.67599913410174   -7.24759e-05   8.81849e-06 DIIS
   @DF-RHF iter   8:  -551.67601060793299   -1.14738e-05   3.45043e-06 DIIS
   @DF-RHF iter   9:  -551.67601435682434   -3.74889e-06   2.03792e-06 DIIS
   @DF-RHF iter  10:  -551.67601557749003   -1.22067e-06   8.74628e-07 DIIS
   @DF-RHF iter  11:  -551.67601574576372   -1.68274e-07   2.27402e-07 DIIS
   @DF-RHF iter  12:  -551.67601575518677   -9.42305e-09   7.00758e-08 DIIS
   @DF-RHF iter  13:  -551.67601575615004   -9.63269e-10   3.63993e-08 DIIS
   @DF-RHF iter  14:  -551.67601575640583   -2.55795e-10   1.47169e-08 DIIS
   @DF-RHF iter  15:  -551.67601575644574   -3.99041e-11   5.68618e-09 DIIS
   @DF-RHF iter  16:  -551.67601575645699   -1.12550e-11   2.94729e-09 DIIS
   @DF-RHF iter  17:  -551.67601575646245   -5.45697e-12   1.15951e-09 DIIS
   @DF-RHF iter  18:  -551.67601575645710    5.34328e-12   3.39020e-10 DIIS
   @DF-RHF iter  19:  -551.67601575645745   -3.41061e-13   1.63938e-10 DIIS
   @DF-RHF iter  20:  -551.67601575646358   -6.13909e-12   7.28409e-11 DIIS

  ==> Post-Iterations <==

    Orbital Energies (a.u.)
    -----------------------

    Doubly Occupied:                                                      

       1A    -20.703593     2A    -15.832572     3A    -11.483580  
       4A    -11.483451     5A    -11.445283     6A    -11.434560  
       7A    -11.413902     8A    -11.413716     9A    -11.380499  
      10A    -11.378737    11A    -11.371407    12A    -11.357870  
      13A    -11.354254    14A     -1.518443    15A     -1.510655  
      16A     -1.320789    17A     -1.264125    18A     -1.236452  
      19A     -1.154792    20A     -1.151641    21A     -1.068009  
      22A     -1.054136    23A     -0.976464    24A     -0.961583  
      25A     -0.950177    26A     -0.870677    27A     -0.859119  
      28A     -0.853852    29A     -0.821891    30A     -0.798030  
      31A     -0.781377    32A     -0.772952    33A     -0.757054  
      34A     -0.732547    35A     -0.720220    36A     -0.706323  
      37A     -0.704599    38A     -0.683923    39A     -0.654227  
      40A     -0.637315    41A     -0.620274    42A     -0.570459  
      43A     -0.536939    44A     -0.470237    45A     -0.437486  

    Virtual:                                                              

      46A     -0.104765    47A     -0.084385    48A     -0.063440  
      49A     -0.062832    50A     -0.059397    51A     -0.049160  
      52A     -0.043694    53A     -0.039412    54A     -0.034696  
      55A     -0.028413    56A     -0.025784    57A     -0.023748  
      58A     -0.016927    59A     -0.010391    60A     -0.006341  
      61A     -0.001383    62A      0.003558    63A      0.005901  
      64A      0.009135    65A      0.015294    66A      0.017504  
      67A      0.021514    68A      0.023918    69A      0.024792  
      70A      0.028557    71A      0.031972    72A      0.036746  
      73A      0.038549    74A      0.040021    75A      0.044969  
      76A      0.049292    77A      0.055215    78A      0.058109  
      79A      0.060370    80A      0.066913    81A      0.068356  
      82A      0.072723    83A      0.074450    84A      0.078154  
      85A      0.083900    86A      0.086242    87A      0.088258  
      88A      0.095367    89A      0.098318    90A      0.108287  
      91A      0.110573    92A      0.114682    93A      0.121028  
      94A      0.122956    95A      0.124832    96A      0.128333  
      97A      0.131975    98A      0.136976    99A      0.139860  
     100A      0.144638   101A      0.152638   102A      0.158135  
     103A      0.161793   104A      0.163630   105A      0.166994  
     106A      0.168147   107A      0.171124   108A      0.173710  
     109A      0.178029   110A      0.181618   111A      0.188004  
     112A      0.190444   113A      0.192396   114A      0.197242  
     115A      0.204461   116A      0.206196   117A      0.209971  
     118A      0.213096   119A      0.218019   120A      0.219519  
     121A      0.224225   122A      0.228153   123A      0.231255  
     124A      0.232993   125A      0.234174   126A      0.239585  
     127A      0.240642   128A      0.249954   129A      0.251635  
     130A      0.257917   131A      0.258704   132A      0.274115  
     133A      0.277969   134A      0.279367   135A      0.280277  
     136A      0.287260   137A      0.287336   138A      0.293122  
     139A      0.300230   140A      0.309273   141A      0.311753  
     142A      0.312262   143A      0.315937   144A      0.317977  
     145A      0.322658   146A      0.324455   147A      0.330660  
     148A      0.333957   149A      0.336490   150A      0.339547  
     151A      0.341162   152A      0.344178   153A      0.348895  
     154A      0.350882   155A      0.355395   156A      0.360781  
     157A      0.365533   158A      0.368382   159A      0.371281  
     160A      0.374199   161A      0.375623   162A      0.378688  
     163A      0.383654   164A      0.387471   165A      0.389552  
     166A      0.394427   167A      0.398803   168A      0.401036  
     169A      0.403814   170A      0.407725   171A      0.410920  
     172A      0.414492   173A      0.417242   174A      0.420190  
     175A      0.424776   176A      0.428391   177A      0.430799  
     178A      0.437238   179A      0.439246   180A      0.443165  
     181A      0.449256   182A      0.453519   183A      0.458460  
     184A      0.464175   185A      0.471714   186A      0.474903  
     187A      0.482653   188A      0.488316   189A      0.494876  
     190A      0.500886   191A      0.506768   192A      0.510555  
     193A      0.518409   194A      0.528498   195A      0.530044  
     196A      0.538381   197A      0.543153   198A      0.549709  
     199A      0.551279   200A      0.563541   201A      0.570842  
     202A      0.574399   203A      0.576939   204A      0.581142  
     205A      0.584667   206A      0.586993   207A      0.595819  
     208A      0.601112   209A      0.607571   210A      0.612546  
     211A      0.620001   212A      0.622058   213A      0.627319  
     214A      0.632718   215A      0.637499   216A      0.642800  
     217A      0.645198   218A      0.649625   219A      0.655886  
     220A      0.667476   221A      0.676467   222A      0.681265  
     223A      0.693607   224A      0.700173   225A      0.701839  
     226A      0.704152   227A      0.708624   228A      0.711324  
     229A      0.716708   230A      0.718587   231A      0.725223  
     232A      0.731005   233A      0.734883   234A      0.737693  
     235A      0.741113   236A      0.744817   237A      0.757486  
     238A      0.758635   239A      0.762959   240A      0.769132  
     241A      0.775172   242A      0.778238   243A      0.780103  
     244A      0.785115   245A      0.789048   246A      0.794669  
     247A      0.796217   248A      0.804011   249A      0.806341  
     250A      0.811337   251A      0.814501   252A      0.817910  
     253A      0.827641   254A      0.829114   255A      0.836909  
     256A      0.845297   257A      0.849257   258A      0.856648  
     259A      0.858425   260A      0.862069   261A      0.867741  
     262A      0.869330   263A      0.873454   264A      0.878419  
     265A      0.880005   266A      0.881992   267A      0.885029  
     268A      0.891778   269A      0.898191   270A      0.904487  
     271A      0.907364   272A      0.919167   273A      0.923176  
     274A      0.926601   275A      0.928808   276A      0.935081  
     277A      0.938222   278A      0.942016   279A      0.947052  
     280A      0.955061   281A      0.956161   282A      0.959179  
     283A      0.965481   284A      0.967898   285A      0.970565  
     286A      0.975216   287A      0.978624   288A      0.985250  
     289A      0.987690   290A      0.990833   291A      0.995288  
     292A      1.000119   293A      1.006402   294A      1.009914  
     295A      1.016258   296A      1.018256   297A      1.021397  
     298A      1.029241   299A      1.031928   300A      1.036206  
     301A      1.042894   302A      1.050276   303A      1.056241  
     304A      1.062624   305A      1.063559   306A      1.068842  
     307A      1.071064   308A      1.073837   309A      1.081198  
     310A      1.085779   311A      1.089492   312A      1.098493  
     313A      1.099695   314A      1.104218   315A      1.106429  
     316A      1.112828   317A      1.124273   318A      1.126392  
     319A      1.131929   320A      1.139883   321A      1.142164  
     322A      1.151653   323A      1.156210   324A      1.161986  
     325A      1.162500   326A      1.164188   327A      1.175050  
     328A      1.180132   329A      1.183263   330A      1.200901  
     331A      1.204834   332A      1.222838   333A      1.224674  
     334A      1.229973   335A      1.234323   336A      1.238005  
     337A      1.245611   338A      1.256914   339A      1.260357  
     340A      1.269756   341A      1.274791   342A      1.282849  
     343A      1.286930   344A      1.298013   345A      1.303154  
     346A      1.309755   347A      1.318018   348A      1.323732  
     349A      1.324947   350A      1.332238   351A      1.342893  
     352A      1.348591   353A      1.358617   354A      1.362978  
     355A      1.367407   356A      1.376215   357A      1.384999  
     358A      1.391221   359A      1.394306   360A      1.400748  
     361A      1.405708   362A      1.412213   363A      1.421369  
     364A      1.424851   365A      1.428840   366A      1.442423  
     367A      1.448084   368A      1.455577   369A      1.460811  
     370A      1.473772   371A      1.477296   372A      1.483139  
     373A      1.492430   374A      1.500175   375A      1.514005  
     376A      1.530661   377A      1.534572   378A      1.535981  
     379A      1.543104   380A      1.548531   381A      1.555715  
     382A      1.563548   383A      1.565826   384A      1.576164  
     385A      1.585146   386A      1.591635   387A      1.603919  
     388A      1.608937   389A      1.629821   390A      1.634318  
     391A      1.641922   392A      1.652552   393A      1.655311  
     394A      1.663332   395A      1.671710   396A      1.677049  
     397A      1.691165   398A      1.696297   399A      1.700873  
     400A      1.705415   401A      1.708611   402A      1.715790  
     403A      1.724596   404A      1.733211   405A      1.734748  
     406A      1.750076   407A      1.755746   408A      1.758159  
     409A      1.764499   410A      1.781403   411A      1.787535  
     412A      1.797192   413A      1.808555   414A      1.814127  
     415A      1.822419   416A      1.823609   417A      1.831418  
     418A      1.841810   419A      1.852844   420A      1.858693  
     421A      1.860736   422A      1.871972   423A      1.880305  
     424A      1.884425   425A      1.897825   426A      1.904097  
     427A      1.908847   428A      1.915213   429A      1.918801  
     430A      1.922436   431A      1.930047   432A      1.944257  
     433A      1.946971   434A      1.948606   435A      1.951465  
     436A      1.958375   437A      1.968736   438A      1.985976  
     439A      1.991136   440A      1.997193   441A      2.000728  
     442A      2.012849   443A      2.017012   444A      2.031149  
     445A      2.035589   446A      2.043584   447A      2.056112  
     448A      2.062246   449A      2.073895   450A      2.077058  
     451A      2.083079   452A      2.092026   453A      2.100530  
     454A      2.112422   455A      2.120461   456A      2.142095  
     457A      2.154969   458A      2.166490   459A      2.190783  
     460A      2.199879   461A      2.203356   462A      2.208399  
     463A      2.215456   464A      2.217085   465A      2.230580  
     466A      2.237347   467A      2.245553   468A      2.255312  
     469A      2.262123   470A      2.279968   471A      2.286945  
     472A      2.292357   473A      2.296886   474A      2.308139  
     475A      2.322033   476A      2.335611   477A      2.346753  
     478A      2.355025   479A      2.367994   480A      2.379202  
     481A      2.393379   482A      2.402369   483A      2.406792  
     484A      2.414897   485A      2.423139   486A      2.427264  
     487A      2.437613   488A      2.446142   489A      2.451840  
     490A      2.474172   491A      2.491600   492A      2.498102  
     493A      2.516341   494A      2.524359   495A      2.546070  
     496A      2.558353   497A      2.565833   498A      2.572602  
     499A      2.595393   500A      2.600888   501A      2.627483  
     502A      2.639492   503A      2.658490   504A      2.675664  
     505A      2.693297   506A      2.714361   507A      2.722861  
     508A      2.737792   509A      2.760184   510A      2.775155  
     511A      2.777028   512A      2.785013   513A      2.822397  
     514A      2.837631   515A      2.851276   516A      2.881583  
     517A      2.891582   518A      2.947834   519A      2.952755  
     520A      2.968826   521A      2.978238   522A      2.997212  
     523A      3.002020   524A      3.013862   525A      3.037702  
     526A      3.066236   527A      3.070489   528A      3.085085  
     529A      3.094354   530A      3.117124   531A      3.140597  
     532A      3.161241   533A      3.164514   534A      3.172817  
     535A      3.183981   536A      3.194113   537A      3.208652  
     538A      3.214674   539A      3.229437   540A      3.237292  
     541A      3.244624   542A      3.257578   543A      3.260270  
     544A      3.271873   545A      3.276032   546A      3.286674  
     547A      3.299342   548A      3.310663   549A      3.326951  
     550A      3.336265   551A      3.352630   552A      3.356372  
     553A      3.372205   554A      3.383532   555A      3.385381  
     556A      3.395603   557A      3.398035   558A      3.404728  
     559A      3.412280   560A      3.415606   561A      3.418840  
     562A      3.432973   563A      3.442380   564A      3.449485  
     565A      3.462998   566A      3.469830   567A      3.473186  
     568A      3.488095   569A      3.505327   570A      3.511049  
     571A      3.515725   572A      3.538556   573A      3.548796  
     574A      3.551089   575A      3.564541   576A      3.571099  
     577A      3.573479   578A      3.597310   579A      3.602521  
     580A      3.615632   581A      3.626302   582A      3.627201  
     583A      3.633976   584A      3.651309   585A      3.658275  
     586A      3.661589   587A      3.665837   588A      3.690647  
     589A      3.700229   590A      3.709538   591A      3.714138  
     592A      3.721354   593A      3.735883   594A      3.741334  
     595A      3.756099   596A      3.759294   597A      3.765541  
     598A      3.771996   599A      3.782010   600A      3.787222  
     601A      3.794911   602A      3.797033   603A      3.814502  
     604A      3.824314   605A      3.837822   606A      3.843914  
     607A      3.852137   608A      3.862370   609A      3.870414  
     610A      3.876621   611A      3.878035   612A      3.881563  
     613A      3.887211   614A      3.894959   615A      3.905794  
     616A      3.917456   617A      3.944244   618A      3.945445  
     619A      3.957169   620A      3.961853   621A      3.981683  
     622A      3.987857   623A      3.990816   624A      4.006527  
     625A      4.018176   626A      4.026518   627A      4.031046  
     628A      4.043794   629A      4.056222   630A      4.061487  
     631A      4.063847   632A      4.079671   633A      4.081737  
     634A      4.089516   635A      4.100838   636A      4.110350  
     637A      4.112899   638A      4.113092   639A      4.135170  
     640A      4.142267   641A      4.153653   642A      4.162392  
     643A      4.176400   644A      4.182300   645A      4.190144  
     646A      4.201446   647A      4.211703   648A      4.216586  
     649A      4.221691   650A      4.224976   651A      4.234772  
     652A      4.246977   653A      4.249599   654A      4.264771  
     655A      4.276062   656A      4.278610   657A      4.285606  
     658A      4.294738   659A      4.299987   660A      4.304443  
     661A      4.311840   662A      4.323340   663A      4.332566  
     664A      4.343095   665A      4.345469   666A      4.365331  
     667A      4.369508   668A      4.372904   669A      4.382699  
     670A      4.398573   671A      4.402086   672A      4.410486  
     673A      4.416724   674A      4.430641   675A      4.449468  
     676A      4.455915   677A      4.463594   678A      4.492194  
     679A      4.501763   680A      4.507722   681A      4.542388  
     682A      4.556100   683A      4.561102   684A      4.575107  
     685A      4.582026   686A      4.602571   687A      4.611911  
     688A      4.613395   689A      4.648203   690A      4.652707  
     691A      4.661240   692A      4.665636   693A      4.672592  
     694A      4.684839   695A      4.718512   696A      4.727260  
     697A      4.744081   698A      4.752689   699A      4.761370  
     700A      4.765408   701A      4.775528   702A      4.801315  
     703A      4.816021   704A      4.826210   705A      4.830079  
     706A      4.834981   707A      4.853627   708A      4.877121  
     709A      4.885867   710A      4.896461   711A      4.902796  
     712A      4.916892   713A      4.938077   714A      4.944616  
     715A      4.952819   716A      4.961846   717A      4.973563  
     718A      4.978561   719A      4.993305   720A      5.002631  
     721A      5.006036   722A      5.015801   723A      5.019380  
     724A      5.042694   725A      5.048355   726A      5.055202  
     727A      5.082053   728A      5.100005   729A      5.117223  
     730A      5.140143   731A      5.146117   732A      5.168031  
     733A      5.178469   734A      5.185138   735A      5.198754  
     736A      5.209451   737A      5.212307   738A      5.226627  
     739A      5.261282   740A      5.272452   741A      5.284720  
     742A      5.302437   743A      5.307415   744A      5.310726  
     745A      5.338635   746A      5.358350   747A      5.383559  
     748A      5.390499   749A      5.415161   750A      5.430006  
     751A      5.442950   752A      5.452931   753A      5.510362  
     754A      5.526196   755A      5.554746   756A      5.563748  
     757A      5.578569   758A      5.588796   759A      5.607821  
     760A      5.616989   761A      5.630963   762A      5.664016  
     763A      5.695892   764A      5.701166   765A      5.724010  
     766A      5.735777   767A      5.780241   768A      5.808696  
     769A      5.843467   770A      5.863221   771A      5.940165  
     772A      5.954707   773A      5.990449   774A      5.995875  
     775A      6.029766   776A      6.047281   777A      6.091410  
     778A      6.126646   779A      6.191229   780A      6.215951  
     781A      6.258722   782A      6.291369   783A      6.309802  
     784A      6.350863   785A      6.373590   786A      6.398172  
     787A      6.417839   788A      6.484750   789A      6.491542  
     790A      6.549094   791A      6.579745   792A      6.641104  
     793A      6.672703   794A      6.752433   795A      6.792395  
     796A      6.794142   797A      6.803920   798A      6.832012  
     799A      6.844956   800A      6.902132   801A      6.949785  
     802A      6.972191   803A      6.985723   804A      7.112333  
     805A      7.160995   806A      7.321824   807A      7.333507  
     808A      7.468653   809A      7.546064   810A      7.584999  
     811A      7.611166   812A      7.654654   813A      7.912107  
     814A      8.289409   815A      8.539749   816A     16.024566  
     817A     16.282286   818A     16.609862   819A     16.669356  
     820A     16.978425   821A     18.799502   822A     19.122018  
     823A     19.386299   824A     19.763164   825A     19.969320  
     826A     20.014144   827A     20.541425   828A     21.795261  

    Final Occupation by Irrep:
              A 
    DOCC [    45 ]

  Energy converged.

  @DF-RHF Final Energy:  -551.67601575646358

   => Energetics <=

    Nuclear Repulsion Energy =            713.2563972993278867
    One-Electron Energy =               -2149.4444411877411767
    Two-Electron Energy =                 884.5120281319495916
    DFT Exchange-Correlation Energy =       0.0000000000000000
    Empirical Dispersion Energy =           0.0000000000000000
    PCM Polarization Energy =               0.0000000000000000
    EFP Energy =                            0.0000000000000000
    Total Energy =                       -551.6760157564635847



Properties will be evaluated at   0.000000,   0.000000,   0.000000 Bohr

Properties computed using the SCF density matrix

  Nuclear Dipole Moment: (a.u.)
     X:     2.9520      Y:    -1.5984      Z:    -0.9345

  Electronic Dipole Moment: (a.u.)
     X:     0.2933      Y:    -0.1439      Z:    -0.4914

  Dipole Moment: (a.u.)
     X:     3.2454      Y:    -1.7423      Z:    -1.4259     Total:     3.9498

  Dipole Moment: (Debye)
     X:     8.2489      Y:    -4.4284      Z:    -3.6242     Total:    10.0394


*** tstop() called on gpu-2-7.local at Sun Nov 12 08:02:30 2017
Module time:
	user time   =    1169.56 seconds =      19.49 minutes
	system time =      50.80 seconds =       0.85 minutes
	total time  =        491 seconds =       8.18 minutes
Total time:
	user time   =    1169.56 seconds =      19.49 minutes
	system time =      50.80 seconds =       0.85 minutes
	total time  =        491 seconds =       8.18 minutes

  //>>>>>>>>>>>>>>>>>>>>>>>>>>>>>>>>>>>//
  //               DFMP2               //
  //<<<<<<<<<<<<<<<<<<<<<<<<<<<<<<<<<<<//

   => Loading Basis Set <=

    Name: (AUG-CC-PVTZ AUX)
    Role: RIFIT
    Keyword: DF_BASIS_MP2
    atoms 1-11  entry C          line   147 file /cbio/jclab/home/chayas/anaconda/envs/py35/share/psi4/basis/aug-cc-pvtz-ri.gbs 
    atoms 12    entry N          line   205 file /cbio/jclab/home/chayas/anaconda/envs/py35/share/psi4/basis/aug-cc-pvtz-ri.gbs 
    atoms 13    entry O          line   263 file /cbio/jclab/home/chayas/anaconda/envs/py35/share/psi4/basis/aug-cc-pvtz-ri.gbs 
    atoms 14-23 entry H          line    29 file /cbio/jclab/home/chayas/anaconda/envs/py35/share/psi4/basis/aug-cc-pvtz-ri.gbs 

	 --------------------------------------------------------
	                          DF-MP2                         
	      2nd-Order Density-Fitted Moller-Plesset Theory     
	              RMP2 Wavefunction,   8 Threads             
	                                                         
	        Rob Parrish, Justin Turney, Andy Simmonett,      
	           Ed Hohenstein, and C. David Sherrill          
	 --------------------------------------------------------

   => Auxiliary Basis Set <=

  Basis Set: (AUG-CC-PVTZ AUX)
    Blend: AUG-CC-PVTZ-RI
    Number of shells: 504
    Number of basis function: 1838
    Number of Cartesian functions: 2318
    Spherical Harmonics?: true
    Max angular momentum: 4

	 --------------------------------------------------------
	                 NBF =   828, NAUX =  1838
	 --------------------------------------------------------
	   CLASS    FOCC     OCC    AOCC    AVIR     VIR    FVIR
	   PAIRS       0      45      45     783     783       0
	 --------------------------------------------------------


         ------------------------------------------------------------
                                     CPHF                           
                                  Rob Parrish                       
         ------------------------------------------------------------

  ==> Geometry <==

    Molecular point group: c1
    Full point group: C1

    Geometry (in Angstrom), charge = 1, multiplicity = 1:

       Center              X                  Y                   Z               Mass       
    ------------   -----------------  -----------------  -----------------  -----------------
           C         -1.271514940634     0.720166653531    -0.579060428265    12.000000000000
           C         -0.278514940634     0.104166653531     1.534939571735    12.000000000000
           C         -2.349514940634     1.293166653531     0.093939571735    12.000000000000
           C         -1.356514940634     0.677166653531     2.208939571735    12.000000000000
           C          1.283485059366     0.037166653531    -1.789060428265    12.000000000000
           C          1.559485059366    -1.548833346469     0.001939571735    12.000000000000
           C          2.360485059366    -0.552833346469    -2.437060428265    12.000000000000
           C          2.628485059366    -2.098833346469    -0.691060428265    12.000000000000
           C         -0.235514940634     0.125166653531     0.140939571735    12.000000000000
           C          0.883485059366    -0.468833346469    -0.557060428265    12.000000000000
           C         -2.392514940634     1.272166653531     1.487939571735    12.000000000000
           N          2.993485059366    -1.591833346469    -1.876060428265    14.003074004780
           O         -3.444514940634     1.832166653531     2.144939571735    15.994914619560
           H         -1.252514940634     0.744166653531    -1.666060428265     1.007825032070
           H          0.521485059366    -0.355833346469     2.110939571735     1.007825032070
           H         -3.153514940634     1.755166653531    -0.473060428265     1.007825032070
           H         -1.384514940634     0.658166653531     3.294939571735     1.007825032070
           H          0.774485059366     0.879166653531    -2.249060428265     1.007825032070
           H          1.268485059366    -1.964833346469     0.961939571735     1.007825032070
           H          2.740485059366    -0.225833346469    -3.395060428265     1.007825032070
           H          3.211485059366    -2.936833346469    -0.333060428265     1.007825032070
           H          3.781485059366    -2.010833346469    -2.369060428265     1.007825032070
           H         -3.331514940634     1.738166653531     3.103939571735     1.007825032070

  Nuclear repulsion =  713.256397299327887
  Reference energy  = -551.676015756463585

  ==> Basis Set <==

  Basis Set: AUG-CC-PVTZ
    Blend: AUG-CC-PVTZ
    Number of shells: 272
    Number of basis function: 828
    Number of Cartesian functions: 965
    Spherical Harmonics?: true
    Max angular momentum: 3

  ==> CGRSolver (by Rob Parrish) <==

   Number of roots    =         1
   Preconditioning    =    JACOBI
   Convergence cutoff =     1E-06
   Maximum iterations =       100

  ==> CPHFRHamiltonian (by Rob Parrish) <== 

  ==> DFJK: Density-Fitted J/K Matrices <==

    J tasked:                  Yes
    K tasked:                  Yes
    wK tasked:                  No
    OpenMP threads:              8
    Integrals threads:           8
    Memory (MB):              3576
    Algorithm:                Disk
    Integral Cache:           NONE
    Schwarz Cutoff:          1E-12
    Fitting Condition:       1E-12

   => Auxiliary Basis Set <=

  Basis Set: (AUG-CC-PVTZ AUX)
    Blend: AUG-CC-PVTZ-JKFIT
    Number of shells: 530
    Number of basis function: 1812
    Number of Cartesian functions: 2253
    Spherical Harmonics?: true
    Max angular momentum: 4

  ==> CPHF Iterations <==

  => Iterations <=

             Iter  Converged  Remaining    Residual
  CGR           1          0          1   1.126E-01
  CGR           2          0          1   5.127E-02
  CGR           3          0          1   2.984E-02
  CGR           4          0          1   9.620E-03
  CGR           5          0          1   4.506E-03
  CGR           6          0          1   2.252E-03
  CGR           7          0          1   6.939E-04
  CGR           8          0          1   2.797E-04
  CGR           9          0          1   1.340E-04
  CGR          10          0          1   4.570E-05
  CGR          11          0          1   1.477E-05
  CGR          12          0          1   5.465E-06
  CGR          13          0          1   1.707E-06
  CGR          14          1          0   5.445E-07

    CGRSolver converged.

  ==> DFCorrGrad: Density-Fitted Correlated Gradients <==

    OpenMP threads:              8
    Integrals threads:           8
    Memory (MB):              3576
    Schwarz Cutoff:          0E+00
    Fitting Condition:       1E-12

   => Auxiliary Basis Set <=

  Basis Set: (AUG-CC-PVTZ AUX)
    Blend: AUG-CC-PVTZ-JKFIT
    Number of shells: 530
    Number of basis function: 1812
    Number of Cartesian functions: 2253
    Spherical Harmonics?: true
    Max angular momentum: 4

	-----------------------------------------------------------
	 ==================> DF-MP2 Energies <==================== 
	-----------------------------------------------------------
	 Reference Energy          =    -551.6760157564635847 [Eh]
	 Singles Energy            =      -0.0000000000000001 [Eh]
	 Same-Spin Energy          =      -0.5966781734801837 [Eh]
	 Opposite-Spin Energy      =      -1.8256343029185955 [Eh]
	 Correlation Energy        =      -2.4223124763987793 [Eh]
	 Total Energy              =    -554.0983282328624000 [Eh]
	-----------------------------------------------------------
	 ================> DF-SCS-MP2 Energies <================== 
	-----------------------------------------------------------
	 SCS Same-Spin Scale       =       0.3333333333333333 [-]
	 SCS Opposite-Spin Scale   =       1.2000000000000000 [-]
	 SCS Same-Spin Energy      =      -0.1988927244933946 [Eh]
	 SCS Opposite-Spin Energy  =      -2.1907611635023145 [Eh]
	 SCS Correlation Energy    =      -2.3896538879957090 [Eh]
	 SCS Total Energy          =    -554.0656696444592626 [Eh]
	-----------------------------------------------------------


  -Total Gradient:
     Atom            X                  Y                   Z
    ------   -----------------  -----------------  -----------------
       1        0.009402970144    -0.009554411693    -0.006827964878
       2        0.011097976111    -0.000786496121    -0.009451558565
       3       -0.000422198802    -0.000103529008     0.007921075215
       4       -0.012178440112     0.006250689638     0.006037927854
       5       -0.015939628593     0.009275464005     0.014029151194
       6       -0.018999168097     0.008493215921     0.008223900233
       7        0.009556470285    -0.010733891745     0.004315503344
       8        0.004693607608     0.003753671899    -0.013784667893
       9       -0.003299512116     0.001548629866     0.001567414989
      10        0.014776882675    -0.007315488917    -0.009575016715
      11        0.003411991521    -0.001332806335    -0.015008804738
      12       -0.001938460123     0.000740342878     0.001408257798
      13       -0.005576903026     0.002845620152     0.009287437521
      14        0.001990680554     0.001279662560    -0.006062202593
      15        0.003771040029    -0.004447812767     0.002758485385
      16       -0.002825591651     0.002367632526    -0.005073409611
      17        0.000077082411    -0.000728265573     0.004414163898
      18       -0.005098933683     0.004331081525    -0.002901051341
      19       -0.001584481927    -0.000708633268     0.007052847490
      20        0.001701749521    -0.000515498167    -0.002393229773
      21        0.002696831687    -0.001915130795     0.000002253044
      22        0.005138974002    -0.002685641663    -0.003313959761
      23       -0.000452938436    -0.000058404904     0.007373447917


*** tstop() called on gpu-2-7.local at Sun Nov 12 08:36:28 2017
Module time:
	user time   =    5356.76 seconds =      89.28 minutes
	system time =     108.49 seconds =       1.81 minutes
	total time  =       2529 seconds =      42.15 minutes
Total time:
	user time   =    5356.76 seconds =      89.28 minutes
	system time =     108.49 seconds =       1.81 minutes
	total time  =       2529 seconds =      42.15 minutes

			-----------------------------------------
			 OPTKING 2.0: for geometry optimizations 
			  - R.A. King,  Bethel University        
			-----------------------------------------

	Internal coordinates to be generated automatically.
	Detected frag 1 with atoms:  1 2 3 4 5 6 7 8 9 10 11 12 13 14 15 16 17 18 19 20
	 21 22 23
	---Fragment 1 Bond Connectivity---
	 1 : 3 9 14
	 2 : 4 9 15
	 3 : 1 11 16
	 4 : 2 11 17
	 5 : 7 10 18
	 6 : 8 10 19
	 7 : 5 12 20
	 8 : 6 12 21
	 9 : 1 2 10
	 10 : 5 6 9
	 11 : 3 4 13
	 12 : 7 8 22
	 13 : 11 23
	 14 : 1
	 15 : 2
	 16 : 3
	 17 : 4
	 18 : 5
	 19 : 6
	 20 : 7
	 21 : 8
	 22 : 12
	 23 : 13

	Assuming in current code that numbering for constraints corresponds to unified fragment.
	Fixed dihedral atom list: 
	     1     9    10     5
	---Fragment 1 Geometry and Gradient---
	 C          -2.4028150117        1.3609177452       -1.0942656238
	 C          -0.5263169617        0.1968464474        2.9006154211
	 C          -4.4399397829        2.4437308194        0.1775200636
	 C          -2.5634417330        1.2796595215        4.1742908347
	 C           2.4254352579        0.0702347964       -3.3808342446
	 C           2.9469996705       -2.9268708503        0.0036652594
	 C           4.4606703030       -1.0447036220       -4.6053767787
	 C           4.9671169066       -3.9662202234       -1.3059149507
	 C          -0.4450587380        0.2365306961        0.2663371919
	 C           1.6695448047       -0.8859666268       -1.0526916489
	 C          -4.5211980066        2.4040465706        2.8117982929
	 N           5.6568669451       -3.0081290740       -3.5452404182
	 O          -6.5091898984        3.4622932050        4.0533483622
	 H          -2.3669102151        1.4062711724       -3.1483979303
	 H           0.9854639446       -0.6724275738        3.9890976737
	 H          -5.9592795938        3.3167842927       -0.8939546537
	 H          -2.6163540647        1.2437547250        6.2265334150
	 H           1.4635646562        1.6613842003       -4.2501082657
	 H           2.3970893659       -3.7129969216        1.8178023470
	 H           5.1787662335       -0.4267631765       -6.4157344140
	 H           6.0688272421       -5.5498107228       -0.6293929951
	 H           7.1459711378       -3.7999243237       -4.4768754017
	 H          -6.2956508454        3.2846589485        5.8655957236
	             0.0094029701       -0.0095544117       -0.0068279649
	             0.0110979761       -0.0007864961       -0.0094515586
	            -0.0004221988       -0.0001035290        0.0079210752
	            -0.0121784401        0.0062506896        0.0060379279
	            -0.0159396286        0.0092754640        0.0140291512
	            -0.0189991681        0.0084932159        0.0082239002
	             0.0095564703       -0.0107338917        0.0043155033
	             0.0046936076        0.0037536719       -0.0137846679
	            -0.0032995121        0.0015486299        0.0015674150
	             0.0147768827       -0.0073154889       -0.0095750167
	             0.0034119915       -0.0013328063       -0.0150088047
	            -0.0019384601        0.0007403429        0.0014082578
	            -0.0055769030        0.0028456202        0.0092874375
	             0.0019906806        0.0012796626       -0.0060622026
	             0.0037710400       -0.0044478128        0.0027584854
	            -0.0028255917        0.0023676325       -0.0050734096
	             0.0000770824       -0.0007282656        0.0044141639
	            -0.0050989337        0.0043310815       -0.0029010513
	            -0.0015844819       -0.0007086333        0.0070528475
	             0.0017017495       -0.0005154982       -0.0023932298
	             0.0026968317       -0.0019151308        0.0000022530
	             0.0051389740       -0.0026856417       -0.0033139598
	            -0.0004529384       -0.0000584049        0.0073734479

	Previous optimization step data not found.  Starting new optimization.

	---Fragment 1 Intrafragment Coordinates---
	 - Coordinate -           - BOHR/RAD -       - ANG/DEG -
	 R(1,3)           =         2.634350	       1.394038
	 R(1,9)           =         2.635962	       1.394891
	 R(1,14)          =         2.054947	       1.087431
	 R(2,4)           =         2.635263	       1.394521
	 R(2,9)           =         2.635830	       1.394821
	 R(2,15)          =         2.055702	       1.087831
	 R(3,11)          =         2.635830	       1.394821
	 R(3,16)          =         2.053941	       1.086899
	 R(4,11)          =         2.636938	       1.395407
	 R(4,17)          =         2.053239	       1.086527
	 R(5,7)           =         2.623885	       1.388500
	 R(5,10)          =         2.627915	       1.390633
	 R(5,18)          =         2.052459	       1.086115
	 R(6,8)           =         2.622236	       1.387627
	 R(6,10)          =         2.629272	       1.391351
	 R(6,19)          =         2.052191	       1.085973
	 R(7,12)          =         2.531761	       1.339750
	 R(7,20)          =         2.043259	       1.081246
	 R(8,12)          =         2.531457	       1.339589
	 R(8,21)          =         2.044311	       1.081803
	 R(9,10)          =         2.733384	       1.446444
	 R(11,13)         =         2.571662	       1.360865
	 R(12,22)         =         1.926737	       1.019585
	 R(13,23)         =         1.833410	       0.970199
	 B(1,3,11)        =         2.094553	     120.009056
	 B(1,3,16)        =         2.088505	     119.662516
	 B(1,9,2)         =         2.093692	     119.959722
	 B(1,9,10)        =         2.095161	     120.043881
	 B(2,4,11)        =         2.093699	     119.960108
	 B(2,4,17)        =         2.089577	     119.723926
	 B(2,9,10)        =         2.094332	     119.996376
	 B(3,1,9)         =         2.094940	     120.031219
	 B(3,1,14)        =         2.079469	     119.144799
	 B(3,11,4)        =         2.094306	     119.994870
	 B(3,11,13)       =         2.094549	     120.008801
	 B(4,2,9)         =         2.095181	     120.045019
	 B(4,2,15)        =         2.078675	     119.099297
	 B(4,11,13)       =         2.094331	     119.996326
	 B(5,7,12)        =         2.095079	     120.039170
	 B(5,7,20)        =         2.162275	     123.889216
	 B(5,10,6)        =         2.092808	     119.909049
	 B(5,10,9)        =         2.095104	     120.040644
	 B(6,8,12)        =         2.096331	     120.110918
	 B(6,8,21)        =         2.161484	     123.843917
	 B(6,10,9)        =         2.095271	     120.050189
	 B(7,5,10)        =         2.073676	     118.812889
	 B(7,5,18)        =         2.088935	     119.687160
	 B(7,12,8)        =         2.135529	     122.356778
	 B(7,12,22)       =         2.073035	     118.776141
	 B(8,6,10)        =         2.072947	     118.771099
	 B(8,6,19)        =         2.089877	     119.741136
	 B(8,12,22)       =         2.074622	     118.867073
	 B(9,1,14)        =         2.108776	     120.823969
	 B(9,2,15)        =         2.109330	     120.855683
	 B(10,5,18)       =         2.120573	     121.499869
	 B(10,6,19)       =         2.120361	     121.487761
	 B(11,3,16)       =         2.100127	     120.328425
	 B(11,4,17)       =         2.099910	     120.315955
	 B(11,13,23)      =         1.925489	     110.322421
	 B(12,7,20)       =         2.025832	     116.071605
	 B(12,8,21)       =         2.025370	     116.045151
	 D(1,3,11,4)      =        -0.000325	      -0.018609
	 D(1,3,11,13)     =         3.140978	     179.964785
	 D(1,9,2,4)       =         0.000325	       0.018608
	 D(1,9,2,15)      =        -3.141497	    -179.994534
	 D(1,9,10,5)      =         0.522161	      29.917626
	 D(1,9,10,6)      =        -2.617252	    -149.957477
	 D(2,4,11,3)      =         0.000301	       0.017261
	 D(2,4,11,13)     =        -3.141002	    -179.966135
	 D(2,9,1,3)       =        -0.000348	      -0.019945
	 D(2,9,1,14)      =        -3.141221	    -179.978731
	 D(2,9,10,5)      =        -2.618515	    -150.029870
	 D(2,9,10,6)      =         0.525257	      30.095026
	 D(3,1,9,10)      =        -3.141025	    -179.967461
	 D(3,11,4,17)     =         3.141223	     179.978848
	 D(3,11,13,23)    =         3.140828	     179.956172
	 D(4,2,9,10)      =         3.141002	     179.966149
	 D(4,11,3,16)     =         3.141593	     180.000000
	 D(4,11,13,23)    =        -0.001055	      -0.060434
	 D(5,7,12,8)      =        -0.001432	      -0.082056
	 D(5,7,12,22)     =         3.140748	     179.951630
	 D(5,10,6,8)      =         0.001245	       0.071320
	 D(5,10,6,19)     =        -3.140779	    -179.953357
	 D(6,8,12,7)      =         0.000947	       0.054242
	 D(6,8,12,22)     =        -3.141234	    -179.979474
	 D(6,10,5,7)      =        -0.001713	      -0.098173
	 D(6,10,5,18)     =        -3.141485	    -179.993816
	 D(7,5,10,9)      =        -3.141129	    -179.973454
	 D(7,12,8,21)     =        -3.139926	    -179.904511
	 D(8,6,10,9)      =         3.140660	     179.946589
	 D(8,12,7,20)     =         3.140735	     179.950857
	 D(9,1,3,11)      =         0.000348	       0.019955
	 D(9,1,3,16)      =        -3.141571	    -179.998735
	 D(9,2,4,11)      =        -0.000301	      -0.017270
	 D(9,2,4,17)      =        -3.141228	    -179.979086
	 D(9,10,5,18)     =         0.002285	       0.130903
	 D(9,10,6,19)     =        -0.001363	      -0.078088
	 D(10,5,7,12)     =         0.001791	       0.102639
	 D(10,5,7,20)     =        -3.140423	    -179.932976
	 D(10,6,8,12)     =        -0.000837	      -0.047960
	 D(10,6,8,21)     =         3.139977	     179.907420
	 D(10,9,1,14)     =         0.001287	       0.073752
	 D(10,9,2,15)     =        -0.000820	      -0.046992
	 D(11,3,1,14)     =         3.141234	     179.979432
	 D(11,4,2,15)     =         3.141517	     179.995641
	 D(12,7,5,18)     =         3.141593	     180.000000
	 D(12,8,6,19)     =         3.141179	     179.976275
	 D(13,11,3,16)    =        -0.000286	      -0.016400
	 D(13,11,4,17)    =        -0.000079	      -0.004548
	 D(14,1,3,16)     =        -0.000685	      -0.039257
	 D(15,2,4,17)     =         0.000590	       0.033826
	 D(18,5,7,20)     =        -0.000618	      -0.035399
	 D(19,6,8,21)     =        -0.001193	      -0.068344
	 D(20,7,12,22)    =        -0.000270	      -0.015456
	 D(21,8,12,22)    =         0.001078	       0.061773

	Current energy   :      -554.0983282329

	Generating empirical Hessian (Schlegel '84) for each fragment.
	Adding user-defined constraint: Fragment 1; Coordinate 66:
		Value =     0.522161; Fixed value    =     0.523599
		Force =     0.000719; Force constant =     0.500000
	Removing off-diagonal coupling between coordinate 66 and others.
	Taking RFO optimization step.
	Going to follow RFO solution 1.
	Using RFO vector 1.

	Determining step-restricting scale parameter for RS-RFO.
	Maximum step size allowed    0.10000

	 Iter      |step|        alpha        rfo_root  
	------------------------------------------------
	    0     0.21166       1.00000           1
	    1     0.15912       4.52286           1
	    2     0.12787      12.55152           1
	    3     0.10867      24.73347           1
	    4     0.10114      32.37263           1
	    5     0.10002      33.69834           1
	    6     0.10000      33.72693           1
	------------------------------------------------
	Norm of target step-size    0.10000
	Projected energy change by RFO approximation:        -0.0047184592

	Back-transformation to cartesian coordinates...
	Could not converge backtransformation.
	Using first guess instead.

	--- Internal Coordinate Step in ANG or DEG, aJ/ANG or AJ/DEG ---
	 ---------------------------------------------------------------------------
	   Coordinate                Previous        Force       Change         New 
	   ----------                --------       ------       ------       ------
	    1 R(1,3)          =      1.394038    -0.102352    -0.010576     1.383462
	    2 R(1,9)          =      1.394891     0.022178     0.002467     1.397358
	    3 R(1,14)         =      1.087431    -0.050444    -0.006311     1.081120
	    4 R(2,4)          =      1.394521    -0.102873    -0.010544     1.383977
	    5 R(2,9)          =      1.394821     0.012327     0.001447     1.396268
	    6 R(2,15)         =      1.087831    -0.050377    -0.006335     1.081496
	    7 R(3,11)         =      1.394821    -0.056629    -0.005994     1.388827
	    8 R(3,16)         =      1.086899    -0.047316    -0.005914     1.080985
	    9 R(4,11)         =      1.395407    -0.008047    -0.000940     1.394468
	   10 R(4,17)         =      1.086527    -0.036438    -0.004578     1.081949
	   11 R(5,7)          =      1.388500    -0.119809    -0.012105     1.376396
	   12 R(5,10)         =      1.390633     0.071773     0.007460     1.398093
	   13 R(5,18)         =      1.086115    -0.057473    -0.007190     1.078925
	   14 R(6,8)          =      1.387627    -0.114663    -0.011577     1.376051
	   15 R(6,10)         =      1.391351     0.067559     0.007162     1.398513
	   16 R(6,19)         =      1.085973    -0.057100    -0.007099     1.078874
	   17 R(7,12)         =      1.339750     0.023600     0.002009     1.341760
	   18 R(7,20)         =      1.081246    -0.021113    -0.002584     1.078662
	   19 R(8,12)         =      1.339589     0.024649     0.002133     1.341722
	   20 R(8,21)         =      1.081803    -0.024202    -0.003000     1.078803
	   21 R(9,10)         =      1.446444     0.053226     0.006274     1.452719
	   22 R(11,13)        =      1.360865    -0.114121    -0.010035     1.350830
	   23 R(12,22)        =      1.019585    -0.055016    -0.005862     1.013723
	   24 R(13,23)        =      0.970199    -0.059659    -0.005294     0.964905
	   25 B(1,3,11)       =    120.009056    -0.000056    -0.162121   119.846935
	   26 B(1,3,16)       =    119.662516     0.000220     0.537543   120.200059
	   27 B(1,9,2)        =    119.959722    -0.000471    -0.830896   119.128826
	   28 B(1,9,10)       =    120.043881     0.000231     0.407904   120.451786
	   29 B(2,4,11)       =    119.960108     0.000062     0.100505   120.060613
	   30 B(2,4,17)       =    119.723926     0.000007     0.039068   119.762994
	   31 B(2,9,10)       =    119.996376     0.000240     0.422979   120.419355
	   32 B(3,1,9)        =    120.031219     0.000310     0.616819   120.648038
	   33 B(3,1,14)       =    119.144799    -0.000241    -0.515579   118.629220
	   34 B(3,11,4)       =    119.994870     0.000040     0.018411   120.013281
	   35 B(3,11,13)      =    120.008801    -0.001033    -1.891272   118.117530
	   36 B(4,2,9)        =    120.045019     0.000115     0.256844   120.301863
	   37 B(4,2,15)       =    119.099297    -0.000097    -0.223328   118.875969
	   38 B(4,11,13)      =    119.996326     0.000993     1.872858   121.869184
	   39 B(5,7,12)       =    120.039170    -0.000211    -0.459362   119.579807
	   40 B(5,7,20)       =    123.889216    -0.000010    -0.041790   123.847426
	   41 B(5,10,6)       =    119.909049    -0.000840    -1.535184   118.373865
	   42 B(5,10,9)       =    120.040644     0.000406     0.742293   120.782937
	   43 B(6,8,12)       =    120.110918    -0.000234    -0.497290   119.613628
	   44 B(6,8,21)       =    123.843917     0.000004    -0.016749   123.827169
	   45 B(6,10,9)       =    120.050189     0.000434     0.792878   120.843067
	   46 B(7,5,10)       =    118.812889     0.000530     1.046073   119.858962
	   47 B(7,5,18)       =    119.687160    -0.000354    -0.738232   118.948928
	   48 B(7,12,8)       =    122.356778     0.000216     0.384045   122.740824
	   49 B(7,12,22)      =    118.776141    -0.000101    -0.174971   118.601170
	   50 B(8,6,10)       =    118.771099     0.000538     1.061748   119.832847
	   51 B(8,6,19)       =    119.741136    -0.000361    -0.756638   118.984498
	   52 B(8,12,22)      =    118.867073    -0.000116    -0.209070   118.658003
	   53 B(9,1,14)       =    120.823969    -0.000069    -0.102835   120.721134
	   54 B(9,2,15)       =    120.855683    -0.000019    -0.034983   120.820700
	   55 B(10,5,18)      =    121.499869    -0.000177    -0.308780   121.191089
	   56 B(10,6,19)      =    121.487761    -0.000177    -0.305642   121.182119
	   57 B(11,3,16)      =    120.328425    -0.000164    -0.375425   119.953000
	   58 B(11,4,17)      =    120.315955    -0.000068    -0.139596   120.176358
	   59 B(11,13,23)     =    110.322421    -0.000204    -0.488869   109.833552
	   60 B(12,7,20)      =    116.071605     0.000220     0.501064   116.572669
	   61 B(12,8,21)      =    116.045151     0.000229     0.513956   116.559107
	   62 D(1,3,11,4)     =     -0.018609    -0.000005    -0.091538    -0.110146
	   63 D(1,3,11,13)    =    179.964785    -0.000005    -0.100559   179.864227
	   64 D(1,9,2,4)      =      0.018608    -0.000007    -0.107840    -0.089232
	   65 D(1,9,2,15)     =   -179.994534     0.000018     0.350927  -179.643607
	   66 D(1,9,10,5)     =     29.917626     0.000009     0.081610    29.999237
	   67 D(1,9,10,6)     =   -149.957477     0.000008     0.090326  -149.867151
	   68 D(2,4,11,3)     =      0.017261    -0.000005    -0.104289    -0.087028
	   69 D(2,4,11,13)    =   -179.966135    -0.000005    -0.094278  -180.060413
	   70 D(2,9,1,3)      =     -0.019945    -0.000004    -0.089263    -0.109207
	   71 D(2,9,1,14)     =   -179.978731     0.000019     0.337117  -179.641614
	   72 D(2,9,10,5)     =   -150.029870     0.000008     0.096333  -149.933538
	   73 D(2,9,10,6)     =     30.095026     0.000007     0.105048    30.200074
	   74 D(3,1,9,10)     =   -179.967461    -0.000005    -0.075382  -180.042843
	   75 D(3,11,4,17)    =    179.978848    -0.000007    -0.133166   179.845683
	   76 D(3,11,13,23)   =    179.956172     0.000001     0.021130   179.977302
	   77 D(4,2,9,10)     =    179.966149    -0.000006    -0.121724   179.844425
	   78 D(4,11,3,16)    =    180.000000    -0.000008    -0.136922   179.863078
	   79 D(4,11,13,23)   =     -0.060434     0.000001     0.011606    -0.048828
	   80 D(5,7,12,8)     =     -0.082056     0.000001     0.025045    -0.057012
	   81 D(5,7,12,22)    =    179.951630     0.000001     0.013949   179.965580
	   82 D(5,10,6,8)     =      0.071320    -0.000001     0.003183     0.074503
	   83 D(5,10,6,19)    =   -179.953357     0.000015     0.297018  -179.656339
	   84 D(6,8,12,7)     =      0.054242     0.000000     0.001684     0.055926
	   85 D(6,8,12,22)    =   -179.979474     0.000001     0.012797  -179.966677
	   86 D(6,10,5,7)     =     -0.098173     0.000002     0.022565    -0.075608
	   87 D(6,10,5,18)    =   -179.993816     0.000016     0.289741  -179.704076
	   88 D(7,5,10,9)     =   -179.973454     0.000000     0.028225  -179.945229
	   89 D(7,12,8,21)    =   -179.904511    -0.000008    -0.147943  -180.052453
	   90 D(8,6,10,9)     =    179.946589     0.000001    -0.002547   179.944042
	   91 D(8,12,7,20)    =    179.950857    -0.000007    -0.117211   179.833647
	   92 D(9,1,3,11)     =      0.019955     0.000010     0.188693     0.208647
	   93 D(9,1,3,16)     =   -179.998735     0.000012     0.234225  -179.764510
	   94 D(9,2,4,11)     =     -0.017270     0.000011     0.204043     0.186773
	   95 D(9,2,4,17)     =   -179.979086     0.000013     0.232869  -179.746217
	   96 D(9,10,5,18)    =      0.130903     0.000015     0.295400     0.426303
	   97 D(9,10,6,19)    =     -0.078088     0.000017     0.291288     0.213200
	   98 D(10,5,7,12)    =      0.102639    -0.000002    -0.036029     0.066611
	   99 D(10,5,7,20)    =   -179.932976     0.000006     0.117334  -179.815642
	  100 D(10,6,8,12)    =     -0.047960    -0.000001    -0.016454    -0.064414
	  101 D(10,6,8,21)    =    179.907420     0.000008     0.144863   180.052283
	  102 D(10,9,1,14)    =      0.073752     0.000018     0.350998     0.424750
	  103 D(10,9,2,15)    =     -0.046992     0.000019     0.337043     0.290051
	  104 D(11,3,1,14)    =    179.979432    -0.000013    -0.228749   179.750683
	  105 D(11,4,2,15)    =    179.995641    -0.000013    -0.245897   179.749744
	  106 D(12,7,5,18)    =    180.000000    -0.000016    -0.296597   179.703403
	  107 D(12,8,6,19)    =    179.976275    -0.000016    -0.303932   179.672343
	  108 D(13,11,3,16)   =     -0.016400    -0.000008    -0.146150    -0.162549
	  109 D(13,11,4,17)   =     -0.004548    -0.000007    -0.123155    -0.127703
	  110 D(14,1,3,16)    =     -0.039257    -0.000010    -0.183217    -0.222474
	  111 D(15,2,4,17)    =      0.033826    -0.000012    -0.217071    -0.183246
	  112 D(18,5,7,20)    =     -0.035399    -0.000008    -0.143451    -0.178850
	  113 D(19,6,8,21)    =     -0.068344    -0.000008    -0.142616    -0.210960
	  114 D(20,7,12,22)   =     -0.015456    -0.000007    -0.128306    -0.143762
	  115 D(21,8,12,22)   =      0.061773    -0.000007    -0.136830    -0.075057
	 ---------------------------------------------------------------------------
	Successfully symmetrized geometry.
	 Forces used to impose fixed constraints are not included.
	  Forces zeroed: 66 

  ==> Convergence Check <==

  Measures of convergence in internal coordinates in au.
  Criteria marked as inactive (o), active & met (*), and active & unmet ( ).
  --------------------------------------------------------------------------------------------- ~
   Step     Total Energy     Delta E     MAX Force     RMS Force      MAX Disp      RMS Disp    ~
  --------------------------------------------------------------------------------------------- ~
    Convergence Criteria    1.00e-06 *    3.00e-04 *             o    1.20e-03 *             o  ~
  --------------------------------------------------------------------------------------------- ~
      1    -554.09832823   -5.54e+02      1.45e-02      4.54e-03 o    3.30e-02      9.31e-03 o  ~
  ---------------------------------------------------------------------------------------------

	Writing optimization data to binary file.
	Structure for next step:
	Cartesian Geometry (in Angstrom)
	    C    -1.2815598783   0.7245000902  -0.5581592504
	    C    -0.2858283911   0.1077653617   1.5465522784
	    C    -2.3526145277   1.2921129294   0.1086431514
	    C    -1.3545041922   0.6787191735   2.2153842917
	    C     1.2981002912   0.0287737584  -1.7922297400
	    C     1.5763482862  -1.5580078749  -0.0107788642
	    C     2.3630431910  -0.5507961524  -2.4437359905
	    C     2.6356239139  -2.1067551663  -0.6965832697
	    C    -0.2373411013   0.1253563251   0.1512373951
	    C     0.8848328393  -0.4702173589  -0.5533258264
	    C    -2.3918646363   1.2720301681   1.4967705239
	    N     2.9952368930  -1.5928359485  -1.8826623472
	    O    -3.4526002820   1.8387517195   2.1119191420
	    H    -1.2731294235   0.7475672767  -1.6390005740
	    H     0.5102099458  -0.3435115223   2.1230116123
	    H    -3.1583746513   1.7503443268  -0.4475072932
	    H    -1.3811684291   0.6637913151   3.2969020733
	    H     0.8002254148   0.8691873225  -2.2503824286
	    H     1.2925113931  -1.9826213185   0.9395413839
	    H     2.7371223461  -0.2167347520  -3.3987118060
	    H     3.2126228571  -2.9453699845  -0.3393535901
	    H     3.7773478001  -2.0086427325  -2.3756544713
	    H    -3.3580832933   1.7574260751   3.0687337493
			--------------------------
			 OPTKING Finished Execution 
			--------------------------

    Structure for next step:
    Molecular point group: c1
    Full point group: C1

    Geometry (in Angstrom), charge = 1, multiplicity = 1:

    C           -1.282450833056     0.725046832850    -0.557879030115
    C           -0.286719345868     0.108312104307     1.546832498618
    C           -2.353505482481     1.292659672071     0.108923371631
    C           -1.355395146984     0.679265916135     2.215664511973
    C            1.297209336483     0.029320501033    -1.791949519722
    C            1.575457331477    -1.557461132240    -0.010498643943
    C            2.362152236301    -0.550249409750    -2.443455770243
    C            2.634732959163    -2.106208423608    -0.696303049462
    C           -0.238232056030     0.125903067788     0.151517615332
    C            0.883941884532    -0.469670616272    -0.553045606166
    C           -2.392755591086     1.272576910777     1.497050744185
    N            2.994345938247    -1.592289205872    -1.882382126998
    O           -3.453491236783     1.839298462155     2.112199362268
    H           -1.274020378271     0.748114019373    -1.638720353794
    H            0.509318991049    -0.342964779672     2.123291832590
    H           -3.159265605997     1.750891069447    -0.447227072939
    H           -1.382059383801     0.664338057744     3.297182293554
    H            0.799334460007     0.869734065170    -2.250102208371
    H            1.291620438335    -1.982074575810     0.939821604152
    H            2.736231391370    -0.216188009355    -3.398431585715
    H            3.211731902351    -2.944823241870    -0.339073369884
    H            3.776456845344    -2.008095989881    -2.375374251011
    H           -3.358974248040     1.757972817783     3.069013969526

gradient() will perform analytic gradient computation.

*** tstart() called on gpu-2-7.local
*** at Sun Nov 12 08:36:30 2017

    SCF Algorithm Type (re)set to DF.

*** tstart() called on gpu-2-7.local
*** at Sun Nov 12 08:36:30 2017

   => Loading Basis Set <=

    Name: AUG-CC-PVTZ
    Role: ORBITAL
    Keyword: BASIS
    atoms 1-11  entry C          line   221 file /cbio/jclab/home/chayas/anaconda/envs/py35/share/psi4/basis/aug-cc-pvtz.gbs 
    atoms 12    entry N          line   267 file /cbio/jclab/home/chayas/anaconda/envs/py35/share/psi4/basis/aug-cc-pvtz.gbs 
    atoms 13    entry O          line   313 file /cbio/jclab/home/chayas/anaconda/envs/py35/share/psi4/basis/aug-cc-pvtz.gbs 
    atoms 14-23 entry H          line    34 file /cbio/jclab/home/chayas/anaconda/envs/py35/share/psi4/basis/aug-cc-pvtz.gbs 


         ---------------------------------------------------------
                                   SCF
            by Justin Turney, Rob Parrish, and Andy Simmonett
                              RHF Reference
                        8 Threads,   4768 MiB Core
         ---------------------------------------------------------

  ==> Geometry <==

    Molecular point group: c1
    Full point group: C1

    Geometry (in Angstrom), charge = 1, multiplicity = 1:

       Center              X                  Y                   Z               Mass       
    ------------   -----------------  -----------------  -----------------  -----------------
           C         -1.282450833056     0.725046832850    -0.557879030115    12.000000000000
           C         -0.286719345868     0.108312104307     1.546832498618    12.000000000000
           C         -2.353505482481     1.292659672071     0.108923371631    12.000000000000
           C         -1.355395146984     0.679265916135     2.215664511973    12.000000000000
           C          1.297209336483     0.029320501033    -1.791949519722    12.000000000000
           C          1.575457331477    -1.557461132240    -0.010498643943    12.000000000000
           C          2.362152236301    -0.550249409750    -2.443455770243    12.000000000000
           C          2.634732959163    -2.106208423608    -0.696303049462    12.000000000000
           C         -0.238232056030     0.125903067788     0.151517615332    12.000000000000
           C          0.883941884532    -0.469670616272    -0.553045606166    12.000000000000
           C         -2.392755591086     1.272576910777     1.497050744185    12.000000000000
           N          2.994345938247    -1.592289205872    -1.882382126998    14.003074004780
           O         -3.453491236783     1.839298462155     2.112199362268    15.994914619560
           H         -1.274020378271     0.748114019373    -1.638720353794     1.007825032070
           H          0.509318991049    -0.342964779672     2.123291832590     1.007825032070
           H         -3.159265605997     1.750891069447    -0.447227072939     1.007825032070
           H         -1.382059383801     0.664338057744     3.297182293554     1.007825032070
           H          0.799334460007     0.869734065170    -2.250102208371     1.007825032070
           H          1.291620438335    -1.982074575810     0.939821604152     1.007825032070
           H          2.736231391370    -0.216188009355    -3.398431585715     1.007825032070
           H          3.211731902351    -2.944823241870    -0.339073369884     1.007825032070
           H          3.776456845344    -2.008095989881    -2.375374251011     1.007825032070
           H         -3.358974248040     1.757972817783     3.069013969526     1.007825032070

  Running in c1 symmetry.

  Rotational constants: A =      0.09641  B =      0.01331  C =      0.01189 [cm^-1]
  Rotational constants: A =   2890.30105  B =    398.90735  C =    356.39011 [MHz]
  Nuclear repulsion =  713.485128895865387

  Charge       = 1
  Multiplicity = 1
  Electrons    = 90
  Nalpha       = 45
  Nbeta        = 45

  ==> Algorithm <==

  SCF Algorithm Type is DF.
  DIIS enabled.
  MOM disabled.
  Fractional occupation disabled.
  Guess Type is READ.
  Energy threshold   = 1.00e-10
  Density threshold  = 1.00e-10
  Integral threshold = 0.00e+00

  ==> Primary Basis <==

  Basis Set: AUG-CC-PVTZ
    Blend: AUG-CC-PVTZ
    Number of shells: 272
    Number of basis function: 828
    Number of Cartesian functions: 965
    Spherical Harmonics?: true
    Max angular momentum: 3

   => Loading Basis Set <=

    Name: (AUG-CC-PVTZ AUX)
    Role: JKFIT
    Keyword: DF_BASIS_SCF
    atoms 1-11  entry C          line   161 file /cbio/jclab/home/chayas/anaconda/envs/py35/share/psi4/basis/aug-cc-pvtz-jkfit.gbs 
    atoms 12    entry N          line   223 file /cbio/jclab/home/chayas/anaconda/envs/py35/share/psi4/basis/aug-cc-pvtz-jkfit.gbs 
    atoms 13    entry O          line   285 file /cbio/jclab/home/chayas/anaconda/envs/py35/share/psi4/basis/aug-cc-pvtz-jkfit.gbs 
    atoms 14-23 entry H          line    69 file /cbio/jclab/home/chayas/anaconda/envs/py35/share/psi4/basis/aug-cc-pvtz-jkfit.gbs 

  Reading orbitals from file 180, no projection.

  ==> Pre-Iterations <==

   -------------------------------------------------------
    Irrep   Nso     Nmo     Nalpha   Nbeta   Ndocc  Nsocc
   -------------------------------------------------------
     A        828     828       0       0       0       0
   -------------------------------------------------------
    Total     828     828      45      45      45       0
   -------------------------------------------------------

  ==> Integral Setup <==

  ==> DFJK: Density-Fitted J/K Matrices <==

    J tasked:                  Yes
    K tasked:                  Yes
    wK tasked:                  No
    OpenMP threads:              8
    Integrals threads:           8
    Memory (MB):              3576
    Algorithm:                Disk
    Integral Cache:           NONE
    Schwarz Cutoff:          1E-12
    Fitting Condition:       1E-12

   => Auxiliary Basis Set <=

  Basis Set: (AUG-CC-PVTZ AUX)
    Blend: AUG-CC-PVTZ-JKFIT
    Number of shells: 530
    Number of basis function: 1812
    Number of Cartesian functions: 2253
    Spherical Harmonics?: true
    Max angular momentum: 4

  Minimum eigenvalue in the overlap matrix is 5.1878281878E-07.
  Using Symmetric Orthogonalization.

  SCF Guess: Orbitals guess was supplied from a previous computation.

  ==> Iterations <==

                           Total Energy        Delta E     RMS |[F,P]|

   @DF-RHF iter   0:  -551.79292426587142   -5.51793e+02   3.62515e-04 
   @DF-RHF iter   1:  -551.68088610170753    1.12038e-01   9.86763e-05 
   @DF-RHF iter   2:  -551.68128513636589   -3.99035e-04   7.94907e-05 DIIS
   @DF-RHF iter   3:  -551.68158463340319   -2.99497e-04   1.09406e-05 DIIS
   @DF-RHF iter   4:  -551.68159334806137   -8.71466e-06   3.15905e-06 DIIS
   @DF-RHF iter   5:  -551.68159556802982   -2.21997e-06   1.31152e-06 DIIS
   @DF-RHF iter   6:  -551.68159602231128   -4.54281e-07   7.24351e-07 DIIS
   @DF-RHF iter   7:  -551.68159620013034   -1.77819e-07   3.62227e-07 DIIS
   @DF-RHF iter   8:  -551.68159625466001   -5.45297e-08   1.21464e-07 DIIS
   @DF-RHF iter   9:  -551.68159625986345   -5.20345e-09   4.74010e-08 DIIS
   @DF-RHF iter  10:  -551.68159626020588   -3.42425e-10   1.75616e-08 DIIS
   @DF-RHF iter  11:  -551.68159626024135   -3.54703e-11   4.20999e-09 DIIS
   @DF-RHF iter  12:  -551.68159626025431   -1.29603e-11   1.74933e-09 DIIS
   @DF-RHF iter  13:  -551.68159626024828    6.02540e-12   1.04713e-09 DIIS
   @DF-RHF iter  14:  -551.68159626026204   -1.37561e-11   4.48649e-10 DIIS
   @DF-RHF iter  15:  -551.68159626024487    1.71667e-11   2.09529e-10 DIIS
   @DF-RHF iter  16:  -551.68159626025738   -1.25056e-11   4.79633e-11 DIIS

  ==> Post-Iterations <==

    Orbital Energies (a.u.)
    -----------------------

    Doubly Occupied:                                                      

       1A    -20.705879     2A    -15.829374     3A    -11.480959  
       4A    -11.480910     5A    -11.448828     6A    -11.433775  
       7A    -11.411156     8A    -11.410856     9A    -11.379530  
      10A    -11.376917    11A    -11.372472    12A    -11.356012  
      13A    -11.349930    14A     -1.526281    15A     -1.508506  
      16A     -1.318475    17A     -1.266197    18A     -1.238192  
      19A     -1.156171    20A     -1.154487    21A     -1.064913  
      22A     -1.056229    23A     -0.978476    24A     -0.962037  
      25A     -0.952153    26A     -0.871928    27A     -0.860925  
      28A     -0.854611    29A     -0.821079    30A     -0.800138  
      31A     -0.783194    32A     -0.772556    33A     -0.757902  
      34A     -0.732636    35A     -0.721285    36A     -0.709256  
      37A     -0.705342    38A     -0.686720    39A     -0.657801  
      40A     -0.637054    41A     -0.620305    42A     -0.570017  
      43A     -0.538957    44A     -0.472659    45A     -0.437037  

    Virtual:                                                              

      46A     -0.105875    47A     -0.083548    48A     -0.062541  
      49A     -0.060317    50A     -0.058567    51A     -0.049046  
      52A     -0.043681    53A     -0.039329    54A     -0.034301  
      55A     -0.028189    56A     -0.025422    57A     -0.023558  
      58A     -0.016865    59A     -0.009055    60A     -0.005806  
      61A     -0.001464    62A      0.003617    63A      0.006423  
      64A      0.009445    65A      0.015586    66A      0.017554  
      67A      0.021463    68A      0.024080    69A      0.024969  
      70A      0.028783    71A      0.031968    72A      0.036606  
      73A      0.038304    74A      0.040287    75A      0.045066  
      76A      0.049342    77A      0.055503    78A      0.058274  
      79A      0.060483    80A      0.067425    81A      0.068234  
      82A      0.072732    83A      0.074456    84A      0.078046  
      85A      0.083935    86A      0.086471    87A      0.088574  
      88A      0.095481    89A      0.098287    90A      0.108596  
      91A      0.110824    92A      0.114825    93A      0.121237  
      94A      0.123153    95A      0.125220    96A      0.128865  
      97A      0.132660    98A      0.137384    99A      0.140181  
     100A      0.144832   101A      0.153049   102A      0.158007  
     103A      0.162179   104A      0.163778   105A      0.167396  
     106A      0.168720   107A      0.170954   108A      0.173653  
     109A      0.177567   110A      0.182814   111A      0.188760  
     112A      0.190357   113A      0.192091   114A      0.197356  
     115A      0.205318   116A      0.206698   117A      0.210343  
     118A      0.213506   119A      0.217757   120A      0.220240  
     121A      0.224727   122A      0.228558   123A      0.231046  
     124A      0.233449   125A      0.234618   126A      0.240752  
     127A      0.242558   128A      0.250495   129A      0.251475  
     130A      0.257663   131A      0.259077   132A      0.273707  
     133A      0.278252   134A      0.280091   135A      0.280765  
     136A      0.287125   137A      0.288061   138A      0.293508  
     139A      0.301333   140A      0.309041   141A      0.311420  
     142A      0.311830   143A      0.316338   144A      0.318754  
     145A      0.323502   146A      0.325013   147A      0.331139  
     148A      0.333814   149A      0.336401   150A      0.339615  
     151A      0.341754   152A      0.344017   153A      0.349155  
     154A      0.350988   155A      0.356478   156A      0.361006  
     157A      0.366037   158A      0.368445   159A      0.371171  
     160A      0.374696   161A      0.375588   162A      0.379995  
     163A      0.383934   164A      0.387816   165A      0.390160  
     166A      0.394724   167A      0.398378   168A      0.401539  
     169A      0.404154   170A      0.407611   171A      0.412627  
     172A      0.414524   173A      0.418808   174A      0.421152  
     175A      0.424308   176A      0.429332   177A      0.430277  
     178A      0.437957   179A      0.439151   180A      0.443354  
     181A      0.449019   182A      0.453547   183A      0.458732  
     184A      0.464228   185A      0.472198   186A      0.476007  
     187A      0.482195   188A      0.488576   189A      0.494561  
     190A      0.501579   191A      0.505895   192A      0.510196  
     193A      0.519019   194A      0.528881   195A      0.529407  
     196A      0.537536   197A      0.543217   198A      0.549567  
     199A      0.552114   200A      0.564406   201A      0.571963  
     202A      0.574913   203A      0.577967   204A      0.580941  
     205A      0.585261   206A      0.587894   207A      0.596042  
     208A      0.601760   209A      0.608688   210A      0.613013  
     211A      0.620304   212A      0.622846   213A      0.627361  
     214A      0.632861   215A      0.638740   216A      0.643291  
     217A      0.646798   218A      0.650614   219A      0.654374  
     220A      0.668407   221A      0.676695   222A      0.680615  
     223A      0.693700   224A      0.701079   225A      0.703218  
     226A      0.705004   227A      0.708362   228A      0.712261  
     229A      0.717345   230A      0.718796   231A      0.725227  
     232A      0.732931   233A      0.734780   234A      0.737725  
     235A      0.739989   236A      0.744629   237A      0.758442  
     238A      0.759741   239A      0.764146   240A      0.768763  
     241A      0.773617   242A      0.778023   243A      0.780769  
     244A      0.785156   245A      0.789377   246A      0.794737  
     247A      0.796725   248A      0.804425   249A      0.806242  
     250A      0.812112   251A      0.815876   252A      0.818511  
[...]
	 B(4,2,9)         =         2.106811	     120.711367
	 B(4,2,15)        =         2.073063	     118.777733
	 B(4,11,13)       =         2.154356	     123.435495
	 B(5,7,12)        =         2.084995	     119.461442
	 B(5,7,20)        =         2.157574	     123.619887
	 B(5,10,6)        =         2.039367	     116.847121
	 B(5,10,9)        =         2.120117	     121.473728
	 B(6,8,12)        =         2.085107	     119.467854
	 B(6,8,21)        =         2.157548	     123.618369
	 B(6,10,9)        =         2.123655	     121.676462
	 B(7,5,10)        =         2.109913	     120.889126
	 B(7,5,18)        =         2.066233	     118.386453
	 B(7,12,8)        =         2.137124	     122.448189
	 B(7,12,22)       =         2.073000	     118.774171
	 B(8,6,10)        =         2.109849	     120.885422
	 B(8,6,19)        =         2.065863	     118.365206
	 B(8,12,22)       =         2.073061	     118.777626
	 B(9,1,14)        =         2.100979	     120.377218
	 B(9,2,15)        =         2.102033	     120.437640
	 B(10,5,18)       =         2.106644	     120.701822
	 B(10,6,19)       =         2.106974	     120.720739
	 B(11,3,16)       =         2.073892	     118.825278
	 B(11,4,17)       =         2.094921	     120.030137
	 B(11,13,23)      =         1.930160	     110.590025
	 B(12,7,20)       =         2.040532	     116.913879
	 B(12,8,21)       =         2.040462	     116.909883
	 D(1,3,11,4)      =        -0.008392	      -0.480798
	 D(1,3,11,13)     =         3.133000	     179.507703
	 D(1,9,2,4)       =        -0.015737	      -0.901669
	 D(1,9,2,15)      =        -3.102343	    -177.751179
	 D(1,9,10,5)      =         0.521732	      29.893039
	 D(1,9,10,6)      =        -2.630601	    -150.722316
	 D(2,4,11,3)      =        -0.007501	      -0.429756
	 D(2,4,11,13)     =         3.134307	     179.582548
	 D(2,9,1,3)       =        -0.000305	      -0.017480
	 D(2,9,1,14)      =        -3.093941	    -177.269738
	 D(2,9,10,5)      =        -2.634406	    -150.940349
	 D(2,9,10,6)      =         0.496447	      28.444296
	 D(3,1,9,10)      =         3.127037	     179.166015
	 D(3,11,4,17)     =         3.126350	     179.126668
	 D(3,11,13,23)    =         3.136656	     179.717145
	 D(4,2,9,10)      =         3.140122	     179.915743
	 D(4,11,3,16)     =         3.122498	     178.905943
	 D(4,11,13,23)    =        -0.005145	      -0.294811
	 D(5,7,12,8)      =         0.000048	       0.002732
	 D(5,7,12,22)     =        -3.140794	    -179.954253
	 D(5,10,6,8)      =        -0.004149	      -0.237698
	 D(5,10,6,19)     =        -3.111215	    -178.259494
	 D(6,8,12,7)      =         0.001928	       0.110482
	 D(6,8,12,22)     =        -3.140415	    -179.932534
	 D(6,10,5,7)      =         0.006126	       0.350982
	 D(6,10,5,18)     =        -3.104799	    -177.891893
	 D(7,5,10,9)      =         3.137474	     179.764035
	 D(7,12,8,21)     =         3.131445	     179.418554
	 D(8,6,10,9)      =        -3.135475	    -179.649473
	 D(8,12,7,20)     =         3.128247	     179.235347
	 D(9,1,3,11)      =         0.012256	       0.702213
	 D(9,1,3,16)      =        -3.118375	    -178.669698
	 D(9,2,4,11)      =         0.019671	       1.127085
	 D(9,2,4,17)      =        -3.114185	    -178.429648
	 D(9,10,5,18)     =         0.026549	       1.521160
	 D(9,10,6,19)     =         0.040644	       2.328731
	 D(10,5,7,12)     =        -0.004219	      -0.241712
	 D(10,5,7,20)     =        -3.131470	    -179.419991
	 D(10,6,8,12)     =         0.000256	       0.014688
	 D(10,6,8,21)     =        -3.128405	    -179.244379
	 D(10,9,1,14)     =         0.033401	       1.913757
	 D(10,9,2,15)     =         0.053516	       3.066233
	 D(11,3,1,14)     =         3.106660	     177.998485
	 D(11,4,2,15)     =         3.107176	     178.028092
	 D(12,7,5,18)     =         3.107401	     178.040971
	 D(12,8,6,19)     =         3.108118	     178.082070
	 D(13,11,3,16)    =        -0.019296	      -1.105557
	 D(13,11,4,17)    =        -0.015028	      -0.861027
	 D(14,1,3,16)     =        -0.023971	      -1.373426
	 D(15,2,4,17)     =        -0.026680	      -1.528641
	 D(18,5,7,20)     =        -0.019850	      -1.137308
	 D(19,6,8,21)     =        -0.020542	      -1.176997
	 D(20,7,12,22)    =        -0.012595	      -0.721638
	 D(21,8,12,22)    =        -0.010899	      -0.624462

	Current energy   :      -554.1022077340

	Energy change for the previous step:
		Projected    :        -0.0000070582
		Actual       :        -0.0000031475

	Performing BFGS update.
	Previous computed or guess Hessian on step 1.
	Steps to be used in Hessian update: 4 3
	Adding user-defined constraint: Fragment 1; Coordinate 66:
		Value =     0.521732; Fixed value    =     0.523600
		Force =     0.001121; Force constant =     0.600000
	Removing off-diagonal coupling between coordinate 66 and others.
	Taking RFO optimization step.
	Going to follow RFO solution 1.
	Using RFO vector 1.
	Norm of target step-size    0.00298
	Projected energy change by RFO approximation:        -0.0000008184

	Back-transformation to cartesian coordinates...
	Successfully converged to displaced geometry.

	--- Internal Coordinate Step in ANG or DEG, aJ/ANG or AJ/DEG ---
	 ---------------------------------------------------------------------------
	   Coordinate                Previous        Force       Change         New 
	   ----------                --------       ------       ------       ------
	    1 R(1,3)          =      1.377249    -0.000328    -0.000071     1.377177
	    2 R(1,9)          =      1.399698     0.000839     0.000144     1.399842
	    3 R(1,14)         =      1.079686    -0.000041    -0.000011     1.079675
	    4 R(2,4)          =      1.379814     0.000367     0.000049     1.379862
	    5 R(2,9)          =      1.397799    -0.000349    -0.000049     1.397749
	    6 R(2,15)         =      1.079660     0.000186     0.000032     1.079691
	    7 R(3,11)         =      1.393371     0.000328     0.000065     1.393437
	    8 R(3,16)         =      1.078506     0.000255     0.000047     1.078554
	    9 R(4,11)         =      1.393324    -0.000192    -0.000030     1.393294
	   10 R(4,17)         =      1.080295     0.000100     0.000017     1.080312
	   11 R(5,7)          =      1.371468     0.000326     0.000038     1.371506
	   12 R(5,10)         =      1.401768     0.000183     0.000040     1.401808
	   13 R(5,18)         =      1.077543    -0.000004    -0.000002     1.077541
	   14 R(6,8)          =      1.371467     0.000394     0.000044     1.371511
	   15 R(6,10)         =      1.401664    -0.000217    -0.000019     1.401645
	   16 R(6,19)         =      1.077493     0.000128     0.000022     1.077515
	   17 R(7,12)         =      1.343613    -0.000221    -0.000026     1.343587
	   18 R(7,20)         =      1.077243     0.000097     0.000017     1.077260
	   19 R(8,12)         =      1.343624    -0.000439    -0.000052     1.343573
	   20 R(8,21)         =      1.077214     0.000103     0.000019     1.077233
	   21 R(9,10)         =      1.443376     0.000216    -0.000008     1.443367
	   22 R(11,13)        =      1.343070     0.000101    -0.000008     1.343063
	   23 R(12,22)        =      1.011610     0.000129     0.000018     1.011627
	   24 R(13,23)        =      0.963795     0.000226     0.000026     0.963821
	   25 B(1,3,11)       =    119.976833     0.000002     0.006155   119.982988
	   26 B(1,3,16)       =    121.194978     0.000002     0.017694   121.212672
	   27 B(1,9,2)        =    118.663270    -0.000001    -0.003826   118.659444
	   28 B(1,9,10)       =    120.612136     0.000001     0.002618   120.614754
	   29 B(2,4,11)       =    120.007234    -0.000001    -0.004994   120.002240
	   30 B(2,4,17)       =    119.961144    -0.000001    -0.006243   119.954901
	   31 B(2,9,10)       =    120.719484    -0.000000     0.001035   120.720519
	   32 B(3,1,9)        =    120.819650    -0.000001    -0.004901   120.814750
	   33 B(3,1,14)       =    118.747451     0.000002     0.010411   118.757861
	   34 B(3,11,4)       =    119.810731    -0.000000    -0.001030   119.809701
	   35 B(3,11,13)      =    116.753773     0.000003     0.006785   116.760558
	   36 B(4,2,9)        =    120.711367     0.000002     0.007400   120.718766
	   37 B(4,2,15)       =    118.777733    -0.000000     0.000530   118.778263
	   38 B(4,11,13)      =    123.435495    -0.000003    -0.005756   123.429739
	   39 B(5,7,12)       =    119.461442     0.000002     0.006720   119.468162
	   40 B(5,7,20)       =    123.619887    -0.000002    -0.008652   123.611235
	   41 B(5,10,6)       =    116.847121    -0.000000    -0.002343   116.844779
	   42 B(5,10,9)       =    121.473728     0.000003     0.006760   121.480488
	   43 B(6,8,12)       =    119.467854     0.000003     0.008910   119.476764
	   44 B(6,8,21)       =    123.618369    -0.000002    -0.010898   123.607470
	   45 B(6,10,9)       =    121.676462    -0.000002    -0.004584   121.671878
	   46 B(7,5,10)       =    120.889126    -0.000001    -0.001994   120.887131
	   47 B(7,5,18)       =    118.386453    -0.000001    -0.009891   118.376562
	   48 B(7,12,8)       =    122.448189    -0.000002    -0.009081   122.439108
	   49 B(7,12,22)      =    118.774171     0.000001     0.005129   118.779301
	   50 B(8,6,10)       =    120.885422    -0.000001    -0.002319   120.883103
	   51 B(8,6,19)       =    118.365206    -0.000001    -0.007402   118.357804
	   52 B(8,12,22)      =    118.777626     0.000001     0.003949   118.781574
	   53 B(9,1,14)       =    120.377218    -0.000001    -0.006016   120.371202
	   54 B(9,2,15)       =    120.437640    -0.000002    -0.008540   120.429100
	   55 B(10,5,18)      =    120.701822     0.000003     0.012049   120.713871
	   56 B(10,6,19)      =    120.720739     0.000002     0.010250   120.730989
	   57 B(11,3,16)      =    118.825278    -0.000004    -0.023469   118.801808
	   58 B(11,4,17)      =    120.030137     0.000002     0.011589   120.041725
	   59 B(11,13,23)     =    110.590025     0.000000     0.002268   110.592293
	   60 B(12,7,20)      =    116.913879    -0.000000     0.001637   116.915516
	   61 B(12,8,21)      =    116.909883    -0.000000     0.001842   116.911725
	   62 D(1,3,11,4)     =     -0.480798    -0.000000    -0.038072    -0.518870
	   63 D(1,3,11,13)    =    179.507703    -0.000000    -0.009044   179.498659
	   64 D(1,9,2,4)      =     -0.901669    -0.000000    -0.035482    -0.937151
	   65 D(1,9,2,15)     =   -177.751179    -0.000000    -0.022412  -177.773591
	   66 D(1,9,10,5)     =     29.893039    -0.000000    -0.000921    29.892119
	   67 D(1,9,10,6)     =   -150.722316    -0.000000    -0.019735  -150.742051
	   68 D(2,4,11,3)     =     -0.429756    -0.000000    -0.015105    -0.444861
	   69 D(2,4,11,13)    =    179.582548    -0.000000    -0.046164   179.536384
	   70 D(2,9,1,3)      =     -0.017480    -0.000000    -0.018273    -0.035753
	   71 D(2,9,1,14)     =   -177.269738    -0.000000    -0.006101  -177.275839
	   72 D(2,9,10,5)     =   -150.940349    -0.000000    -0.014967  -150.955317
	   73 D(2,9,10,6)     =     28.444296    -0.000000    -0.033782    28.410514
	   74 D(3,1,9,10)     =    179.166015    -0.000000    -0.031996   179.134019
	   75 D(3,11,4,17)    =    179.126668     0.000000     0.040962   179.167630
	   76 D(3,11,13,23)   =    179.717145    -0.000000    -0.012861   179.704284
	   77 D(4,2,9,10)     =    179.915743    -0.000000    -0.021757   179.893986
	   78 D(4,11,3,16)    =    178.905943    -0.000000     0.003437   178.909380
	   79 D(4,11,13,23)   =     -0.294811     0.000000     0.017320    -0.277491
	   80 D(5,7,12,8)     =      0.002732     0.000000     0.008748     0.011481
	   81 D(5,7,12,22)    =   -179.954253     0.000000     0.013646  -179.940607
	   82 D(5,10,6,8)     =     -0.237698     0.000000     0.001033    -0.236665
	   83 D(5,10,6,19)    =   -178.259494    -0.000000    -0.017163  -178.276657
	   84 D(6,8,12,7)     =      0.110482     0.000000     0.012493     0.122975
	   85 D(6,8,12,22)    =   -179.932534     0.000000     0.007596  -179.924939
	   86 D(6,10,5,7)     =      0.350982     0.000000     0.020197     0.371179
	   87 D(6,10,5,18)    =   -177.891893     0.000000     0.014005  -177.877888
	   88 D(7,5,10,9)     =    179.764035     0.000000     0.002234   179.766269
	   89 D(7,12,8,21)    =    179.418554    -0.000000    -0.000402   179.418152
	   90 D(8,6,10,9)     =   -179.649473     0.000000     0.018962  -179.630512
	   91 D(8,12,7,20)    =    179.235347    -0.000000    -0.014611   179.220736
	   92 D(9,1,3,11)     =      0.702213     0.000000     0.054814     0.757027
	   93 D(9,1,3,16)     =   -178.669698     0.000000     0.012542  -178.657156
	   94 D(9,2,4,11)     =      1.127085     0.000000     0.052078     1.179163
	   95 D(9,2,4,17)     =   -178.429648     0.000000    -0.004019  -178.433667
	   96 D(9,10,5,18)    =      1.521160     0.000000    -0.003959     1.517201
	   97 D(9,10,6,19)    =      2.328731     0.000000     0.000766     2.329497
	   98 D(10,5,7,12)    =     -0.241712    -0.000000    -0.025408    -0.267120
	   99 D(10,5,7,20)    =   -179.419991     0.000000    -0.000492  -179.420483
	  100 D(10,6,8,12)    =      0.014688    -0.000000    -0.017174    -0.002486
	  101 D(10,6,8,21)    =   -179.244379     0.000000    -0.003474  -179.247853
	  102 D(10,9,1,14)    =      1.913757    -0.000000    -0.019824     1.893933
	  103 D(10,9,2,15)    =      3.066233    -0.000000    -0.008687     3.057546
	  104 D(11,3,1,14)    =    177.998485     0.000000     0.042399   178.040884
	  105 D(11,4,2,15)    =    178.028092     0.000000     0.038934   178.067026
	  106 D(12,7,5,18)    =    178.040971    -0.000000    -0.018983   178.021988
	  107 D(12,8,6,19)    =    178.082070    -0.000000     0.000939   178.083009
	  108 D(13,11,3,16)   =     -1.105557     0.000000     0.032466    -1.073091
	  109 D(13,11,4,17)   =     -0.861027     0.000000     0.009903    -0.851125
	  110 D(14,1,3,16)    =     -1.373426     0.000000     0.000128    -1.373299
	  111 D(15,2,4,17)    =     -1.528641    -0.000000    -0.017164    -1.545804
	  112 D(18,5,7,20)    =     -1.137308     0.000000     0.005934    -1.131374
	  113 D(19,6,8,21)    =     -1.176997     0.000000     0.014639    -1.162357
	  114 D(20,7,12,22)   =     -0.721638    -0.000000    -0.009714    -0.731352
	  115 D(21,8,12,22)   =     -0.624462    -0.000000    -0.005299    -0.629761
	 ---------------------------------------------------------------------------
	Successfully symmetrized geometry.
	 Forces used to impose fixed constraints are not included.
	  Forces zeroed: 66 

  ==> Convergence Check <==

  Measures of convergence in internal coordinates in au.
  Criteria marked as inactive (o), active & met (*), and active & unmet ( ).
  ---------------------------------------------------------------------------------------------
   Step     Total Energy     Delta E     MAX Force     RMS Force      MAX Disp      RMS Disp   
  ---------------------------------------------------------------------------------------------
    Convergence Criteria    1.00e-06 *    3.00e-04 *             o    1.20e-03 *             o
  ---------------------------------------------------------------------------------------------
      5    -554.10220773   -3.15e-06      1.02e-04 *    2.18e-05 o    9.57e-04 *    2.78e-04 o  ~
  ---------------------------------------------------------------------------------------------


  **** Optimization is complete! (in 5 steps) ****

  ==> Optimization Summary <==

  Measures of convergence in internal coordinates in au.
  --------------------------------------------------------------------------------------------------------------- ~
   Step         Total Energy             Delta E       MAX Force       RMS Force        MAX Disp        RMS Disp  ~
  --------------------------------------------------------------------------------------------------------------- ~
      1    -554.098328232862   -554.098328232862      0.01454219      0.00453837      0.03300892      0.00931114  ~
      2    -554.101419962116     -0.003091729254      0.00561236      0.00155375      0.02376290      0.00932104  ~
      3    -554.102138078675     -0.000718116559      0.00168410      0.00034539      0.02385383      0.00633403  ~
      4    -554.102204586482     -0.000066507807      0.00047890      0.00008275      0.00283965      0.00108704  ~
      5    -554.102207733987     -0.000003147505      0.00010185      0.00002177      0.00095668      0.00027829  ~
  --------------------------------------------------------------------------------------------------------------- ~

	Writing optimization data to binary file.
	Final energy is   -554.1022077339875
	Final (previous) structure:
	Cartesian Geometry (in Angstrom)
	    C    -1.2805571807   0.7395204331  -0.5496168866
	    C    -0.2949934191   0.1004310272   1.5504148339
	    C    -2.3489006107   1.2975285437   0.1167793357
	    C    -1.3541079938   0.6748196277   2.2229028919
	    C     1.2986354093   0.0164940427  -1.7941588201
	    C     1.5844104425  -1.5524070467  -0.0161945887
	    C     2.3567232658  -0.5590179995  -2.4500248184
	    C     2.6400069069  -2.1047864519  -0.6955432205
	    C    -0.2348658869   0.1310292235   0.1542452717
	    C     0.8738582623  -0.4681797242  -0.5493260092
	    C    -2.3904233697   1.2733213036   1.5093213629
	    N     2.9964911698  -1.5982398221  -1.8878752849
	    O    -3.4568395253   1.8448120274   2.0924103454
	    H    -1.2842725505   0.7401556069  -1.6292964954
	    H     0.5129145371  -0.3292841197   2.1233847545
	    H    -3.1680766202   1.7490688125  -0.4200983419
	    H    -1.3757271132   0.6664835869   3.3029496526
	    H     0.8184870301   0.8689934667  -2.2456011068
	    H     1.2939081555  -1.9923090551   0.9235318020
	    H     2.7253229405  -0.2170005138  -3.4027104235
	    H     3.2085503490  -2.9448809033  -0.3330659496
	    H     3.7759877999  -2.0143628716  -2.3804000534
	    H    -3.3970948292   1.7740552415   3.0517462701
	Saving final (previous) structure.
			--------------------------
			 OPTKING Finished Execution 
			--------------------------

    Final optimized geometry and variables:
    Molecular point group: c1
    Full point group: C1

    Geometry (in Angstrom), charge = 1, multiplicity = 1:

    C           -1.280557180651     0.739520433072    -0.549616886606
    C           -0.294993419148     0.100431027190     1.550414833892
    C           -2.348900610673     1.297528543698     0.116779335745
    C           -1.354107993792     0.674819627733     2.222902891880
    C            1.298635409296     0.016494042658    -1.794158820067
    C            1.584410442479    -1.552407046682    -0.016194588675
    C            2.356723265802    -0.559017999496    -2.450024818399
    C            2.640006906864    -2.104786451866    -0.695543220491
    C           -0.234865886947     0.131029223460     0.154245271710
    C            0.873858262317    -0.468179724222    -0.549326009201
    C           -2.390423369748     1.273321303583     1.509321362926
    N            2.996491169761    -1.598239822115    -1.887875284918
    O           -3.456839525298     1.844812027392     2.092410345400
    H           -1.284272550536     0.740155606907    -1.629296495402
    H            0.512914537119    -0.329284119725     2.123384754483
    H           -3.168076620249     1.749068812477    -0.420098341864
    H           -1.375727113233     0.666483586912     3.302949652585
    H            0.818487030053     0.868993466745    -2.245601106779
    H            1.293908155501    -1.992309055068     0.923531802042
    H            2.725322940540    -0.217000513753    -3.402710423496
    H            3.208550348986    -2.944880903339    -0.333065949568
    H            3.775987799940    -2.014362871630    -2.380400053397
    H           -3.397094829250     1.774055241480     3.051746270076

	Cleaning optimization helper files.

*** Psi4 exiting successfully. Buy a developer a beer!
