
    -----------------------------------------------------------------------
          Psi4: An Open-Source Ab Initio Electronic Structure Package
                               Psi4 1.1 release

                         Git: Rev {HEAD} add49b9 


    R. M. Parrish, L. A. Burns, D. G. A. Smith, A. C. Simmonett,
    A. E. DePrince III, E. G. Hohenstein, U. Bozkaya, A. Yu. Sokolov,
    R. Di Remigio, R. M. Richard, J. F. Gonthier, A. M. James,
    H. R. McAlexander, A. Kumar, M. Saitow, X. Wang, B. P. Pritchard,
    P. Verma, H. F. Schaefer III, K. Patkowski, R. A. King, E. F. Valeev,
    F. A. Evangelista, J. M. Turney, T. D. Crawford, and C. D. Sherrill,
    J. Chem. Theory Comput. in press (2017).
    (doi: 10.1021/acs.jctc.7b00174)

    -----------------------------------------------------------------------


    Psi4 started on: Saturday, 11 November 2017 09:42PM

    Process ID:  22011
    PSIDATADIR: /cbio/jclab/home/chayas/anaconda/envs/py35/share/psi4
    Memory:     500.0 MiB
    Threads:    8
    
  ==> Input File <==

--------------------------------------------------------------------------

memory 5 Gb

molecule phepyrFOH_neutral {
  symmetry C1
  0 1 
  C      1.885   -1.036   -0.112
  C      0.807   -0.463   0.561
  C      4.322   -3.577   0.062
  C      4.830   -1.446   -0.931
  C      1.800   -1.079   2.676
  C      5.401   -4.097   -0.634
  C      5.886   -2.062   -1.582
  C      2.921   -1.631   0.608
  C      4.038   -2.225   -0.095
  C      0.764   -0.484   1.955
  C      2.878   -1.652   2.002
  N      6.193   -3.372   -1.455
  O      -0.289   0.076   2.612
  F      3.866   -2.220   2.709
  H      1.904   -1.012   -1.199
  H      0.002   -0.002   -0.006
  H      3.727   -4.217   0.705
  H      4.638   -0.388   -1.078
  H      1.772   -1.099   3.762
  H      5.664   -5.147   -0.547
  H      6.534   -1.498   -2.245
  H      -0.175   -0.018   3.571
  units Angstrom
}

dih_string = "1 8 9 3 240"
set optking fixed_dihedral = $dih_string

optimize('MP2/aug-cc-PVTZ')
--------------------------------------------------------------------------

  Memory set to   4.657 GiB by Python driver.
gradient() will perform analytic gradient computation.

*** tstart() called on gpu-2-6.local
*** at Sat Nov 11 21:42:57 2017

    SCF Algorithm Type (re)set to DF.

*** tstart() called on gpu-2-6.local
*** at Sat Nov 11 21:42:57 2017

   => Loading Basis Set <=

    Name: AUG-CC-PVTZ
    Role: ORBITAL
    Keyword: BASIS
    atoms 1-11  entry C          line   221 file /cbio/jclab/home/chayas/anaconda/envs/py35/share/psi4/basis/aug-cc-pvtz.gbs 
    atoms 12    entry N          line   267 file /cbio/jclab/home/chayas/anaconda/envs/py35/share/psi4/basis/aug-cc-pvtz.gbs 
    atoms 13    entry O          line   313 file /cbio/jclab/home/chayas/anaconda/envs/py35/share/psi4/basis/aug-cc-pvtz.gbs 
    atoms 14    entry F          line   359 file /cbio/jclab/home/chayas/anaconda/envs/py35/share/psi4/basis/aug-cc-pvtz.gbs 
    atoms 15-22 entry H          line    34 file /cbio/jclab/home/chayas/anaconda/envs/py35/share/psi4/basis/aug-cc-pvtz.gbs 


         ---------------------------------------------------------
                                   SCF
            by Justin Turney, Rob Parrish, and Andy Simmonett
                              RHF Reference
                        8 Threads,   4768 MiB Core
         ---------------------------------------------------------

  ==> Geometry <==

    Molecular point group: c1
    Full point group: C1

    Geometry (in Angstrom), charge = 0, multiplicity = 1:

       Center              X                  Y                   Z               Mass       
    ------------   -----------------  -----------------  -----------------  -----------------
           C         -1.321325413689     0.755445676154    -0.799494959991    12.000000000000
           C         -2.399325413689     1.328445676154    -0.126494959991    12.000000000000
           C          1.115674586311    -1.785554323846    -0.625494959991    12.000000000000
           C          1.623674586311     0.345445676154    -1.618494959991    12.000000000000
           C         -1.406325413689     0.712445676154     1.988505040009    12.000000000000
           C          2.194674586311    -2.305554323846    -1.321494959991    12.000000000000
           C          2.679674586311    -0.270554323846    -2.269494959991    12.000000000000
           C         -0.285325413689     0.160445676154    -0.079494959991    12.000000000000
           C          0.831674586311    -0.433554323846    -0.782494959991    12.000000000000
           C         -2.442325413689     1.307445676154     1.267505040009    12.000000000000
           C         -0.328325413689     0.139445676154     1.314505040009    12.000000000000
           N          2.986674586311    -1.580554323846    -2.142494959991    14.003074004780
           O         -3.495325413689     1.867445676154     1.924505040009    15.994914619560
           F          0.659674586311    -0.428554323846     2.021505040009    18.998403224000
           H         -1.302325413689     0.779445676154    -1.886494959991     1.007825032070
           H         -3.204325413689     1.789445676154    -0.693494959991     1.007825032070
           H          0.520674586311    -2.425554323846     0.017505040009     1.007825032070
           H          1.431674586311     1.403445676154    -1.765494959991     1.007825032070
           H         -1.434325413689     0.692445676154     3.074505040009     1.007825032070
           H          2.457674586311    -3.355554323846    -1.234494959991     1.007825032070
           H          3.327674586311     0.293445676154    -2.932494959991     1.007825032070
           H         -3.381325413689     1.773445676154     2.883505040009     1.007825032070

  Running in c1 symmetry.

  Rotational constants: A =      0.06327  B =      0.01308  C =      0.01165 [cm^-1]
  Rotational constants: A =   1896.65692  B =    392.04471  C =    349.25438 [MHz]
  Nuclear repulsion =  814.059358179480114

  Charge       = 0
  Multiplicity = 1
  Electrons    = 98
  Nalpha       = 49
  Nbeta        = 49

  ==> Algorithm <==

  SCF Algorithm Type is DF.
  DIIS enabled.
  MOM disabled.
  Fractional occupation disabled.
  Guess Type is SAD.
  Energy threshold   = 1.00e-10
  Density threshold  = 1.00e-10
  Integral threshold = 0.00e+00

  ==> Primary Basis <==

  Basis Set: AUG-CC-PVTZ
    Blend: AUG-CC-PVTZ
    Number of shells: 268
    Number of basis function: 828
    Number of Cartesian functions: 970
    Spherical Harmonics?: true
    Max angular momentum: 3

   => Loading Basis Set <=

    Name: (AUG-CC-PVTZ AUX)
    Role: JKFIT
    Keyword: DF_BASIS_SCF
    atoms 1-11  entry C          line   161 file /cbio/jclab/home/chayas/anaconda/envs/py35/share/psi4/basis/aug-cc-pvtz-jkfit.gbs 
    atoms 12    entry N          line   223 file /cbio/jclab/home/chayas/anaconda/envs/py35/share/psi4/basis/aug-cc-pvtz-jkfit.gbs 
    atoms 13    entry O          line   285 file /cbio/jclab/home/chayas/anaconda/envs/py35/share/psi4/basis/aug-cc-pvtz-jkfit.gbs 
    atoms 14    entry F          line   347 file /cbio/jclab/home/chayas/anaconda/envs/py35/share/psi4/basis/aug-cc-pvtz-jkfit.gbs 
    atoms 15-22 entry H          line    69 file /cbio/jclab/home/chayas/anaconda/envs/py35/share/psi4/basis/aug-cc-pvtz-jkfit.gbs 

  ==> Pre-Iterations <==

   -------------------------------------------------------
    Irrep   Nso     Nmo     Nalpha   Nbeta   Ndocc  Nsocc
   -------------------------------------------------------
     A        828     828       0       0       0       0
   -------------------------------------------------------
    Total     828     828      49      49      49       0
   -------------------------------------------------------

  ==> Integral Setup <==

  ==> DFJK: Density-Fitted J/K Matrices <==

    J tasked:                  Yes
    K tasked:                  Yes
    wK tasked:                  No
    OpenMP threads:              8
    Integrals threads:           8
    Memory (MB):              3576
    Algorithm:                Disk
    Integral Cache:           NONE
    Schwarz Cutoff:          1E-12
    Fitting Condition:       1E-12

   => Auxiliary Basis Set <=

  Basis Set: (AUG-CC-PVTZ AUX)
    Blend: AUG-CC-PVTZ-JKFIT
    Number of shells: 532
    Number of basis function: 1824
    Number of Cartesian functions: 2274
    Spherical Harmonics?: true
    Max angular momentum: 4

  Minimum eigenvalue in the overlap matrix is 7.2445352822E-07.
  Using Symmetric Orthogonalization.

  SCF Guess: Superposition of Atomic Densities via on-the-fly atomic UHF.

  ==> Iterations <==

                           Total Energy        Delta E     RMS |[F,P]|

   @DF-RHF iter   0:  -658.10838108227961   -6.58108e+02   2.04404e-02 
   @DF-RHF iter   1:  -649.72405613927276    8.38432e+00   2.10847e-03 
   @DF-RHF iter   2:  -650.07126840833359   -3.47212e-01   1.31498e-03 DIIS
   @DF-RHF iter   3:  -650.15552850941731   -8.42601e-02   4.12101e-04 DIIS
   @DF-RHF iter   4:  -650.17133956646467   -1.58111e-02   1.23442e-04 DIIS
   @DF-RHF iter   5:  -650.17318398202269   -1.84442e-03   5.65084e-05 DIIS
   @DF-RHF iter   6:  -650.17355183437940   -3.67852e-04   2.43804e-05 DIIS
   @DF-RHF iter   7:  -650.17361107440229   -5.92400e-05   7.92685e-06 DIIS
   @DF-RHF iter   8:  -650.17361850991017   -7.43551e-06   2.40302e-06 DIIS
   @DF-RHF iter   9:  -650.17361954970045   -1.03979e-06   8.96324e-07 DIIS
   @DF-RHF iter  10:  -650.17361976424388   -2.14543e-07   4.47623e-07 DIIS
   @DF-RHF iter  11:  -650.17361982839896   -6.41551e-08   2.46274e-07 DIIS
   @DF-RHF iter  12:  -650.17361984240893   -1.40100e-08   9.69207e-08 DIIS
   @DF-RHF iter  13:  -650.17361984437957   -1.97065e-09   2.25245e-08 DIIS
   @DF-RHF iter  14:  -650.17361984457602   -1.96451e-10   9.35315e-09 DIIS
   @DF-RHF iter  15:  -650.17361984459080   -1.47793e-11   2.33644e-09 DIIS
   @DF-RHF iter  16:  -650.17361984460854   -1.77351e-11   2.03822e-09 DIIS
   @DF-RHF iter  17:  -650.17361984459103    1.75078e-11   1.14223e-09 DIIS
   @DF-RHF iter  18:  -650.17361984459819   -7.16227e-12   3.94961e-10 DIIS
   @DF-RHF iter  19:  -650.17361984460501   -6.82121e-12   2.63665e-10 DIIS
   @DF-RHF iter  20:  -650.17361984460013    4.88853e-12   1.09164e-10 DIIS
   @DF-RHF iter  21:  -650.17361984458091    1.92131e-11   4.78862e-11 DIIS

  ==> Post-Iterations <==

    Orbital Energies (a.u.)
    -----------------------

    Doubly Occupied:                                                      

       1A    -26.327693     2A    -20.609293     3A    -15.565220  
       4A    -11.349731     5A    -11.327959     6A    -11.274907  
       7A    -11.274245     8A    -11.265440     9A    -11.265232  
      10A    -11.254336    11A    -11.252854    12A    -11.245885  
      13A    -11.239578    14A    -11.238288    15A     -1.645884  
      16A     -1.423908    17A     -1.250696    18A     -1.181858  
      19A     -1.110289    20A     -1.041493    21A     -1.034578  
      22A     -1.019623    23A     -0.892009    24A     -0.877022  
      25A     -0.853801    26A     -0.824765    27A     -0.773148  
      28A     -0.747463    29A     -0.724982    30A     -0.712127  
      31A     -0.697236    32A     -0.664799    33A     -0.661196  
      34A     -0.641967    35A     -0.635660    36A     -0.614173  
      37A     -0.608636    38A     -0.599236    39A     -0.577920  
      40A     -0.543636    41A     -0.534138    42A     -0.533325  
      43A     -0.521847    44A     -0.494643    45A     -0.419416  
      46A     -0.387257    47A     -0.360142    48A     -0.349321  
      49A     -0.324303  

    Virtual:                                                              

      50A      0.021872    51A      0.029154    52A      0.034371  
      53A      0.036724    54A      0.044643    55A      0.047121  
      56A      0.052858    57A      0.054614    58A      0.076413  
      59A      0.082376    60A      0.082841    61A      0.085611  
      62A      0.092349    63A      0.095316    64A      0.097212  
      65A      0.101208    66A      0.104303    67A      0.108409  
      68A      0.110206    69A      0.112831    70A      0.113129  
      71A      0.118610    72A      0.120891    73A      0.125187  
      74A      0.129507    75A      0.131578    76A      0.133775  
      77A      0.135522    78A      0.140483    79A      0.143318  
      80A      0.147171    81A      0.151615    82A      0.154229  
      83A      0.155618    84A      0.155947    85A      0.166958  
      86A      0.171485    87A      0.173339    88A      0.182785  
      89A      0.185845    90A      0.193502    91A      0.200544  
      92A      0.208262    93A      0.213445    94A      0.216397  
      95A      0.225248    96A      0.228528    97A      0.235671  
      98A      0.236218    99A      0.239873   100A      0.241492  
     101A      0.244404   102A      0.249007   103A      0.253522  
     104A      0.257335   105A      0.260571   106A      0.264470  
     107A      0.266852   108A      0.268998   109A      0.272523  
     110A      0.278868   111A      0.281931   112A      0.285297  
     113A      0.291318   114A      0.293750   115A      0.300443  
     116A      0.301467   117A      0.309775   118A      0.313495  
     119A      0.317661   120A      0.318874   121A      0.322901  
     122A      0.326971   123A      0.328819   124A      0.331229  
     125A      0.335951   126A      0.344770   127A      0.347830  
     128A      0.350027   129A      0.353789   130A      0.360085  
     131A      0.368310   132A      0.376544   133A      0.382219  
     134A      0.385943   135A      0.390250   136A      0.395673  
     137A      0.401119   138A      0.404287   139A      0.406703  
     140A      0.413110   141A      0.415922   142A      0.419032  
     143A      0.424560   144A      0.427242   145A      0.429670  
     146A      0.436646   147A      0.442822   148A      0.445941  
     149A      0.447857   150A      0.450929   151A      0.458900  
     152A      0.463321   153A      0.467253   154A      0.469427  
     155A      0.474205   156A      0.475984   157A      0.479258  
     158A      0.485419   159A      0.485661   160A      0.488348  
     161A      0.493487   162A      0.496603   163A      0.498096  
     164A      0.502030   165A      0.509489   166A      0.511180  
     167A      0.511558   168A      0.513060   169A      0.522321  
     170A      0.522814   171A      0.524503   172A      0.530110  
     173A      0.535169   174A      0.540662   175A      0.544645  
     176A      0.547008   177A      0.550854   178A      0.554752  
     179A      0.558817   180A      0.563228   181A      0.573828  
     182A      0.576002   183A      0.580432   184A      0.584109  
     185A      0.591014   186A      0.594214   187A      0.604438  
     188A      0.612631   189A      0.621873   190A      0.626999  
     191A      0.627843   192A      0.636836   193A      0.641165  
     194A      0.643825   195A      0.648904   196A      0.656833  
     197A      0.657678   198A      0.671928   199A      0.679384  
     200A      0.682770   201A      0.695145   202A      0.696663  
     203A      0.702474   204A      0.705773   205A      0.709044  
     206A      0.716874   207A      0.719798   208A      0.725648  
     209A      0.733536   210A      0.736674   211A      0.738285  
     212A      0.739585   213A      0.746776   214A      0.756200  
     215A      0.764608   216A      0.767738   217A      0.773751  
     218A      0.779744   219A      0.788930   220A      0.791316  
     221A      0.799534   222A      0.805226   223A      0.811311  
     224A      0.820927   225A      0.822929   226A      0.829115  
     227A      0.832183   228A      0.837222   229A      0.852901  
     230A      0.854710   231A      0.855618   232A      0.861830  
     233A      0.864441   234A      0.870928   235A      0.873584  
     236A      0.879824   237A      0.886379   238A      0.888274  
     239A      0.893436   240A      0.898226   241A      0.903873  
     242A      0.907686   243A      0.911996   244A      0.922837  
     245A      0.928069   246A      0.931698   247A      0.932988  
     248A      0.933869   249A      0.942236   250A      0.945206  
     251A      0.949137   252A      0.956008   253A      0.959024  
     254A      0.963042   255A      0.966002   256A      0.971127  
     257A      0.973670   258A      0.986105   259A      0.989646  
     260A      0.992164   261A      0.997695   262A      1.003252  
     263A      1.008631   264A      1.010959   265A      1.019387  
     266A      1.022339   267A      1.024611   268A      1.028311  
     269A      1.031870   270A      1.037007   271A      1.044502  
     272A      1.046907   273A      1.051715   274A      1.052485  
     275A      1.060185   276A      1.064103   277A      1.071173  
     278A      1.073441   279A      1.080167   280A      1.084047  
     281A      1.087843   282A      1.093769   283A      1.098637  
     284A      1.102219   285A      1.108541   286A      1.112640  
     287A      1.119674   288A      1.124743   289A      1.128612  
     290A      1.130338   291A      1.134589   292A      1.145493  
     293A      1.147435   294A      1.154243   295A      1.156532  
     296A      1.158925   297A      1.165005   298A      1.167613  
     299A      1.173159   300A      1.180102   301A      1.186979  
     302A      1.189380   303A      1.198690   304A      1.202088  
     305A      1.204586   306A      1.213928   307A      1.219750  
     308A      1.223990   309A      1.227623   310A      1.232064  
     311A      1.240227   312A      1.244966   313A      1.250618  
     314A      1.259495   315A      1.261765   316A      1.269396  
     317A      1.272590   318A      1.280436   319A      1.286014  
     320A      1.297734   321A      1.299713   322A      1.307046  
     323A      1.310656   324A      1.316318   325A      1.325838  
     326A      1.329874   327A      1.343440   328A      1.349442  
     329A      1.352237   330A      1.357570   331A      1.370604  
     332A      1.373090   333A      1.378031   334A      1.383762  
     335A      1.390407   336A      1.402462   337A      1.405537  
     338A      1.412748   339A      1.417347   340A      1.429360  
     341A      1.435157   342A      1.443413   343A      1.448797  
     344A      1.464379   345A      1.470000   346A      1.476957  
     347A      1.485207   348A      1.491601   349A      1.498539  
     350A      1.505266   351A      1.513519   352A      1.514969  
     353A      1.525460   354A      1.536254   355A      1.553311  
     356A      1.556972   357A      1.564749   358A      1.567545  
     359A      1.569690   360A      1.584909   361A      1.587746  
     362A      1.599359   363A      1.603489   364A      1.605361  
     365A      1.623130   366A      1.634402   367A      1.640073  
     368A      1.643979   369A      1.646540   370A      1.651418  
     371A      1.660797   372A      1.667726   373A      1.676332  
     374A      1.686686   375A      1.689830   376A      1.698534  
     377A      1.703513   378A      1.714212   379A      1.726652  
     380A      1.727550   381A      1.729413   382A      1.739570  
     383A      1.743721   384A      1.749282   385A      1.761313  
     386A      1.770233   387A      1.781402   388A      1.787246  
     389A      1.791790   390A      1.798763   391A      1.809490  
     392A      1.811157   393A      1.821051   394A      1.823747  
     395A      1.833991   396A      1.849222   397A      1.860740  
     398A      1.872783   399A      1.880531   400A      1.881946  
     401A      1.889892   402A      1.894388   403A      1.902089  
     404A      1.902501   405A      1.911552   406A      1.923111  
     407A      1.929828   408A      1.940207   409A      1.941500  
     410A      1.949893   411A      1.950989   412A      1.960496  
     413A      1.974650   414A      1.981453   415A      1.992608  
     416A      2.000215   417A      2.008471   418A      2.015989  
     419A      2.019849   420A      2.028311   421A      2.035272  
     422A      2.048392   423A      2.052781   424A      2.058317  
     425A      2.067352   426A      2.080750   427A      2.086537  
     428A      2.090856   429A      2.099082   430A      2.107735  
     431A      2.115463   432A      2.119623   433A      2.121455  
     434A      2.130419   435A      2.138125   436A      2.145399  
     437A      2.156603   438A      2.169106   439A      2.178001  
     440A      2.190098   441A      2.196215   442A      2.196873  
     443A      2.212285   444A      2.219714   445A      2.225594  
     446A      2.234807   447A      2.248139   448A      2.256078  
     449A      2.265491   450A      2.270543   451A      2.280397  
     452A      2.286649   453A      2.299387   454A      2.303451  
     455A      2.316444   456A      2.325469   457A      2.337321  
     458A      2.339296   459A      2.355053   460A      2.363796  
     461A      2.376878   462A      2.383055   463A      2.412037  
     464A      2.415359   465A      2.421663   466A      2.430175  
     467A      2.442644   468A      2.452706   469A      2.464330  
     470A      2.467204   471A      2.477688   472A      2.496102  
     473A      2.514297   474A      2.532840   475A      2.549692  
     476A      2.560592   477A      2.567552   478A      2.575396  
     479A      2.579400   480A      2.585955   481A      2.590637  
     482A      2.611581   483A      2.613549   484A      2.629323  
     485A      2.639092   486A      2.669761   487A      2.678232  
     488A      2.690162   489A      2.714585   490A      2.724056  
     491A      2.740244   492A      2.753480   493A      2.763357  
     494A      2.790828   495A      2.811330   496A      2.825221  
     497A      2.829108   498A      2.838822   499A      2.843882  
     500A      2.870333   501A      2.878420   502A      2.895956  
     503A      2.918146   504A      2.944286   505A      2.968710  
     506A      2.978541   507A      3.022978   508A      3.037296  
     509A      3.058015   510A      3.060420   511A      3.066398  
     512A      3.081035   513A      3.114540   514A      3.122479  
     515A      3.133310   516A      3.156413   517A      3.158918  
     518A      3.172872   519A      3.182976   520A      3.192132  
     521A      3.202046   522A      3.207145   523A      3.234465  
     524A      3.256989   525A      3.264053   526A      3.266046  
     527A      3.283257   528A      3.290237   529A      3.296097  
     530A      3.313792   531A      3.330877   532A      3.342286  
     533A      3.354749   534A      3.366971   535A      3.377869  
     536A      3.394840   537A      3.400665   538A      3.413359  
     539A      3.415472   540A      3.426128   541A      3.437316  
     542A      3.444124   543A      3.449724   544A      3.454762  
     545A      3.457833   546A      3.479354   547A      3.489529  
     548A      3.493077   549A      3.494520   550A      3.506052  
     551A      3.523576   552A      3.540113   553A      3.543573  
     554A      3.550806   555A      3.557811   556A      3.561557  
     557A      3.566135   558A      3.578148   559A      3.581423  
     560A      3.592154   561A      3.597384   562A      3.612016  
     563A      3.618864   564A      3.627038   565A      3.631070  
     566A      3.637418   567A      3.653715   568A      3.654694  
     569A      3.666071   570A      3.678524   571A      3.687299  
     572A      3.704765   573A      3.711597   574A      3.716957  
     575A      3.733131   576A      3.738314   577A      3.746092  
     578A      3.756401   579A      3.761929   580A      3.780072  
     581A      3.783042   582A      3.791336   583A      3.804896  
     584A      3.807780   585A      3.820047   586A      3.825354  
     587A      3.826021   588A      3.847476   589A      3.850463  
     590A      3.865378   591A      3.874381   592A      3.884160  
     593A      3.891002   594A      3.897993   595A      3.906507  
     596A      3.916277   597A      3.919941   598A      3.928766  
     599A      3.934837   600A      3.944155   601A      3.948952  
     602A      3.954794   603A      3.960858   604A      3.967738  
     605A      3.980785   606A      3.984000   607A      4.004898  
     608A      4.019265   609A      4.024721   610A      4.032547  
     611A      4.039310   612A      4.044684   613A      4.060958  
     614A      4.070799   615A      4.080419   616A      4.082912  
     617A      4.089309   618A      4.108998   619A      4.113473  
     620A      4.116369   621A      4.122950   622A      4.137605  
     623A      4.144042   624A      4.154909   625A      4.156690  
     626A      4.180759   627A      4.186159   628A      4.197549  
     629A      4.203158   630A      4.213951   631A      4.217079  
     632A      4.225847   633A      4.235005   634A      4.238262  
     635A      4.248732   636A      4.266145   637A      4.286563  
     638A      4.290133   639A      4.304294   640A      4.305190  
     641A      4.313329   642A      4.320371   643A      4.325602  
     644A      4.342754   645A      4.350942   646A      4.355920  
     647A      4.362361   648A      4.372463   649A      4.377747  
     650A      4.391585   651A      4.409331   652A      4.418742  
     653A      4.421851   654A      4.425981   655A      4.439331  
     656A      4.446664   657A      4.458304   658A      4.463554  
     659A      4.468697   660A      4.481084   661A      4.485784  
     662A      4.508968   663A      4.520966   664A      4.527073  
     665A      4.532975   666A      4.546202   667A      4.571114  
     668A      4.581508   669A      4.588586   670A      4.598965  
     671A      4.604329   672A      4.611385   673A      4.620973  
     674A      4.641223   675A      4.656561   676A      4.678920  
     677A      4.684015   678A      4.702640   679A      4.718999  
     680A      4.723564   681A      4.739207   682A      4.742831  
     683A      4.759868   684A      4.771668   685A      4.793735  
     686A      4.803501   687A      4.817509   688A      4.847883  
     689A      4.861477   690A      4.864015   691A      4.891026  
     692A      4.900395   693A      4.915227   694A      4.938918  
     695A      4.956259   696A      4.966641   697A      4.970076  
     698A      4.974779   699A      4.984570   700A      5.008850  
     701A      5.017720   702A      5.024600   703A      5.036611  
     704A      5.037540   705A      5.042281   706A      5.057757  
     707A      5.069414   708A      5.096861   709A      5.100936  
     710A      5.114930   711A      5.124955   712A      5.133867  
     713A      5.144223   714A      5.165403   715A      5.173092  
     716A      5.179006   717A      5.184608   718A      5.189404  
     719A      5.190808   720A      5.206578   721A      5.231698  
     722A      5.270566   723A      5.274477   724A      5.295147  
     725A      5.308551   726A      5.311807   727A      5.334355  
     728A      5.354247   729A      5.366378   730A      5.380468  
     731A      5.398197   732A      5.430044   733A      5.438870  
     734A      5.454873   735A      5.459415   736A      5.467745  
     737A      5.471097   738A      5.495710   739A      5.529319  
     740A      5.553685   741A      5.562320   742A      5.575228  
     743A      5.597265   744A      5.614222   745A      5.640979  
     746A      5.692732   747A      5.709760   748A      5.744120  
     749A      5.753826   750A      5.764855   751A      5.798428  
     752A      5.802374   753A      5.836231   754A      5.847652  
     755A      5.877521   756A      5.880694   757A      5.910464  
     758A      5.958440   759A      6.016313   760A      6.044556  
     761A      6.081941   762A      6.111582   763A      6.131234  
     764A      6.181062   765A      6.231904   766A      6.257837  
     767A      6.285788   768A      6.306412   769A      6.318660  
     770A      6.365479   771A      6.392024   772A      6.462007  
     773A      6.494093   774A      6.514489   775A      6.529240  
     776A      6.571406   777A      6.686595   778A      6.698050  
     779A      6.709497   780A      6.717309   781A      6.743241  
     782A      6.840746   783A      6.872451   784A      6.886093  
     785A      6.927814   786A      6.958262   787A      6.993443  
     788A      7.046947   789A      7.054705   790A      7.079332  
     791A      7.187698   792A      7.252551   793A      7.391902  
     794A      7.415140   795A      7.419954   796A      7.470988  
     797A      7.678940   798A      7.684678   799A      7.745827  
     800A      7.995030   801A      8.375812   802A      8.630316  
     803A      9.002366   804A      9.046122   805A      9.268716  
     806A      9.286955   807A      9.403295   808A      9.518682  
     809A      9.537322   810A      9.593334   811A      9.640011  
     812A      9.713303   813A     10.031292   814A     10.075924  
     815A     15.535343   816A     16.149157   817A     16.568447  
     818A     16.597368   819A     16.687423   820A     16.807144  
     821A     18.455755   822A     18.701220   823A     19.207948  
     824A     19.689751   825A     20.153804   826A     20.198463  
     827A     20.418523   828A     21.806528  

    Final Occupation by Irrep:
              A 
    DOCC [    49 ]

  Energy converged.

  @DF-RHF Final Energy:  -650.17361984458091

   => Energetics <=

    Nuclear Repulsion Energy =            814.0593581794801139
    One-Electron Energy =               -2502.9196399315965209
    Two-Electron Energy =                1038.6866619075356084
    DFT Exchange-Correlation Energy =       0.0000000000000000
    Empirical Dispersion Energy =           0.0000000000000000
    PCM Polarization Energy =               0.0000000000000000
    EFP Energy =                            0.0000000000000000
    Total Energy =                       -650.1736198445807986



Properties will be evaluated at   0.000000,   0.000000,   0.000000 Bohr

Properties computed using the SCF density matrix

  Nuclear Dipole Moment: (a.u.)
     X:    -2.1333      Y:     1.3090      Z:    -4.2698

  Electronic Dipole Moment: (a.u.)
     X:     1.1300      Y:    -0.7888      Z:     4.9013

  Dipole Moment: (a.u.)
     X:    -1.0033      Y:     0.5202      Z:     0.6314     Total:     1.2946

  Dipole Moment: (Debye)
     X:    -2.5502      Y:     1.3222      Z:     1.6050     Total:     3.2906


*** tstop() called on gpu-2-6.local at Sat Nov 11 21:51:57 2017
Module time:
	user time   =    1294.12 seconds =      21.57 minutes
	system time =      57.39 seconds =       0.96 minutes
	total time  =        540 seconds =       9.00 minutes
Total time:
	user time   =    1294.12 seconds =      21.57 minutes
	system time =      57.39 seconds =       0.96 minutes
	total time  =        540 seconds =       9.00 minutes

  //>>>>>>>>>>>>>>>>>>>>>>>>>>>>>>>>>>>//
  //               DFMP2               //
  //<<<<<<<<<<<<<<<<<<<<<<<<<<<<<<<<<<<//

   => Loading Basis Set <=

    Name: (AUG-CC-PVTZ AUX)
    Role: RIFIT
    Keyword: DF_BASIS_MP2
    atoms 1-11  entry C          line   147 file /cbio/jclab/home/chayas/anaconda/envs/py35/share/psi4/basis/aug-cc-pvtz-ri.gbs 
    atoms 12    entry N          line   205 file /cbio/jclab/home/chayas/anaconda/envs/py35/share/psi4/basis/aug-cc-pvtz-ri.gbs 
    atoms 13    entry O          line   263 file /cbio/jclab/home/chayas/anaconda/envs/py35/share/psi4/basis/aug-cc-pvtz-ri.gbs 
    atoms 14    entry F          line   321 file /cbio/jclab/home/chayas/anaconda/envs/py35/share/psi4/basis/aug-cc-pvtz-ri.gbs 
    atoms 15-22 entry H          line    29 file /cbio/jclab/home/chayas/anaconda/envs/py35/share/psi4/basis/aug-cc-pvtz-ri.gbs 

	 --------------------------------------------------------
	                          DF-MP2                         
	      2nd-Order Density-Fitted Moller-Plesset Theory     
	              RMP2 Wavefunction,   8 Threads             
	                                                         
	        Rob Parrish, Justin Turney, Andy Simmonett,      
	           Ed Hohenstein, and C. David Sherrill          
	 --------------------------------------------------------

   => Auxiliary Basis Set <=

  Basis Set: (AUG-CC-PVTZ AUX)
    Blend: AUG-CC-PVTZ-RI
    Number of shells: 504
    Number of basis function: 1852
    Number of Cartesian functions: 2344
    Spherical Harmonics?: true
    Max angular momentum: 4

	 --------------------------------------------------------
	                 NBF =   828, NAUX =  1852
	 --------------------------------------------------------
	   CLASS    FOCC     OCC    AOCC    AVIR     VIR    FVIR
	   PAIRS       0      49      49     779     779       0
	 --------------------------------------------------------


         ------------------------------------------------------------
                                     CPHF                           
                                  Rob Parrish                       
         ------------------------------------------------------------

  ==> Geometry <==

    Molecular point group: c1
    Full point group: C1

    Geometry (in Angstrom), charge = 0, multiplicity = 1:

       Center              X                  Y                   Z               Mass       
    ------------   -----------------  -----------------  -----------------  -----------------
           C         -1.321325413689     0.755445676154    -0.799494959991    12.000000000000
           C         -2.399325413689     1.328445676154    -0.126494959991    12.000000000000
           C          1.115674586311    -1.785554323846    -0.625494959991    12.000000000000
           C          1.623674586311     0.345445676154    -1.618494959991    12.000000000000
           C         -1.406325413689     0.712445676154     1.988505040009    12.000000000000
           C          2.194674586311    -2.305554323846    -1.321494959991    12.000000000000
           C          2.679674586311    -0.270554323846    -2.269494959991    12.000000000000
           C         -0.285325413689     0.160445676154    -0.079494959991    12.000000000000
           C          0.831674586311    -0.433554323846    -0.782494959991    12.000000000000
           C         -2.442325413689     1.307445676154     1.267505040009    12.000000000000
           C         -0.328325413689     0.139445676154     1.314505040009    12.000000000000
           N          2.986674586311    -1.580554323846    -2.142494959991    14.003074004780
           O         -3.495325413689     1.867445676154     1.924505040009    15.994914619560
           F          0.659674586311    -0.428554323846     2.021505040009    18.998403224000
           H         -1.302325413689     0.779445676154    -1.886494959991     1.007825032070
           H         -3.204325413689     1.789445676154    -0.693494959991     1.007825032070
           H          0.520674586311    -2.425554323846     0.017505040009     1.007825032070
           H          1.431674586311     1.403445676154    -1.765494959991     1.007825032070
           H         -1.434325413689     0.692445676154     3.074505040009     1.007825032070
           H          2.457674586311    -3.355554323846    -1.234494959991     1.007825032070
           H          3.327674586311     0.293445676154    -2.932494959991     1.007825032070
           H         -3.381325413689     1.773445676154     2.883505040009     1.007825032070

  Nuclear repulsion =  814.059358179480114
  Reference energy  = -650.173619844580912

  ==> Basis Set <==

  Basis Set: AUG-CC-PVTZ
    Blend: AUG-CC-PVTZ
    Number of shells: 268
    Number of basis function: 828
    Number of Cartesian functions: 970
    Spherical Harmonics?: true
    Max angular momentum: 3

  ==> CGRSolver (by Rob Parrish) <==

   Number of roots    =         1
   Preconditioning    =    JACOBI
   Convergence cutoff =     1E-06
   Maximum iterations =       100

  ==> CPHFRHamiltonian (by Rob Parrish) <== 

  ==> DFJK: Density-Fitted J/K Matrices <==

    J tasked:                  Yes
    K tasked:                  Yes
    wK tasked:                  No
    OpenMP threads:              8
    Integrals threads:           8
    Memory (MB):              3576
    Algorithm:                Disk
    Integral Cache:           NONE
    Schwarz Cutoff:          1E-12
    Fitting Condition:       1E-12

   => Auxiliary Basis Set <=

  Basis Set: (AUG-CC-PVTZ AUX)
    Blend: AUG-CC-PVTZ-JKFIT
    Number of shells: 532
    Number of basis function: 1824
    Number of Cartesian functions: 2274
    Spherical Harmonics?: true
    Max angular momentum: 4

  ==> CPHF Iterations <==

  => Iterations <=

             Iter  Converged  Remaining    Residual
  CGR           1          0          1   1.027E-01
  CGR           2          0          1   3.436E-02
  CGR           3          0          1   2.260E-02
  CGR           4          0          1   9.825E-03
  CGR           5          0          1   4.081E-03
  CGR           6          0          1   1.528E-03
  CGR           7          0          1   4.495E-04
  CGR           8          0          1   1.492E-04
  CGR           9          0          1   4.730E-05
  CGR          10          0          1   1.323E-05
  CGR          11          0          1   5.375E-06
  CGR          12          0          1   1.703E-06
  CGR          13          1          0   8.348E-07

    CGRSolver converged.

  ==> DFCorrGrad: Density-Fitted Correlated Gradients <==

    OpenMP threads:              8
    Integrals threads:           8
    Memory (MB):              3576
    Schwarz Cutoff:          0E+00
    Fitting Condition:       1E-12

   => Auxiliary Basis Set <=

  Basis Set: (AUG-CC-PVTZ AUX)
    Blend: AUG-CC-PVTZ-JKFIT
    Number of shells: 532
    Number of basis function: 1824
    Number of Cartesian functions: 2274
    Spherical Harmonics?: true
    Max angular momentum: 4

	-----------------------------------------------------------
	 ==================> DF-MP2 Energies <==================== 
	-----------------------------------------------------------
	 Reference Energy          =    -650.1736198445809123 [Eh]
	 Singles Energy            =      -0.0000000000000002 [Eh]
	 Same-Spin Energy          =      -0.6775220631284860 [Eh]
	 Opposite-Spin Energy      =      -2.0194331141312203 [Eh]
	 Correlation Energy        =      -2.6969551772597065 [Eh]
	 Total Energy              =    -652.8705750218406365 [Eh]
	-----------------------------------------------------------
	 ================> DF-SCS-MP2 Energies <================== 
	-----------------------------------------------------------
	 SCS Same-Spin Scale       =       0.3333333333333333 [-]
	 SCS Opposite-Spin Scale   =       1.2000000000000000 [-]
	 SCS Same-Spin Energy      =      -0.2258406877094953 [Eh]
	 SCS Opposite-Spin Energy  =      -2.4233197369574642 [Eh]
	 SCS Correlation Energy    =      -2.6491604246669596 [Eh]
	 SCS Total Energy          =    -652.8227802692479145 [Eh]
	-----------------------------------------------------------


  -Total Gradient:
     Atom            X                  Y                   Z
    ------   -----------------  -----------------  -----------------
       1        0.008263654627    -0.006658327971    -0.014472215195
       2        0.003649336328    -0.002382354891     0.003312108110
       3       -0.007497749954    -0.000490685048     0.003982674498
       4       -0.002735826994     0.006272075676     0.002819709407
       5       -0.008058373951     0.004377730274     0.001142353915
       6       -0.010177928534    -0.001422594942     0.008436317794
       7       -0.007209046548     0.011766615040     0.003363328241
       8       -0.001261774680     0.000705662378    -0.002700899032
       9       -0.001553577229     0.000979519115    -0.001095178082
      10       -0.008757987274     0.004891690746    -0.004561546262
      11        0.023675812402    -0.010156990600     0.005675549516
      12        0.012950331304    -0.007308687812    -0.008379542340
      13        0.002887833039    -0.001476391466     0.000387710879
      14        0.001061952042    -0.001294221780     0.002143484304
      15       -0.002416772681     0.001967129100    -0.006261766580
      16       -0.003079812578     0.002106168610    -0.005353096432
      17       -0.001234466646    -0.004430458285     0.002209353240
      18        0.000485902766     0.004337221476    -0.002417111529
      19       -0.001173328267     0.000206261645     0.004363641365
      20        0.001412482973    -0.003200172329    -0.000065316572
      21        0.001970578799     0.000888789383    -0.001976215329
      22       -0.001201238942     0.000322021693     0.009446656065


*** tstop() called on gpu-2-6.local at Sat Nov 11 22:29:14 2017
Module time:
	user time   =    6010.53 seconds =     100.18 minutes
	system time =     118.75 seconds =       1.98 minutes
	total time  =       2777 seconds =      46.28 minutes
Total time:
	user time   =    6010.53 seconds =     100.18 minutes
	system time =     118.75 seconds =       1.98 minutes
	total time  =       2777 seconds =      46.28 minutes

			-----------------------------------------
			 OPTKING 2.0: for geometry optimizations 
			  - R.A. King,  Bethel University        
			-----------------------------------------

	Internal coordinates to be generated automatically.
	Detected frag 1 with atoms:  1 2 3 4 5 6 7 8 9 10 11 12 13 14 15 16 17 18 19 20
	 21 22
	---Fragment 1 Bond Connectivity---
	 1 : 2 8 15
	 2 : 1 10 16
	 3 : 6 9 17
	 4 : 7 9 18
	 5 : 10 11 19
	 6 : 3 12 20
	 7 : 4 12 21
	 8 : 1 9 11
	 9 : 3 4 8
	 10 : 2 5 13
	 11 : 5 8 14
	 12 : 6 7
	 13 : 10 22
	 14 : 11
	 15 : 1
	 16 : 2
	 17 : 3
	 18 : 4
	 19 : 5
	 20 : 6
	 21 : 7
	 22 : 13

	Assuming in current code that numbering for constraints corresponds to unified fragment.
	Fixed dihedral atom list: 
	     1     8     9     3
	---Fragment 1 Geometry and Gradient---
	 C          -2.4969431643        1.4275854362       -1.5108265190
	 C          -4.5340679355        2.5103985103       -0.2390408316
	 C           2.1083194215       -3.3742086675       -1.1820141719
	 C           3.0683002971        0.6527977217       -3.0585122218
	 C          -2.6575698856        1.3463272125        3.7577299395
	 C           4.1473339189       -4.3568662566       -2.4972635604
	 C           5.0638510934       -0.5112735761       -4.2887239343
	 C          -0.5391868906        0.3031983871       -0.1502237033
	 C           1.5716371998       -0.8192989358       -1.4787011747
	 C          -4.6153261593        2.4707142616        2.3952373977
	 C          -0.6204451143        0.2635141383        2.4840545259
	 N           5.6439970162       -2.9868148102       -4.0487287155
	 O          -6.6052077772        3.5289608960        3.6367874670
	 F           1.2466043050       -0.8098503051        3.8200909019
	 H          -2.4610383678        1.4729388634       -3.5649588255
	 H          -6.0552974725        3.3815622576       -1.3105155489
	 H           0.9839323725       -4.5836333925        0.0330797316
	 H           2.7054728795        2.6521279703       -3.3363019634
	 H          -2.7104822173        1.3085326898        5.8099725198
	 H           4.6443318919       -6.3410786961       -2.3328573868
	 H           6.2883936275        0.5545319628       -5.5416123605
	 H          -6.3897789980        3.3513266395        5.4490348284
	             0.0082636546       -0.0066583280       -0.0144722152
	             0.0036493363       -0.0023823549        0.0033121081
	            -0.0074977500       -0.0004906850        0.0039826745
	            -0.0027358270        0.0062720757        0.0028197094
	            -0.0080583740        0.0043777303        0.0011423539
	            -0.0101779285       -0.0014225949        0.0084363178
	            -0.0072090465        0.0117666150        0.0033633282
	            -0.0012617747        0.0007056624       -0.0027008990
	            -0.0015535772        0.0009795191       -0.0010951781
	            -0.0087579873        0.0048916907       -0.0045615463
	             0.0236758124       -0.0101569906        0.0056755495
	             0.0129503313       -0.0073086878       -0.0083795423
	             0.0028878330       -0.0014763915        0.0003877109
	             0.0010619520       -0.0012942218        0.0021434843
	            -0.0024167727        0.0019671291       -0.0062617666
	            -0.0030798126        0.0021061686       -0.0053530964
	            -0.0012344666       -0.0044304583        0.0022093532
	             0.0004859028        0.0043372215       -0.0024171115
	            -0.0011733283        0.0002062616        0.0043636414
	             0.0014124830       -0.0032001723       -0.0000653166
	             0.0019705788        0.0008887894       -0.0019762153
	            -0.0012012389        0.0003220217        0.0094466561

	Previous optimization step data not found.  Starting new optimization.

	---Fragment 1 Intrafragment Coordinates---
	 - Coordinate -           - BOHR/RAD -       - ANG/DEG -
	 R(1,2)           =         2.634350	       1.394038
	 R(1,8)           =         2.635962	       1.394891
	 R(1,15)          =         2.054947	       1.087431
	 R(2,10)          =         2.635830	       1.394821
	 R(2,16)          =         2.054537	       1.087214
	 R(3,6)           =         2.617838	       1.385300
	 R(3,9)           =         2.627473	       1.390399
	 R(3,17)          =         2.050221	       1.084930
	 R(4,7)           =         2.617385	       1.385061
	 R(4,9)           =         2.627332	       1.390324
	 R(4,18)          =         2.050886	       1.085282
	 R(5,10)          =         2.636938	       1.395407
	 R(5,11)          =         2.635263	       1.394521
	 R(5,19)          =         2.053272	       1.086545
	 R(6,12)          =         2.554229	       1.351640
	 R(6,20)          =         2.052105	       1.085927
	 R(7,12)          =         2.553913	       1.351473
	 R(7,21)          =         2.050652	       1.085159
	 R(8,9)           =         2.735038	       1.447320
	 R(8,11)          =         2.635830	       1.394821
	 R(10,13)         =         2.573123	       1.361638
	 R(11,14)         =         2.534359	       1.341125
	 R(13,22)         =         1.833631	       0.970316
	 B(1,2,10)        =         2.094553	     120.009056
	 B(1,2,16)        =         2.088723	     119.675016
	 B(1,8,9)         =         2.091569	     119.838095
	 B(1,8,11)        =         2.093692	     119.959722
	 B(2,1,8)         =         2.094940	     120.031219
	 B(2,1,15)        =         2.079469	     119.144799
	 B(2,10,5)        =         2.094306	     119.994870
	 B(2,10,13)       =         2.094247	     119.991510
	 B(3,6,12)        =         2.165456	     124.071492
	 B(3,6,20)        =         2.107538	     120.753046
	 B(3,9,4)         =         2.090207	     119.760017
	 B(3,9,8)         =         2.096559	     120.123998
	 B(4,7,12)        =         2.165329	     124.064185
	 B(4,7,21)        =         2.107484	     120.749920
	 B(4,9,8)         =         2.096419	     120.115944
	 B(5,10,13)       =         2.094633	     120.013619
	 B(5,11,8)        =         2.095181	     120.045019
	 B(5,11,14)       =         2.081414	     119.256220
	 B(6,3,9)         =         2.057106	     117.863487
	 B(6,3,17)        =         2.098438	     120.231628
	 B(6,12,7)        =         2.030742	     116.352951
	 B(7,4,9)         =         2.057531	     117.887862
	 B(7,4,18)        =         2.099929	     120.317063
	 B(8,1,15)        =         2.108776	     120.823969
	 B(8,11,14)       =         2.106591	     120.698759
	 B(9,3,17)        =         2.127642	     121.904884
	 B(9,4,18)        =         2.125725	     121.795074
	 B(9,8,11)        =         2.097924	     120.202184
	 B(10,2,16)       =         2.099909	     120.315896
	 B(10,5,11)       =         2.093699	     119.960108
	 B(10,5,19)       =         2.100355	     120.341451
	 B(10,13,22)      =         1.924294	     110.253909
	 B(11,5,19)       =         2.089132	     119.698439
	 B(12,6,20)       =         2.010190	     115.175396
	 B(12,7,21)       =         2.010373	     115.185895
	 D(1,2,10,5)      =        -0.000325	      -0.018609
	 D(1,2,10,13)     =         3.141388	     179.988267
	 D(1,8,9,3)       =        -2.094269	    -119.992751
	 D(1,8,9,4)       =         1.046024	      59.932769
	 D(1,8,11,5)      =         0.000325	       0.018608
	 D(1,8,11,14)     =        -3.141528	    -179.996269
	 D(2,1,8,9)       =         3.141277	     179.981897
	 D(2,1,8,11)      =        -0.000348	      -0.019945
	 D(2,10,5,11)     =         0.000301	       0.017261
	 D(2,10,5,19)     =        -3.141029	    -179.967685
	 D(2,10,13,22)    =         3.141285	     179.982383
	 D(3,6,12,7)      =         0.000390	       0.022333
	 D(3,9,4,7)       =        -0.000224	      -0.012861
	 D(3,9,4,18)      =         3.141136	     179.973852
	 D(3,9,8,11)      =         1.047356	      60.009095
	 D(4,7,12,6)      =        -0.000514	      -0.029433
	 D(4,9,3,6)       =         0.000114	       0.006503
	 D(4,9,3,17)      =        -3.141266	    -179.981309
	 D(4,9,8,11)      =        -2.095536	    -120.065385
	 D(5,10,2,16)     =         3.140149	     179.917291
	 D(5,10,13,22)    =        -0.000187	      -0.010740
	 D(5,11,8,9)      =        -3.141300	    -179.983240
	 D(6,3,9,8)       =         3.140411	     179.932289
	 D(6,12,7,21)     =         3.141153	     179.974807
	 D(7,4,9,8)       =        -3.140522	    -179.938653
	 D(7,12,6,20)     =         3.140355	     179.929091
	 D(8,1,2,10)      =         0.000348	       0.019955
	 D(8,1,2,16)      =        -3.140133	    -179.916358
	 D(8,9,3,17)      =        -0.000969	      -0.055523
	 D(8,9,4,18)      =         0.000839	       0.048060
	 D(8,11,5,10)     =        -0.000301	      -0.017270
	 D(8,11,5,19)     =         3.141030	     179.967774
	 D(9,3,6,12)      =        -0.000203	      -0.011660
	 D(9,3,6,20)      =        -3.140082	    -179.913467
	 D(9,4,7,12)      =         0.000443	       0.025383
	 D(9,4,7,21)      =        -3.141228	    -179.979081
	 D(9,8,1,15)      =         0.000403	       0.023110
	 D(9,8,11,14)     =         0.000033	       0.001883
	 D(10,2,1,15)     =         3.141234	     179.979432
	 D(10,5,11,14)    =         3.141547	     179.997392
	 D(11,5,10,13)    =        -3.141411	    -179.989616
	 D(11,8,1,15)     =        -3.141221	    -179.978731
	 D(12,6,3,17)     =         3.141180	     179.976365
	 D(12,7,4,18)     =        -3.140921	    -179.961535
	 D(13,10,2,16)    =        -0.001324	      -0.075833
	 D(13,10,5,19)    =         0.000444	       0.025437
	 D(14,11,5,19)    =        -0.000307	      -0.017564
	 D(15,1,2,16)     =         0.000753	       0.043120
	 D(17,3,6,20)     =         0.001301	       0.074558
	 D(18,4,7,21)     =         0.000593	       0.034001
	 R(3,14)          =         5.686787	       3.009318

	Current energy   :      -652.8705750218

	Generating empirical Hessian (Schlegel '84) for each fragment.
	Adding user-defined constraint: Fragment 1; Coordinate 61:
		Value =    -2.094269; Fixed value    =    -2.094395
		Force =    -0.000063; Force constant =     0.500000
	Removing off-diagonal coupling between coordinate 61 and others.
	Taking RFO optimization step.
	Going to follow RFO solution 1.
	Using RFO vector 1.

	Determining step-restricting scale parameter for RS-RFO.
	Maximum step size allowed    0.10000

	 Iter      |step|        alpha        rfo_root  
	------------------------------------------------
	    0     0.19083       1.00000           1
	    1     0.15151       5.16093           1
	    2     0.12252      16.01792           1
	    3     0.10572      29.30874           1
	    4     0.10051      35.24505           1
	    5     0.10000      35.87608           1
	------------------------------------------------
	Norm of target step-size    0.10000
	Projected energy change by RFO approximation:        -0.0048606415

	Back-transformation to cartesian coordinates...
	Could not converge backtransformation.
	Using first guess instead.

	--- Internal Coordinate Step in ANG or DEG, aJ/ANG or AJ/DEG ---
	 ---------------------------------------------------------------------------
	   Coordinate                Previous        Force       Change         New 
	   ----------                --------       ------       ------       ------
	    1 R(1,2)          =      1.394038    -0.056494    -0.005654     1.388384
	    2 R(1,8)          =      1.394891    -0.027895    -0.002578     1.392313
	    3 R(1,15)         =      1.087431    -0.051579    -0.006346     1.081085
	    4 R(2,10)         =      1.394821    -0.081470    -0.008189     1.386632
	    5 R(2,16)         =      1.087214    -0.049146    -0.005983     1.081232
	    6 R(3,6)          =      1.385300     0.004150     0.000388     1.385688
	    7 R(3,9)          =      1.390399    -0.019072    -0.001476     1.388923
	    8 R(3,17)         =      1.084930    -0.037899    -0.004633     1.080298
	    9 R(4,7)          =      1.385061     0.009294     0.000912     1.385973
	   10 R(4,9)          =      1.390324    -0.017497    -0.001312     1.389012
	   11 R(4,18)         =      1.085282    -0.036823    -0.004508     1.080774
	   12 R(5,10)         =      1.395407    -0.046236    -0.004677     1.390731
	   13 R(5,11)         =      1.394521    -0.105711    -0.010600     1.383921
	   14 R(5,19)         =      1.086545    -0.036150    -0.004353     1.082192
	   15 R(6,12)         =      1.351640    -0.114774    -0.010536     1.341104
	   16 R(6,20)         =      1.085927    -0.028270    -0.003459     1.082469
	   17 R(7,12)         =      1.351473    -0.118244    -0.010827     1.340646
	   18 R(7,21)         =      1.085159    -0.023447    -0.002868     1.082290
	   19 R(8,9)          =      1.447320     0.131399     0.015271     1.462590
	   20 R(8,11)         =      1.394821    -0.078950    -0.007779     1.387042
	   21 R(10,13)        =      1.361638    -0.024437    -0.002026     1.359612
	   22 R(11,14)        =      1.341125    -0.021932    -0.001853     1.339273
	   23 R(13,22)        =      0.970316    -0.075499    -0.006879     0.963437
	   24 B(1,2,10)       =    120.009056    -0.000176    -0.327882   119.681174
	   25 B(1,2,16)       =    119.675016     0.000294     0.635429   120.310445
	   26 B(1,8,9)        =    119.838095     0.000662     1.160342   120.998436
	   27 B(1,8,11)       =    119.959722    -0.000922    -1.674593   118.285128
	   28 B(2,1,8)        =    120.031219     0.000527     1.032563   121.063782
	   29 B(2,1,15)       =    119.144799    -0.000022     0.035724   119.180523
	   30 B(2,10,5)       =    119.994870    -0.000011    -0.016709   119.978162
	   31 B(2,10,13)      =    119.991510    -0.000752    -1.349788   118.641722
	   32 B(3,6,12)       =    124.071492    -0.000021    -0.100800   123.970692
	   33 B(3,6,20)       =    120.753046    -0.000042    -0.070099   120.682947
	   34 B(3,9,4)        =    119.760017    -0.000833    -1.408853   118.351164
	   35 B(3,9,8)        =    120.123998     0.000414     0.715728   120.839726
	   36 B(4,7,12)       =    124.064185    -0.000039    -0.131610   123.932575
	   37 B(4,7,21)       =    120.749920    -0.000033    -0.055053   120.694867
	   38 B(4,9,8)        =    120.115944     0.000420     0.692741   120.808685
	   39 B(5,10,13)      =    120.013619     0.000763     1.366485   121.380104
	   40 B(5,11,8)       =    120.045019     0.000787     1.394659   121.439678
	   41 B(5,11,14)      =    119.256220    -0.000184    -0.347959   118.908261
	   42 B(6,3,9)        =    117.863487     0.000372     0.762142   118.625629
	   43 B(6,3,17)       =    120.231628    -0.000014     0.011739   120.243367
	   44 B(6,12,7)       =    116.352951     0.000149     0.109224   116.462175
	   45 B(7,4,9)        =    117.887862     0.000373     0.769901   118.657763
	   46 B(7,4,18)       =    120.317063    -0.000021    -0.007485   120.309578
	   47 B(8,1,15)       =    120.823969    -0.000506    -1.068346   119.755623
	   48 B(8,11,14)      =    120.698759    -0.000603    -1.046765   119.651994
	   49 B(9,3,17)       =    121.904884    -0.000358    -0.773904   121.130980
	   50 B(9,4,18)       =    121.795074    -0.000352    -0.762423   121.032651
	   51 B(9,8,11)       =    120.202184     0.000260     0.514071   120.716255
	   52 B(10,2,16)      =    120.315896    -0.000118    -0.307582   120.008314
	   53 B(10,5,11)      =    119.960108    -0.000205    -0.408132   119.551976
	   54 B(10,5,19)      =    120.341451     0.000186     0.393476   120.734927
	   55 B(10,13,22)     =    110.253909    -0.000364    -0.828360   109.425549
	   56 B(11,5,19)      =    119.698439     0.000019     0.014656   119.713095
	   57 B(12,6,20)      =    115.175396     0.000063     0.170846   115.346242
	   58 B(12,7,21)      =    115.185895     0.000072     0.186630   115.372525
	   59 D(1,2,10,5)     =     -0.018609    -0.000002    -0.038091    -0.056700
	   60 D(1,2,10,13)    =    179.988267    -0.000001    -0.005430   179.982837
	   61 D(1,8,9,3)      =   -119.992751    -0.000020    -0.169031  -120.161782
	   62 D(1,8,9,4)      =     59.932769    -0.000025    -0.335702    59.597066
	   63 D(1,8,11,5)     =      0.018608    -0.000006    -0.135133    -0.116525
	   64 D(1,8,11,14)    =   -179.996269    -0.000001    -0.024821  -180.021090
	   65 D(2,1,8,9)      =    179.981897    -0.000002    -0.072412   179.909484
	   66 D(2,1,8,11)     =     -0.019945     0.000003     0.082695     0.062751
	   67 D(2,10,5,11)    =      0.017261    -0.000001    -0.012716     0.004546
	   68 D(2,10,5,19)    =   -179.967685    -0.000001    -0.011784  -179.979469
	   69 D(2,10,13,22)   =    179.982383    -0.000000    -0.007331   179.975052
	   70 D(3,6,12,7)     =      0.022333    -0.000001    -0.017316     0.005017
	   71 D(3,9,4,7)      =     -0.012861     0.000002     0.004490    -0.008371
	   72 D(3,9,4,18)     =    179.973852     0.000005     0.050386   180.024238
	   73 D(3,9,8,11)     =     60.009095    -0.000026    -0.327868    59.681227
	   74 D(4,7,12,6)     =     -0.029433     0.000002     0.032970     0.003536
	   75 D(4,9,3,6)      =      0.006503    -0.000002     0.009590     0.016093
	   76 D(4,9,3,17)     =   -179.981309     0.000001     0.053158  -179.928151
	   77 D(4,9,8,11)     =   -120.065385    -0.000031    -0.494540  -120.559925
	   78 D(5,10,2,16)    =    179.917291    -0.000003    -0.067253   179.850038
	   79 D(5,10,13,22)   =     -0.010740     0.000001     0.025907     0.015167
	   80 D(5,11,8,9)     =   -179.983240    -0.000001     0.019532  -179.963709
	   81 D(6,3,9,8)      =    179.932289    -0.000006    -0.151546   179.780743
	   82 D(6,12,7,21)    =    179.974807    -0.000003    -0.036305   179.938502
	   83 D(7,4,9,8)      =   -179.938653     0.000007     0.165556  -179.773097
	   84 D(7,12,6,20)    =    179.929091    -0.000002    -0.049080   179.880011
	   85 D(8,1,2,10)     =      0.019955     0.000001     0.002602     0.022557
	   86 D(8,1,2,16)     =   -179.916358     0.000002     0.032463  -179.883895
	   87 D(8,9,3,17)     =     -0.055523    -0.000004    -0.107977    -0.163501
	   88 D(8,9,4,18)     =      0.048060     0.000010     0.211451     0.259512
	   89 D(8,11,5,10)    =     -0.017270     0.000005     0.101247     0.083976
	   90 D(8,11,5,19)    =    179.967774     0.000005     0.100382   180.068156
	   91 D(9,3,6,12)     =     -0.011660     0.000001    -0.003361    -0.015020
	   92 D(9,3,6,20)     =   -179.913467     0.000002     0.029810  -179.883657
	   93 D(9,4,7,12)     =      0.025383    -0.000002    -0.027079    -0.001695
	   94 D(9,4,7,21)     =   -179.979081     0.000002     0.045721  -179.933360
	   95 D(9,8,1,15)     =      0.023110     0.000001    -0.015109     0.008001
	   96 D(9,8,11,14)    =      0.001883     0.000005     0.129843     0.131726
	   97 D(10,2,1,15)    =    179.979432    -0.000003    -0.054835   179.924597
	   98 D(10,5,11,14)   =    179.997392    -0.000000    -0.008158   179.989234
	   99 D(11,5,10,13)   =   -179.989616    -0.000002    -0.046483  -180.036098
	  100 D(11,8,1,15)    =   -179.978731     0.000007     0.139998  -179.838733
	  101 D(12,6,3,17)    =    179.976365    -0.000002    -0.046632   179.929734
	  102 D(12,7,4,18)    =   -179.961535    -0.000005    -0.072526  -180.034061
	  103 D(13,10,2,16)   =     -0.075833    -0.000002    -0.034592    -0.110425
	  104 D(13,10,5,19)   =      0.025437    -0.000002    -0.045550    -0.020113
	  105 D(14,11,5,19)   =     -0.017564    -0.000000    -0.009022    -0.026586
	  106 D(15,1,2,16)    =      0.043120    -0.000001    -0.024974     0.018146
	  107 D(17,3,6,20)    =      0.074558    -0.000001    -0.013461     0.061097
	  108 D(18,4,7,21)    =      0.034001    -0.000000     0.000274     0.034274
	  109 R(3,14)         =      3.009318     0.010318     0.003365     3.012683
	 ---------------------------------------------------------------------------
	Successfully symmetrized geometry.
	 Forces used to impose fixed constraints are not included.
	  Forces zeroed: 61 

  ==> Convergence Check <==

  Measures of convergence in internal coordinates in au.
  Criteria marked as inactive (o), active & met (*), and active & unmet ( ).
  --------------------------------------------------------------------------------------------- ~
   Step     Total Energy     Delta E     MAX Force     RMS Force      MAX Disp      RMS Disp    ~
  --------------------------------------------------------------------------------------------- ~
    Convergence Criteria    1.00e-06 *    3.00e-04 *             o    1.20e-03 *             o  ~
  --------------------------------------------------------------------------------------------- ~
      1    -652.87057502   -6.53e+02      1.59e-02      4.70e-03 o    2.92e-02      9.58e-03 o  ~
  ---------------------------------------------------------------------------------------------

	Writing optimization data to binary file.
	Structure for next step:
	Cartesian Geometry (in Angstrom)
	    C    -1.3365319657   0.7676530357  -0.7754030951
	    C    -2.4110033913   1.3373328360  -0.1056379142
	    C     1.1356797743  -1.7832225739  -0.6352584683
	    C     1.6376745267   0.3275307466  -1.6269579209
	    C    -1.4139351322   0.7130017124   1.9920043928
	    C     2.2142624223  -2.3062334113  -1.3304210588
	    C     2.6941883567  -0.2890495642  -2.2785163043
	    C    -0.2921253406   0.1665971128  -0.0779213360
	    C     0.8381331778  -0.4348349871  -0.7850034235
	    C    -2.4487977336   1.3101132294   1.2802113269
	    C    -0.3513480677   0.1491430347   1.3077461747
	    N     2.9984332554  -1.5881497042  -2.1477281045
	    O    -3.5107625057   1.8745339187   1.9144080013
	    F     0.6383349854  -0.4222614192   2.0060839058
	    H    -1.3159342131   0.7923537603  -1.8560099130
	    H    -3.2164838693   1.7992875971  -0.6595884369
	    H     0.5429018329  -2.4179831117   0.0071875819
	    H     1.4455477710   1.3807460265  -1.7749359436
	    H    -1.4310870659   0.6845457806   3.0736864034
	    H     2.4747880136  -3.3529625785  -1.2397415933
	    H     3.3387496628   0.2737860989  -2.9411691718
	    H    -3.4018435949   1.7808773357   2.8670757777
			--------------------------
			 OPTKING Finished Execution 
			--------------------------

    Structure for next step:
    Molecular point group: c1
    Full point group: C1

    Geometry (in Angstrom), charge = 0, multiplicity = 1:

    C           -1.334305392889     0.766774341608    -0.773780610136
    C           -2.408776818539     1.336454141936    -0.104015429309
    C            1.137906347119    -1.784101268021    -0.633635983392
    C            1.639901099481     0.326652052504    -1.625335435968
    C           -1.411708559386     0.712123018331     1.993626877712
    C            2.216488995054    -2.307112105371    -1.328798573887
    C            2.696414929448    -0.289928258351    -2.276893819350
    C           -0.289898767804     0.165718418698    -0.076298851093
    C            0.840359750593    -0.435713681172    -0.783380938577
    C           -2.446571160866     1.309234535277     1.281833811817
    C           -0.349121494919     0.148264340550     1.309368659685
    N            3.000659828147    -1.589028398263    -2.146105619597
    O           -3.508535932942     1.873655224600     1.916030486260
    F            0.640561558232    -0.423140113277     2.007706390750
    H           -1.313707640347     0.791475066160    -1.854387428038
    H           -3.214257296544     1.798408902960    -0.657965951959
    H            0.545128405668    -2.418861805800     0.008810066853
    H            1.447774343830     1.379867332412    -1.773313458681
    H           -1.428860493161     0.683667086507     3.075308888292
    H            2.477014586402    -3.353841272630    -1.238119108392
    H            3.340976235603     0.272907404759    -2.939546686876
    H           -3.399617022125     1.779998641592     2.868698262667

gradient() will perform analytic gradient computation.

*** tstart() called on gpu-2-6.local
*** at Sat Nov 11 22:29:15 2017

    SCF Algorithm Type (re)set to DF.

*** tstart() called on gpu-2-6.local
*** at Sat Nov 11 22:29:15 2017

   => Loading Basis Set <=

    Name: AUG-CC-PVTZ
    Role: ORBITAL
    Keyword: BASIS
    atoms 1-11  entry C          line   221 file /cbio/jclab/home/chayas/anaconda/envs/py35/share/psi4/basis/aug-cc-pvtz.gbs 
    atoms 12    entry N          line   267 file /cbio/jclab/home/chayas/anaconda/envs/py35/share/psi4/basis/aug-cc-pvtz.gbs 
    atoms 13    entry O          line   313 file /cbio/jclab/home/chayas/anaconda/envs/py35/share/psi4/basis/aug-cc-pvtz.gbs 
    atoms 14    entry F          line   359 file /cbio/jclab/home/chayas/anaconda/envs/py35/share/psi4/basis/aug-cc-pvtz.gbs 
    atoms 15-22 entry H          line    34 file /cbio/jclab/home/chayas/anaconda/envs/py35/share/psi4/basis/aug-cc-pvtz.gbs 


         ---------------------------------------------------------
                                   SCF
            by Justin Turney, Rob Parrish, and Andy Simmonett
                              RHF Reference
                        8 Threads,   4768 MiB Core
         ---------------------------------------------------------

  ==> Geometry <==

    Molecular point group: c1
    Full point group: C1

    Geometry (in Angstrom), charge = 0, multiplicity = 1:

       Center              X                  Y                   Z               Mass       
    ------------   -----------------  -----------------  -----------------  -----------------
           C         -1.334305392889     0.766774341608    -0.773780610136    12.000000000000
           C         -2.408776818539     1.336454141936    -0.104015429309    12.000000000000
           C          1.137906347119    -1.784101268021    -0.633635983392    12.000000000000
           C          1.639901099481     0.326652052504    -1.625335435968    12.000000000000
           C         -1.411708559386     0.712123018331     1.993626877712    12.000000000000
           C          2.216488995054    -2.307112105371    -1.328798573887    12.000000000000
           C          2.696414929448    -0.289928258351    -2.276893819350    12.000000000000
           C         -0.289898767804     0.165718418698    -0.076298851093    12.000000000000
           C          0.840359750593    -0.435713681172    -0.783380938577    12.000000000000
           C         -2.446571160866     1.309234535277     1.281833811817    12.000000000000
           C         -0.349121494919     0.148264340550     1.309368659685    12.000000000000
           N          3.000659828147    -1.589028398263    -2.146105619597    14.003074004780
           O         -3.508535932942     1.873655224600     1.916030486260    15.994914619560
           F          0.640561558232    -0.423140113277     2.007706390750    18.998403224000
           H         -1.313707640347     0.791475066160    -1.854387428038     1.007825032070
           H         -3.214257296544     1.798408902960    -0.657965951959     1.007825032070
           H          0.545128405668    -2.418861805800     0.008810066853     1.007825032070
           H          1.447774343830     1.379867332412    -1.773313458681     1.007825032070
           H         -1.428860493161     0.683667086507     3.075308888292     1.007825032070
           H          2.477014586402    -3.353841272630    -1.238119108392     1.007825032070
           H          3.340976235603     0.272907404759    -2.939546686876     1.007825032070
           H         -3.399617022125     1.779998641592     2.868698262667     1.007825032070

  Running in c1 symmetry.

  Rotational constants: A =      0.06435  B =      0.01296  C =      0.01157 [cm^-1]
  Rotational constants: A =   1929.22781  B =    388.49597  C =    346.90074 [MHz]
  Nuclear repulsion =  814.657928458877223

  Charge       = 0
  Multiplicity = 1
  Electrons    = 98
  Nalpha       = 49
  Nbeta        = 49

  ==> Algorithm <==

  SCF Algorithm Type is DF.
  DIIS enabled.
  MOM disabled.
  Fractional occupation disabled.
  Guess Type is READ.
  Energy threshold   = 1.00e-10
  Density threshold  = 1.00e-10
  Integral threshold = 0.00e+00

  ==> Primary Basis <==

  Basis Set: AUG-CC-PVTZ
    Blend: AUG-CC-PVTZ
    Number of shells: 268
    Number of basis function: 828
    Number of Cartesian functions: 970
    Spherical Harmonics?: true
    Max angular momentum: 3

   => Loading Basis Set <=

    Name: (AUG-CC-PVTZ AUX)
    Role: JKFIT
    Keyword: DF_BASIS_SCF
    atoms 1-11  entry C          line   161 file /cbio/jclab/home/chayas/anaconda/envs/py35/share/psi4/basis/aug-cc-pvtz-jkfit.gbs 
    atoms 12    entry N          line   223 file /cbio/jclab/home/chayas/anaconda/envs/py35/share/psi4/basis/aug-cc-pvtz-jkfit.gbs 
    atoms 13    entry O          line   285 file /cbio/jclab/home/chayas/anaconda/envs/py35/share/psi4/basis/aug-cc-pvtz-jkfit.gbs 
    atoms 14    entry F          line   347 file /cbio/jclab/home/chayas/anaconda/envs/py35/share/psi4/basis/aug-cc-pvtz-jkfit.gbs 
    atoms 15-22 entry H          line    69 file /cbio/jclab/home/chayas/anaconda/envs/py35/share/psi4/basis/aug-cc-pvtz-jkfit.gbs 

  Reading orbitals from file 180, no projection.

  ==> Pre-Iterations <==

   -------------------------------------------------------
    Irrep   Nso     Nmo     Nalpha   Nbeta   Ndocc  Nsocc
   -------------------------------------------------------
     A        828     828       0       0       0       0
   -------------------------------------------------------
    Total     828     828      49      49      49       0
   -------------------------------------------------------

  ==> Integral Setup <==

  ==> DFJK: Density-Fitted J/K Matrices <==

    J tasked:                  Yes
    K tasked:                  Yes
    wK tasked:                  No
    OpenMP threads:              8
    Integrals threads:           8
    Memory (MB):              3576
    Algorithm:                Disk
    Integral Cache:           NONE
    Schwarz Cutoff:          1E-12
    Fitting Condition:       1E-12

   => Auxiliary Basis Set <=

  Basis Set: (AUG-CC-PVTZ AUX)
    Blend: AUG-CC-PVTZ-JKFIT
    Number of shells: 532
    Number of basis function: 1824
    Number of Cartesian functions: 2274
    Spherical Harmonics?: true
    Max angular momentum: 4

  Minimum eigenvalue in the overlap matrix is 6.9699522612E-07.
  Using Symmetric Orthogonalization.

  SCF Guess: Orbitals guess was supplied from a previous computation.

  ==> Iterations <==

                           Total Energy        Delta E     RMS |[F,P]|

   @DF-RHF iter   0:  -650.23793197242378   -6.50238e+02   4.72824e-04 
   @DF-RHF iter   1:  -650.17942190577674    5.85101e-02   8.62954e-05 
   @DF-RHF iter   2:  -650.17970774872083   -2.85843e-04   5.78247e-05 DIIS
   @DF-RHF iter   3:  -650.17986584710002   -1.58098e-04   1.00600e-05 DIIS
   @DF-RHF iter   4:  -650.17987190156828   -6.05447e-06   4.34340e-06 DIIS
   @DF-RHF iter   5:  -650.17987367197134   -1.77040e-06   1.47397e-06 DIIS
   @DF-RHF iter   6:  -650.17987403950690   -3.67536e-07   8.40806e-07 DIIS
   @DF-RHF iter   7:  -650.17987417336997   -1.33863e-07   3.12742e-07 DIIS
   @DF-RHF iter   8:  -650.17987420895031   -3.55803e-08   1.16445e-07 DIIS
   @DF-RHF iter   9:  -650.17987421199769   -3.04738e-09   4.65007e-08 DIIS
   @DF-RHF iter  10:  -650.17987421228543   -2.87741e-10   1.29085e-08 DIIS
   @DF-RHF iter  11:  -650.17987421229941   -1.39835e-11   3.68227e-09 DIIS
   @DF-RHF iter  12:  -650.17987421230202   -2.61480e-12   1.69229e-09 DIIS
   @DF-RHF iter  13:  -650.17987421230600   -3.97904e-12   5.47246e-10 DIIS
   @DF-RHF iter  14:  -650.17987421230760   -1.59162e-12   3.20891e-10 DIIS
   @DF-RHF iter  15:  -650.17987421230896   -1.36424e-12   1.50168e-10 DIIS
   @DF-RHF iter  16:  -650.17987421231555   -6.59384e-12   5.84545e-11 DIIS

  ==> Post-Iterations <==

    Orbital Energies (a.u.)
    -----------------------

    Doubly Occupied:                                                      

       1A    -26.325329     2A    -20.609519     3A    -15.563625  
       4A    -11.346813     5A    -11.326008     6A    -11.273121  
       7A    -11.272329     8A    -11.266621     9A    -11.263040  
      10A    -11.252572    11A    -11.251790    12A    -11.242115  
      13A    -11.238813    14A    -11.237412    15A     -1.645361  
      16A     -1.427235    17A     -1.256388    18A     -1.184155  
      19A     -1.111458    20A     -1.043170    21A     -1.034589  
      22A     -1.022920    23A     -0.892805    24A     -0.877137  
      25A     -0.856346    26A     -0.826701    27A     -0.774196  
      28A     -0.748829    29A     -0.725747    30A     -0.711567  
      31A     -0.696775    32A     -0.665900    33A     -0.661839  
      34A     -0.642855    35A     -0.636679    36A     -0.615547  
      37A     -0.610412    38A     -0.597907    39A     -0.580037  
      40A     -0.545803    41A     -0.537725    42A     -0.534113  
      43A     -0.522184    44A     -0.496616    45A     -0.419070  
      46A     -0.389530    47A     -0.360996    48A     -0.348392  
      49A     -0.326248  

    Virtual:                                                              

      50A      0.021868    51A      0.029320    52A      0.034437  
      53A      0.036834    54A      0.044523    55A      0.047287  
      56A      0.052979    57A      0.054597    58A      0.076567  
      59A      0.082831    60A      0.083163    61A      0.085876  
      62A      0.093412    63A      0.095578    64A      0.097302  
      65A      0.101265    66A      0.104398    67A      0.108513  
      68A      0.110197    69A      0.113119    70A      0.113342  
      71A      0.118687    72A      0.120839    73A      0.125251  
      74A      0.129479    75A      0.131718    76A      0.133877  
      77A      0.135443    78A      0.140741    79A      0.143651  
      80A      0.147518    81A      0.151779    82A      0.153859  
      83A      0.155564    84A      0.156318    85A      0.166836  
      86A      0.171465    87A      0.173213    88A      0.182665  
      89A      0.185777    90A      0.193876    91A      0.200899  
      92A      0.207961    93A      0.213550    94A      0.216312  
      95A      0.225005    96A      0.228382    97A      0.235631  
      98A      0.236311    99A      0.239889   100A      0.241516  
     101A      0.244289   102A      0.248683   103A      0.253411  
     104A      0.257150   105A      0.260969   106A      0.264435  
     107A      0.266736   108A      0.269601   109A      0.272639  
     110A      0.278769   111A      0.282083   112A      0.285719  
     113A      0.291152   114A      0.294708   115A      0.300814  
     116A      0.301948   117A      0.310734   118A      0.314145  
     119A      0.318424   120A      0.319236   121A      0.323103  
     122A      0.327067   123A      0.329697   124A      0.331736  
     125A      0.336280   126A      0.344926   127A      0.348042  
     128A      0.350701   129A      0.354649   130A      0.360484  
     131A      0.369485   132A      0.376093   133A      0.382587  
     134A      0.386831   135A      0.390180   136A      0.396054  
     137A      0.401368   138A      0.404213   139A      0.406802  
     140A      0.414761   141A      0.415679   142A      0.420382  
     143A      0.425208   144A      0.428571   145A      0.430561  
     146A      0.436963   147A      0.443120   148A      0.446049  
     149A      0.447782   150A      0.451680   151A      0.458908  
     152A      0.463624   153A      0.467289   154A      0.469763  
     155A      0.474653   156A      0.477482   157A      0.480831  
     158A      0.485704   159A      0.486423   160A      0.488259  
     161A      0.494063   162A      0.498294   163A      0.498805  
     164A      0.502030   165A      0.509940   166A      0.511406  
     167A      0.512945   168A      0.513888   169A      0.522905  
     170A      0.523309   171A      0.525517   172A      0.530751  
     173A      0.536097   174A      0.540031   175A      0.544791  
     176A      0.547612   177A      0.550557   178A      0.556197  
     179A      0.559097   180A      0.562060   181A      0.573943  
     182A      0.576631   183A      0.580782   184A      0.585038  
     185A      0.592041   186A      0.593061   187A      0.603764  
     188A      0.613335   189A      0.621043   190A      0.626346  
     191A      0.627624   192A      0.637261   193A      0.641625  
     194A      0.643543   195A      0.649387   196A      0.657454  
     197A      0.660041   198A      0.673573   199A      0.679763  
     200A      0.683697   201A      0.695325   202A      0.696794  
     203A      0.702940   204A      0.707115   205A      0.709685  
     206A      0.718775   207A      0.720910   208A      0.725887  
     209A      0.733527   210A      0.738171   211A      0.738447  
     212A      0.740249   213A      0.748525   214A      0.756576  
     215A      0.765263   216A      0.767671   217A      0.776281  
     218A      0.780458   219A      0.789317   220A      0.791448  
     221A      0.801135   222A      0.803392   223A      0.811725  
     224A      0.822487   225A      0.823852   226A      0.830391  
     227A      0.830826   228A      0.839564   229A      0.851892  
     230A      0.854486   231A      0.856350   232A      0.862080  
     233A      0.864794   234A      0.872109   235A      0.873792  
     236A      0.880977   237A      0.887302   238A      0.888089  
     239A      0.893631   240A      0.899063   241A      0.904554  
     242A      0.908865   243A      0.912403   244A      0.923437  
     245A      0.928161   246A      0.931849   247A      0.933295  
     248A      0.934942   249A      0.941727   250A      0.945586  
     251A      0.948428   252A      0.957438   253A      0.960345  
     254A      0.964135   255A      0.965915   256A      0.970264  
     257A      0.973777   258A      0.986031   259A      0.988508  
     260A      0.991706   261A      0.997939   262A      1.002901  
     263A      1.007771   264A      1.010291   265A      1.019744  
     266A      1.022641   267A      1.025200   268A      1.026989  
     269A      1.032193   270A      1.037805   271A      1.044365  
     272A      1.047949   273A      1.051091   274A      1.053465  
     275A      1.061464   276A      1.064683   277A      1.072692  
     278A      1.072753   279A      1.080184   280A      1.083416  
     281A      1.086992   282A      1.093830   283A      1.098174  
     284A      1.103885   285A      1.108818   286A      1.112829  
     287A      1.118956   288A      1.126482   289A      1.128276  
[...]
	        Rob Parrish, Justin Turney, Andy Simmonett,      
	           Ed Hohenstein, and C. David Sherrill          
	 --------------------------------------------------------

   => Auxiliary Basis Set <=

  Basis Set: (AUG-CC-PVTZ AUX)
    Blend: AUG-CC-PVTZ-RI
    Number of shells: 504
    Number of basis function: 1852
    Number of Cartesian functions: 2344
    Spherical Harmonics?: true
    Max angular momentum: 4

	 --------------------------------------------------------
	                 NBF =   828, NAUX =  1852
	 --------------------------------------------------------
	   CLASS    FOCC     OCC    AOCC    AVIR     VIR    FVIR
	   PAIRS       0      49      49     779     779       0
	 --------------------------------------------------------


         ------------------------------------------------------------
                                     CPHF                           
                                  Rob Parrish                       
         ------------------------------------------------------------

  ==> Geometry <==

    Molecular point group: c1
    Full point group: C1

    Geometry (in Angstrom), charge = 0, multiplicity = 1:

       Center              X                  Y                   Z               Mass       
    ------------   -----------------  -----------------  -----------------  -----------------
           C         -1.334305392889     0.766774341608    -0.773780610136    12.000000000000
           C         -2.408776818539     1.336454141936    -0.104015429309    12.000000000000
           C          1.137906347119    -1.784101268021    -0.633635983392    12.000000000000
           C          1.639901099481     0.326652052504    -1.625335435968    12.000000000000
           C         -1.411708559386     0.712123018331     1.993626877712    12.000000000000
           C          2.216488995054    -2.307112105371    -1.328798573887    12.000000000000
           C          2.696414929448    -0.289928258351    -2.276893819350    12.000000000000
           C         -0.289898767804     0.165718418698    -0.076298851093    12.000000000000
           C          0.840359750593    -0.435713681172    -0.783380938577    12.000000000000
           C         -2.446571160866     1.309234535277     1.281833811817    12.000000000000
           C         -0.349121494919     0.148264340550     1.309368659685    12.000000000000
           N          3.000659828147    -1.589028398263    -2.146105619597    14.003074004780
           O         -3.508535932942     1.873655224600     1.916030486260    15.994914619560
           F          0.640561558232    -0.423140113277     2.007706390750    18.998403224000
           H         -1.313707640347     0.791475066160    -1.854387428038     1.007825032070
           H         -3.214257296544     1.798408902960    -0.657965951959     1.007825032070
           H          0.545128405668    -2.418861805800     0.008810066853     1.007825032070
           H          1.447774343830     1.379867332412    -1.773313458681     1.007825032070
           H         -1.428860493161     0.683667086507     3.075308888292     1.007825032070
           H          2.477014586402    -3.353841272630    -1.238119108392     1.007825032070
           H          3.340976235603     0.272907404759    -2.939546686876     1.007825032070
           H         -3.399617022125     1.779998641592     2.868698262667     1.007825032070

  Nuclear repulsion =  814.657928458877223
  Reference energy  = -650.179874212315553

  ==> Basis Set <==

  Basis Set: AUG-CC-PVTZ
    Blend: AUG-CC-PVTZ
    Number of shells: 268
    Number of basis function: 828
    Number of Cartesian functions: 970
    Spherical Harmonics?: true
    Max angular momentum: 3

  ==> CGRSolver (by Rob Parrish) <==

   Number of roots    =         1
   Preconditioning    =    JACOBI
   Convergence cutoff =     1E-06
   Maximum iterations =       100

  ==> CPHFRHamiltonian (by Rob Parrish) <== 

  ==> DFJK: Density-Fitted J/K Matrices <==

    J tasked:                  Yes
    K tasked:                  Yes
    wK tasked:                  No
    OpenMP threads:              8
    Integrals threads:           8
    Memory (MB):              3576
    Algorithm:                Disk
    Integral Cache:           NONE
    Schwarz Cutoff:          1E-12
    Fitting Condition:       1E-12

   => Auxiliary Basis Set <=

  Basis Set: (AUG-CC-PVTZ AUX)
    Blend: AUG-CC-PVTZ-JKFIT
    Number of shells: 532
    Number of basis function: 1824
    Number of Cartesian functions: 2274
    Spherical Harmonics?: true
    Max angular momentum: 4

  ==> CPHF Iterations <==

  => Iterations <=

             Iter  Converged  Remaining    Residual
  CGR           1          0          1   1.019E-01
  CGR           2          0          1   3.346E-02
  CGR           3          0          1   2.200E-02
  CGR           4          0          1   9.342E-03
  CGR           5          0          1   3.899E-03
  CGR           6          0          1   1.474E-03
  CGR           7          0          1   4.335E-04
  CGR           8          0          1   1.445E-04
  CGR           9          0          1   4.671E-05
  CGR          10          0          1   1.500E-05
  CGR          11          0          1   7.427E-06
  CGR          12          0          1   3.210E-06
  CGR          13          0          1   1.486E-06
  CGR          14          1          0   5.106E-07

    CGRSolver converged.

  ==> DFCorrGrad: Density-Fitted Correlated Gradients <==

    OpenMP threads:              8
    Integrals threads:           8
    Memory (MB):              3576
    Schwarz Cutoff:          0E+00
    Fitting Condition:       1E-12

   => Auxiliary Basis Set <=

  Basis Set: (AUG-CC-PVTZ AUX)
    Blend: AUG-CC-PVTZ-JKFIT
    Number of shells: 532
    Number of basis function: 1824
    Number of Cartesian functions: 2274
    Spherical Harmonics?: true
    Max angular momentum: 4

	-----------------------------------------------------------
	 ==================> DF-MP2 Energies <==================== 
	-----------------------------------------------------------
	 Reference Energy          =    -650.1798742123155535 [Eh]
	 Singles Energy            =      -0.0000000000000004 [Eh]
	 Same-Spin Energy          =      -0.6767098816204205 [Eh]
	 Opposite-Spin Energy      =      -2.0172187307146814 [Eh]
	 Correlation Energy        =      -2.6939286123351023 [Eh]
	 Total Energy              =    -652.8738028246506246 [Eh]
	-----------------------------------------------------------
	 ================> DF-SCS-MP2 Energies <================== 
	-----------------------------------------------------------
	 SCS Same-Spin Scale       =       0.3333333333333333 [-]
	 SCS Opposite-Spin Scale   =       1.2000000000000000 [-]
	 SCS Same-Spin Energy      =      -0.2255699605401401 [Eh]
	 SCS Opposite-Spin Energy  =      -2.4206624768576175 [Eh]
	 SCS Correlation Energy    =      -2.6462324373977579 [Eh]
	 SCS Total Energy          =    -652.8261066497133243 [Eh]
	-----------------------------------------------------------


  -Total Gradient:
     Atom            X                  Y                   Z
    ------   -----------------  -----------------  -----------------
       1        0.004135060849    -0.004466453929    -0.006884730303
       2        0.000622410063    -0.000804450111     0.004675013706
       3       -0.004499934767     0.000325528847     0.001667762589
       4       -0.001099464275     0.003078807953     0.002248907310
       5       -0.002239553452     0.001318004499    -0.001579443364
       6       -0.004495462517     0.000582774677     0.003423064012
       7       -0.003616427792     0.004397004190     0.002402977923
       8       -0.004664907487     0.002672566510     0.003014304830
       9        0.002440625979    -0.001359946889    -0.002355886277
      10       -0.004031009725     0.002334646818    -0.003604934534
      11        0.012253870327    -0.004289421769     0.003606046386
      12        0.005847860880    -0.003421440246    -0.003853099300
      13        0.001816920341    -0.000955922956     0.001291538476
      14       -0.001508048317     0.000345800151    -0.001539055811
      15       -0.001467536074     0.001197320112    -0.001378934475
      16       -0.000768282905     0.000702697709    -0.002416875463
      17       -0.000029567406    -0.001483305441     0.000379698156
      18        0.000280809280     0.000936721137    -0.001176048913
      19       -0.001034850967     0.000263818632     0.001591336497
      20        0.001228959991    -0.000810272264    -0.000645474618
      21        0.001108553880    -0.000621477604    -0.000813984412
      22       -0.000280025903     0.000056999973     0.001947817589


*** tstop() called on gpu-2-6.local at Sat Nov 11 23:14:44 2017
Module time:
	user time   =    5838.68 seconds =      97.31 minutes
	system time =     103.90 seconds =       1.73 minutes
	total time  =       2729 seconds =      45.48 minutes
Total time:
	user time   =   11849.33 seconds =     197.49 minutes
	system time =     224.21 seconds =       3.74 minutes
	total time  =       5507 seconds =      91.78 minutes

			-----------------------------------------
			 OPTKING 2.0: for geometry optimizations 
			  - R.A. King,  Bethel University        
			-----------------------------------------

	Previous internal coordinate definitions found.
	---Fragment 1 Geometry and Gradient---
	 C          -2.5214717702        1.4489935114       -1.4622334401
	 C          -4.5519285023        2.5255323174       -0.1965606750
	 C           2.1503313609       -3.3714627899       -1.1973984766
	 C           3.0989639630        0.6172829200       -3.0714388481
	 C          -2.6677425567        1.3457174776        3.7674088100
	 C           4.1885571772       -4.3598100370       -2.5110653904
	 C           5.0954857573       -0.5478850065       -4.3027057522
	 C          -0.5478292774        0.3131624265       -0.1441839328
	 C           1.5880497817       -0.8233795298       -1.4803754316
	 C          -4.6233494587        2.4740947154        2.4223148522
	 C          -0.6597440125        0.2801789989        2.4743481738
	 N           5.6704252931       -3.0028284901       -4.0555518733
	 O          -6.6301720406        3.5406952419        3.6207728813
	 F           1.2104859163       -0.7996189299        3.7940152338
	 H          -2.4825476589        1.4956711161       -3.5042843833
	 H          -6.0740660111        3.3985003015       -1.2433754540
	 H           1.0301433940       -4.5709863663        0.0166486136
	 H           2.7358970121        2.6075713580       -3.3510767847
	 H          -2.7001550142        1.2919435596        5.8114915729
	 H           4.6808791955       -6.3378414984       -2.3397060348
	 H           6.3135301018        0.5157202546       -5.5549381930
	 H          -6.4243451285        3.3637099495        5.4210540743
	             0.0041350608       -0.0044664539       -0.0068847303
	             0.0006224101       -0.0008044501        0.0046750137
	            -0.0044999348        0.0003255288        0.0016677626
	            -0.0010994643        0.0030788080        0.0022489073
	            -0.0022395535        0.0013180045       -0.0015794434
	            -0.0044954625        0.0005827747        0.0034230640
	            -0.0036164278        0.0043970042        0.0024029779
	            -0.0046649075        0.0026725665        0.0030143048
	             0.0024406260       -0.0013599469       -0.0023558863
	            -0.0040310097        0.0023346468       -0.0036049345
	             0.0122538703       -0.0042894218        0.0036060464
	             0.0058478609       -0.0034214402       -0.0038530993
	             0.0018169203       -0.0009559230        0.0012915385
	            -0.0015080483        0.0003458002       -0.0015390558
	            -0.0014675361        0.0011973201       -0.0013789345
	            -0.0007682829        0.0007026977       -0.0024168755
	            -0.0000295674       -0.0014833054        0.0003796982
	             0.0002808093        0.0009367211       -0.0011760489
	            -0.0010348510        0.0002638186        0.0015913365
	             0.0012289600       -0.0008102723       -0.0006454746
	             0.0011085539       -0.0006214776       -0.0008139844
	            -0.0002800259        0.0000570000        0.0019478176

	---Fragment 1 Intrafragment Coordinates---
	 - Coordinate -           - BOHR/RAD -       - ANG/DEG -
	 R(1,2)           =         2.623665	       1.388384
	 R(1,8)           =         2.631089	       1.392313
	 R(1,15)          =         2.042955	       1.081085
	 R(2,10)          =         2.620354	       1.386632
	 R(2,16)          =         2.043232	       1.081232
	 R(3,6)           =         2.618571	       1.385688
	 R(3,9)           =         2.624684	       1.388923
	 R(3,17)          =         2.041467	       1.080298
	 R(4,7)           =         2.619109	       1.385973
	 R(4,9)           =         2.624853	       1.389012
	 R(4,18)          =         2.042367	       1.080774
	 R(5,10)          =         2.628100	       1.390731
	 R(5,11)          =         2.615232	       1.383921
	 R(5,19)          =         2.045047	       1.082192
	 R(6,12)          =         2.534319	       1.341104
	 R(6,20)          =         2.045569	       1.082469
	 R(7,12)          =         2.533454	       1.340646
	 R(7,21)          =         2.045232	       1.082290
	 R(8,9)           =         2.763895	       1.462590
	 R(8,11)          =         2.621130	       1.387042
	 R(10,13)         =         2.569295	       1.359612
	 R(11,14)         =         2.530858	       1.339273
	 R(13,22)         =         1.820632	       0.963437
	 B(1,2,10)        =         2.088831	     119.681174
	 B(1,2,16)        =         2.099813	     120.310445
	 B(1,8,9)         =         2.111821	     120.998436
	 B(1,8,11)        =         2.064465	     118.285128
	 B(2,1,8)         =         2.112962	     121.063782
	 B(2,1,15)        =         2.080093	     119.180523
	 B(2,10,5)        =         2.094014	     119.978162
	 B(2,10,13)       =         2.070689	     118.641722
	 B(3,6,12)        =         2.163697	     123.970692
	 B(3,6,20)        =         2.106315	     120.682947
	 B(3,9,4)         =         2.065617	     118.351164
	 B(3,9,8)         =         2.109051	     120.839726
	 B(4,7,12)        =         2.163031	     123.932575
	 B(4,7,21)        =         2.106523	     120.694867
	 B(4,9,8)         =         2.108509	     120.808685
	 B(5,10,13)       =         2.118482	     121.380104
	 B(5,11,8)        =         2.119522	     121.439678
	 B(5,11,14)       =         2.075341	     118.908261
	 B(6,3,9)         =         2.070408	     118.625629
	 B(6,3,17)        =         2.098643	     120.243367
	 B(6,12,7)        =         2.032648	     116.462175
	 B(7,4,9)         =         2.070969	     118.657763
	 B(7,4,18)        =         2.099798	     120.309578
	 B(8,1,15)        =         2.090130	     119.755623
	 B(8,11,14)       =         2.088321	     119.651994
	 B(9,3,17)        =         2.114134	     121.130980
	 B(9,4,18)        =         2.112418	     121.032651
	 B(9,8,11)        =         2.106896	     120.716255
	 B(10,2,16)       =         2.094540	     120.008314
	 B(10,5,11)       =         2.086576	     119.551976
	 B(10,5,19)       =         2.107222	     120.734927
	 B(10,13,22)      =         1.909836	     109.425549
	 B(11,5,19)       =         2.089388	     119.713095
	 B(12,6,20)       =         2.013172	     115.346242
	 B(12,7,21)       =         2.013630	     115.372525
	 D(1,2,10,5)      =        -0.000990	      -0.056700
	 D(1,2,10,13)     =         3.141293	     179.982837
	 D(1,8,9,3)       =        -2.097219	    -120.161782
	 D(1,8,9,4)       =         1.040165	      59.597066
	 D(1,8,11,5)      =        -0.002034	      -0.116525
	 D(1,8,11,14)     =         3.141225	     179.978910
	 D(2,1,8,9)       =         3.140013	     179.909484
	 D(2,1,8,11)      =         0.001095	       0.062751
	 D(2,10,5,11)     =         0.000079	       0.004546
	 D(2,10,5,19)     =        -3.141234	    -179.979469
	 D(2,10,13,22)    =         3.141157	     179.975052
	 D(3,6,12,7)      =         0.000088	       0.005017
	 D(3,9,4,7)       =        -0.000146	      -0.008371
	 D(3,9,4,18)      =        -3.141170	    -179.975762
	 D(3,9,8,11)      =         1.041634	      59.681227
	 D(4,7,12,6)      =         0.000062	       0.003536
	 D(4,9,3,6)       =         0.000281	       0.016093
	 D(4,9,3,17)      =        -3.140339	    -179.928151
	 D(4,9,8,11)      =        -2.104168	    -120.559925
	 D(5,10,2,16)     =         3.138975	     179.850038
	 D(5,10,13,22)    =         0.000265	       0.015167
	 D(5,11,8,9)      =        -3.140959	    -179.963709
	 D(6,3,9,8)       =         3.137766	     179.780743
	 D(6,12,7,21)     =         3.140519	     179.938502
	 D(7,4,9,8)       =        -3.137632	    -179.773097
	 D(7,12,6,20)     =         3.139498	     179.880011
	 D(8,1,2,10)      =         0.000394	       0.022557
	 D(8,1,2,16)      =        -3.139566	    -179.883895
	 D(8,9,3,17)      =        -0.002854	      -0.163501
	 D(8,9,4,18)      =         0.004529	       0.259512
	 D(8,11,5,10)     =         0.001466	       0.083976
	 D(8,11,5,19)     =        -3.140403	    -179.931844
	 D(9,3,6,12)      =        -0.000262	      -0.015020
	 D(9,3,6,20)      =        -3.139562	    -179.883657
	 D(9,4,7,12)      =        -0.000030	      -0.001695
	 D(9,4,7,21)      =        -3.140430	    -179.933360
	 D(9,8,1,15)      =         0.000140	       0.008001
	 D(9,8,11,14)     =         0.002299	       0.131726
	 D(10,2,1,15)     =         3.140277	     179.924597
	 D(10,5,11,14)    =         3.141405	     179.989234
	 D(11,5,10,13)    =         3.140963	     179.963902
	 D(11,8,1,15)     =        -3.138778	    -179.838733
	 D(12,6,3,17)     =         3.140366	     179.929734
	 D(12,7,4,18)     =         3.140998	     179.965939
	 D(13,10,2,16)    =        -0.001927	      -0.110425
	 D(13,10,5,19)    =        -0.000351	      -0.020113
	 D(14,11,5,19)    =        -0.000464	      -0.026586
	 D(15,1,2,16)     =         0.000317	       0.018146
	 D(17,3,6,20)     =         0.001066	       0.061097
	 D(18,4,7,21)     =         0.000598	       0.034274
	 R(3,14)          =         5.693145	       3.012683

	Current energy   :      -652.8738028247

	Energy change for the previous step:
		Projected    :        -0.0048606415
		Actual       :        -0.0032278028

	Performing BFGS update.
	Previous computed or guess Hessian on step 1.
	Steps to be used in Hessian update: 1
	Adding user-defined constraint: Fragment 1; Coordinate 61:
		Value =    -2.097219; Fixed value    =    -2.094400
		Force =     0.001480; Force constant =     0.525000
	Removing off-diagonal coupling between coordinate 61 and others.
	Taking RFO optimization step.
	Going to follow RFO solution 1.
	Using RFO vector 1.

	Determining step-restricting scale parameter for RS-RFO.
	Maximum step size allowed    0.10000

	 Iter      |step|        alpha        rfo_root  
	------------------------------------------------
	    0     0.15162       1.00000           1
	    1     0.11898       6.14449           1
	    2     0.10447      10.80535           1
	    3     0.10037      12.67596           1
	    4     0.10000      12.85970           1
	------------------------------------------------
	Norm of target step-size    0.10000
	Projected energy change by RFO approximation:        -0.0007506884

	Back-transformation to cartesian coordinates...
	The INTCO_EXCEPTion handler:
	TORS::compute_val: unable to compute torsion value
	Dynamic level is 0.
	exc.g_really_quit() is 0.

  **** Optimization has failed! (in 2 steps) ****
			--------------------------
			 OPTKING Finished Execution 
			--------------------------
	Cleaning optimization helper files.

*** Psi4 exiting successfully. Buy a developer a beer!
