
    -----------------------------------------------------------------------
          Psi4: An Open-Source Ab Initio Electronic Structure Package
                               Psi4 1.1 release

                         Git: Rev {HEAD} add49b9 


    R. M. Parrish, L. A. Burns, D. G. A. Smith, A. C. Simmonett,
    A. E. DePrince III, E. G. Hohenstein, U. Bozkaya, A. Yu. Sokolov,
    R. Di Remigio, R. M. Richard, J. F. Gonthier, A. M. James,
    H. R. McAlexander, A. Kumar, M. Saitow, X. Wang, B. P. Pritchard,
    P. Verma, H. F. Schaefer III, K. Patkowski, R. A. King, E. F. Valeev,
    F. A. Evangelista, J. M. Turney, T. D. Crawford, and C. D. Sherrill,
    J. Chem. Theory Comput. in press (2017).
    (doi: 10.1021/acs.jctc.7b00174)

    -----------------------------------------------------------------------


    Psi4 started on: Saturday, 11 November 2017 06:16PM

    Process ID:  29672
    PSIDATADIR: /cbio/jclab/home/chayas/anaconda/envs/py35/share/psi4
    Memory:     500.0 MiB
    Threads:    8
    
  ==> Input File <==

--------------------------------------------------------------------------

memory 5 Gb

molecule phepyrFOH_cation {
  symmetry C1
  1 1 
  C      1.885   -1.036   -0.112
  C      0.807   -0.463   0.561
  C      3.994   -3.565   -0.467
  C      5.158   -1.457   -0.399
  C      1.800   -1.079   2.676
  C      5.079   -4.108   -1.139
  C      6.214   -2.053   -1.074
  C      2.921   -1.631   0.608
  C      4.038   -2.225   -0.095
  C      0.764   -0.484   1.955
  C      2.878   -1.652   2.002
  N      6.145   -3.346   -1.420
  O      -0.289   0.076   2.612
  F      3.866   -2.220   2.709
  H      1.904   -1.012   -1.199
  H      0.002   -0.002   -0.006
  H      3.133   -4.188   -0.242
  H      5.220   -0.409   -0.121
  H      1.772   -1.099   3.762
  H      5.132   -5.137   -1.467
  H      7.121   -1.535   -1.351
  H      6.932   -3.765   -1.914
  H      -0.175   -0.018   3.571
  units Angstrom
}

dih_string = "1 8 9 3 270"
set optking fixed_dihedral = $dih_string

optimize('MP2/aug-cc-PVTZ')
--------------------------------------------------------------------------

  Memory set to   4.657 GiB by Python driver.
gradient() will perform analytic gradient computation.

*** tstart() called on gpu-2-10.local
*** at Sat Nov 11 18:16:21 2017

    SCF Algorithm Type (re)set to DF.

*** tstart() called on gpu-2-10.local
*** at Sat Nov 11 18:16:21 2017

   => Loading Basis Set <=

    Name: AUG-CC-PVTZ
    Role: ORBITAL
    Keyword: BASIS
    atoms 1-11  entry C          line   221 file /cbio/jclab/home/chayas/anaconda/envs/py35/share/psi4/basis/aug-cc-pvtz.gbs 
    atoms 12    entry N          line   267 file /cbio/jclab/home/chayas/anaconda/envs/py35/share/psi4/basis/aug-cc-pvtz.gbs 
    atoms 13    entry O          line   313 file /cbio/jclab/home/chayas/anaconda/envs/py35/share/psi4/basis/aug-cc-pvtz.gbs 
    atoms 14    entry F          line   359 file /cbio/jclab/home/chayas/anaconda/envs/py35/share/psi4/basis/aug-cc-pvtz.gbs 
    atoms 15-23 entry H          line    34 file /cbio/jclab/home/chayas/anaconda/envs/py35/share/psi4/basis/aug-cc-pvtz.gbs 


         ---------------------------------------------------------
                                   SCF
            by Justin Turney, Rob Parrish, and Andy Simmonett
                              RHF Reference
                        8 Threads,   4768 MiB Core
         ---------------------------------------------------------

  ==> Geometry <==

    Molecular point group: c1
    Full point group: C1

    Geometry (in Angstrom), charge = 1, multiplicity = 1:

       Center              X                  Y                   Z               Mass       
    ------------   -----------------  -----------------  -----------------  -----------------
           C         -1.338151165189     0.764158749936    -0.788573172679    12.000000000000
           C         -2.416151165189     1.337158749936    -0.115573172679    12.000000000000
           C          0.770848834811    -1.764841250064    -1.143573172679    12.000000000000
           C          1.934848834811     0.343158749936    -1.075573172679    12.000000000000
           C         -1.423151165189     0.721158749936     1.999426827321    12.000000000000
           C          1.855848834811    -2.307841250064    -1.815573172679    12.000000000000
           C          2.990848834811    -0.252841250064    -1.750573172679    12.000000000000
           C         -0.302151165189     0.169158749936    -0.068573172679    12.000000000000
           C          0.814848834811    -0.424841250064    -0.771573172679    12.000000000000
           C         -2.459151165189     1.316158749936     1.278426827321    12.000000000000
           C         -0.345151165189     0.148158749936     1.325426827321    12.000000000000
           N          2.921848834811    -1.545841250064    -2.096573172679    14.003074004780
           O         -3.512151165189     1.876158749936     1.935426827321    15.994914619560
           F          0.642848834811    -0.419841250064     2.032426827321    18.998403224000
           H         -1.319151165189     0.788158749936    -1.875573172679     1.007825032070
           H         -3.221151165189     1.798158749936    -0.682573172679     1.007825032070
           H         -0.090151165189    -2.387841250064    -0.918573172679     1.007825032070
           H          1.996848834811     1.391158749936    -0.797573172679     1.007825032070
           H         -1.451151165189     0.701158749936     3.085426827321     1.007825032070
           H          1.908848834811    -3.336841250064    -2.143573172679     1.007825032070
           H          3.897848834811     0.265158749936    -2.027573172679     1.007825032070
           H          3.708848834811    -1.964841250064    -2.590573172679     1.007825032070
           H         -3.398151165189     1.782158749936     2.894426827321     1.007825032070

  Running in c1 symmetry.

  Rotational constants: A =      0.06291  B =      0.01259  C =      0.01175 [cm^-1]
  Rotational constants: A =   1885.98219  B =    377.48969  C =    352.16641 [MHz]
  Nuclear repulsion =  828.378471308478197

  Charge       = 1
  Multiplicity = 1
  Electrons    = 98
  Nalpha       = 49
  Nbeta        = 49

  ==> Algorithm <==

  SCF Algorithm Type is DF.
  DIIS enabled.
  MOM disabled.
  Fractional occupation disabled.
  Guess Type is SAD.
  Energy threshold   = 1.00e-10
  Density threshold  = 1.00e-10
  Integral threshold = 0.00e+00

  ==> Primary Basis <==

  Basis Set: AUG-CC-PVTZ
    Blend: AUG-CC-PVTZ
    Number of shells: 277
    Number of basis function: 851
    Number of Cartesian functions: 995
    Spherical Harmonics?: true
    Max angular momentum: 3

   => Loading Basis Set <=

    Name: (AUG-CC-PVTZ AUX)
    Role: JKFIT
    Keyword: DF_BASIS_SCF
    atoms 1-11  entry C          line   161 file /cbio/jclab/home/chayas/anaconda/envs/py35/share/psi4/basis/aug-cc-pvtz-jkfit.gbs 
    atoms 12    entry N          line   223 file /cbio/jclab/home/chayas/anaconda/envs/py35/share/psi4/basis/aug-cc-pvtz-jkfit.gbs 
    atoms 13    entry O          line   285 file /cbio/jclab/home/chayas/anaconda/envs/py35/share/psi4/basis/aug-cc-pvtz-jkfit.gbs 
    atoms 14    entry F          line   347 file /cbio/jclab/home/chayas/anaconda/envs/py35/share/psi4/basis/aug-cc-pvtz-jkfit.gbs 
    atoms 15-23 entry H          line    69 file /cbio/jclab/home/chayas/anaconda/envs/py35/share/psi4/basis/aug-cc-pvtz-jkfit.gbs 

  ==> Pre-Iterations <==

   -------------------------------------------------------
    Irrep   Nso     Nmo     Nalpha   Nbeta   Ndocc  Nsocc
   -------------------------------------------------------
     A        851     851       0       0       0       0
   -------------------------------------------------------
    Total     851     851      49      49      49       0
   -------------------------------------------------------

  ==> Integral Setup <==

  ==> DFJK: Density-Fitted J/K Matrices <==

    J tasked:                  Yes
    K tasked:                  Yes
    wK tasked:                  No
    OpenMP threads:              8
    Integrals threads:           8
    Memory (MB):              3576
    Algorithm:                Disk
    Integral Cache:           NONE
    Schwarz Cutoff:          1E-12
    Fitting Condition:       1E-12

   => Auxiliary Basis Set <=

  Basis Set: (AUG-CC-PVTZ AUX)
    Blend: AUG-CC-PVTZ-JKFIT
    Number of shells: 546
    Number of basis function: 1870
    Number of Cartesian functions: 2329
    Spherical Harmonics?: true
    Max angular momentum: 4

  Minimum eigenvalue in the overlap matrix is 6.9118697959E-07.
  Using Symmetric Orthogonalization.

  SCF Guess: Superposition of Atomic Densities via on-the-fly atomic UHF.

  ==> Iterations <==

                           Total Energy        Delta E     RMS |[F,P]|

   @DF-RHF iter   0:  -652.37643917861851   -6.52376e+02   2.31154e-02 
   @DF-RHF iter   1:  -650.08077834260223    2.29566e+00   2.68369e-03 
   @DF-RHF iter   2:  -650.45560982509107   -3.74831e-01   1.34698e-03 DIIS
   @DF-RHF iter   3:  -650.53536768619290   -7.97579e-02   4.63542e-04 DIIS
   @DF-RHF iter   4:  -650.55283265474941   -1.74650e-02   1.17960e-04 DIIS
   @DF-RHF iter   5:  -650.55539053674624   -2.55788e-03   4.04894e-05 DIIS
   @DF-RHF iter   6:  -650.55583309342069   -4.42557e-04   2.24607e-05 DIIS
   @DF-RHF iter   7:  -650.55589553144841   -6.24380e-05   8.14558e-06 DIIS
   @DF-RHF iter   8:  -650.55590261838881   -7.08694e-06   1.76955e-06 DIIS
   @DF-RHF iter   9:  -650.55590345241103   -8.34022e-07   1.14252e-06 DIIS
   @DF-RHF iter  10:  -650.55590371390679   -2.61496e-07   5.54387e-07 DIIS
   @DF-RHF iter  11:  -650.55590379250827   -7.86015e-08   1.90025e-07 DIIS
   @DF-RHF iter  12:  -650.55590380186709   -9.35881e-09   6.98102e-08 DIIS
   @DF-RHF iter  13:  -650.55590380258002   -7.12930e-10   2.08554e-08 DIIS
   @DF-RHF iter  14:  -650.55590380267608   -9.60654e-11   7.05761e-09 DIIS
   @DF-RHF iter  15:  -650.55590380266676    9.32232e-12   2.71864e-09 DIIS
   @DF-RHF iter  16:  -650.55590380266767   -9.09495e-13   1.45983e-09 DIIS
   @DF-RHF iter  17:  -650.55590380265164    1.60298e-11   6.44400e-10 DIIS
   @DF-RHF iter  18:  -650.55590380267336   -2.17142e-11   2.91616e-10 DIIS
   @DF-RHF iter  19:  -650.55590380263970    3.36513e-11   1.08440e-10 DIIS
   @DF-RHF iter  20:  -650.55590380266688   -2.71712e-11   4.71981e-11 DIIS

  ==> Post-Iterations <==

    Orbital Energies (a.u.)
    -----------------------

    Doubly Occupied:                                                      

       1A    -26.440785     2A    -20.701129     3A    -15.848617  
       4A    -11.492816     5A    -11.492723     6A    -11.465310  
       7A    -11.453709     8A    -11.432980     9A    -11.424495  
      10A    -11.424382    11A    -11.380845    12A    -11.375607  
      13A    -11.358431    14A    -11.351138    15A     -1.758711  
      16A     -1.522332    17A     -1.516003    18A     -1.325411  
      19A     -1.269585    20A     -1.246181    21A     -1.162620  
      22A     -1.148406    23A     -1.074853    24A     -1.062482  
      25A     -0.988202    26A     -0.971847    27A     -0.961829  
      28A     -0.884365    29A     -0.879103    30A     -0.860479  
      31A     -0.853251    32A     -0.824945    33A     -0.823289  
      34A     -0.803688    35A     -0.803432    36A     -0.783368  
      37A     -0.755091    38A     -0.746363    39A     -0.726223  
      40A     -0.720005    41A     -0.701712    42A     -0.686105  
      43A     -0.651260    44A     -0.641628    45A     -0.607290  
      46A     -0.582697    47A     -0.543241    48A     -0.467506  
      49A     -0.445065  

    Virtual:                                                              

      50A     -0.105201    51A     -0.088184    52A     -0.071675  
      53A     -0.063556    54A     -0.059906    55A     -0.051555  
      56A     -0.041316    57A     -0.039907    58A     -0.035475  
      59A     -0.031028    60A     -0.024715    61A     -0.014660  
      62A     -0.011533    63A     -0.010346    64A     -0.006372  
      65A     -0.004315    66A      0.001100    67A      0.008590  
      68A      0.012569    69A      0.013896    70A      0.014789  
      71A      0.016362    72A      0.024282    73A      0.025918  
      74A      0.027672    75A      0.031402    76A      0.032569  
      77A      0.035996    78A      0.040797    79A      0.040897  
      80A      0.043303    81A      0.052668    82A      0.059454  
      83A      0.061693    84A      0.062588    85A      0.066253  
      86A      0.066945    87A      0.075645    88A      0.082957  
      89A      0.085726    90A      0.092411    91A      0.092683  
      92A      0.093666    93A      0.096805    94A      0.097119  
      95A      0.103405    96A      0.116429    97A      0.116508  
      98A      0.126480    99A      0.130842   100A      0.131021  
     101A      0.139735   102A      0.140232   103A      0.142133  
     104A      0.143831   105A      0.151706   106A      0.154085  
     107A      0.159164   108A      0.161483   109A      0.164887  
     110A      0.169606   111A      0.170426   112A      0.173926  
     113A      0.175770   114A      0.183823   115A      0.189016  
     116A      0.191162   117A      0.192042   118A      0.192512  
     119A      0.200607   120A      0.205208   121A      0.208329  
     122A      0.209767   123A      0.215441   124A      0.219437  
     125A      0.225206   126A      0.229374   127A      0.229858  
     128A      0.236532   129A      0.242053   130A      0.242592  
     131A      0.246061   132A      0.249019   133A      0.251576  
     134A      0.257335   135A      0.258419   136A      0.267009  
     137A      0.270107   138A      0.277535   139A      0.279710  
     140A      0.280389   141A      0.281241   142A      0.293383  
     143A      0.293716   144A      0.299937   145A      0.304816  
     146A      0.305568   147A      0.314749   148A      0.315747  
     149A      0.323458   150A      0.325193   151A      0.327856  
     152A      0.329795   153A      0.331243   154A      0.334332  
     155A      0.337375   156A      0.341100   157A      0.343269  
     158A      0.346632   159A      0.351653   160A      0.357911  
     161A      0.358259   162A      0.368719   163A      0.369164  
     164A      0.371475   165A      0.372784   166A      0.373068  
     167A      0.377589   168A      0.383193   169A      0.386818  
     170A      0.392876   171A      0.399146   172A      0.400312  
     173A      0.403185   174A      0.410411   175A      0.410581  
     176A      0.415009   177A      0.415685   178A      0.420927  
     179A      0.427179   180A      0.430188   181A      0.431519  
     182A      0.435157   183A      0.445138   184A      0.448821  
     185A      0.450902   186A      0.453234   187A      0.465773  
     188A      0.468770   189A      0.473739   190A      0.475402  
     191A      0.487302   192A      0.487454   193A      0.490168  
     194A      0.494446   195A      0.496170   196A      0.497966  
     197A      0.515585   198A      0.520873   199A      0.522024  
     200A      0.529235   201A      0.538086   202A      0.540189  
     203A      0.558359   204A      0.569214   205A      0.574334  
     206A      0.575487   207A      0.575876   208A      0.582633  
     209A      0.585421   210A      0.585556   211A      0.586222  
     212A      0.591988   213A      0.600892   214A      0.602624  
     215A      0.607933   216A      0.610960   217A      0.615589  
     218A      0.623846   219A      0.634077   220A      0.638271  
     221A      0.638703   222A      0.643404   223A      0.648290  
     224A      0.659850   225A      0.662735   226A      0.668072  
     227A      0.671037   228A      0.681626   229A      0.684702  
     230A      0.685308   231A      0.694512   232A      0.701904  
     233A      0.705964   234A      0.719949   235A      0.722006  
     236A      0.725932   237A      0.734948   238A      0.738676  
     239A      0.745739   240A      0.747690   241A      0.754743  
     242A      0.757333   243A      0.762516   244A      0.762822  
     245A      0.772269   246A      0.778326   247A      0.778662  
     248A      0.783545   249A      0.784752   250A      0.790238  
     251A      0.796079   252A      0.798102   253A      0.805250  
     254A      0.809838   255A      0.811170   256A      0.818687  
     257A      0.825334   258A      0.829962   259A      0.830264  
     260A      0.836698   261A      0.839813   262A      0.846689  
     263A      0.854640   264A      0.858720   265A      0.867686  
     266A      0.868423   267A      0.869773   268A      0.874755  
     269A      0.878253   270A      0.886671   271A      0.891890  
     272A      0.895229   273A      0.898178   274A      0.902908  
     275A      0.903384   276A      0.914230   277A      0.917167  
     278A      0.923668   279A      0.933555   280A      0.933631  
     281A      0.943944   282A      0.947976   283A      0.950834  
     284A      0.954399   285A      0.956836   286A      0.959148  
     287A      0.962291   288A      0.968109   289A      0.968721  
     290A      0.976594   291A      0.981261   292A      0.984001  
     293A      0.989224   294A      0.992394   295A      0.997828  
     296A      1.001855   297A      1.005726   298A      1.012056  
     299A      1.013122   300A      1.026495   301A      1.026977  
     302A      1.033508   303A      1.035862   304A      1.039745  
     305A      1.044106   306A      1.048792   307A      1.055576  
     308A      1.062240   309A      1.066302   310A      1.069244  
     311A      1.070274   312A      1.079408   313A      1.083323  
     314A      1.096916   315A      1.097552   316A      1.102793  
     317A      1.112574   318A      1.115113   319A      1.119051  
     320A      1.123011   321A      1.127217   322A      1.130867  
     323A      1.131127   324A      1.138674   325A      1.143415  
     326A      1.151468   327A      1.156550   328A      1.163446  
     329A      1.171131   330A      1.171398   331A      1.187431  
     332A      1.190850   333A      1.197909   334A      1.202387  
     335A      1.215732   336A      1.220213   337A      1.224623  
     338A      1.225417   339A      1.229485   340A      1.231995  
     341A      1.242754   342A      1.252557   343A      1.258959  
     344A      1.267408   345A      1.272837   346A      1.276874  
     347A      1.285096   348A      1.286318   349A      1.296071  
     350A      1.297403   351A      1.305995   352A      1.307081  
     353A      1.323765   354A      1.324516   355A      1.332898  
     356A      1.341717   357A      1.354974   358A      1.360359  
     359A      1.370137   360A      1.373873   361A      1.381596  
     362A      1.392919   363A      1.395929   364A      1.399178  
     365A      1.401568   366A      1.405716   367A      1.422293  
     368A      1.426989   369A      1.433979   370A      1.434747  
     371A      1.448577   372A      1.450809   373A      1.466465  
     374A      1.469051   375A      1.478588   376A      1.481360  
     377A      1.483688   378A      1.497133   379A      1.499280  
     380A      1.511661   381A      1.519774   382A      1.529870  
     383A      1.530743   384A      1.537094   385A      1.538224  
     386A      1.542090   387A      1.545293   388A      1.569526  
     389A      1.574576   390A      1.587103   391A      1.596652  
     392A      1.601195   393A      1.606538   394A      1.612919  
     395A      1.621405   396A      1.637411   397A      1.640115  
     398A      1.643885   399A      1.651926   400A      1.660263  
     401A      1.662905   402A      1.669583   403A      1.678995  
     404A      1.679948   405A      1.682562   406A      1.705661  
     407A      1.708780   408A      1.719735   409A      1.724036  
     410A      1.730810   411A      1.735593   412A      1.738344  
     413A      1.751345   414A      1.759292   415A      1.778735  
     416A      1.780431   417A      1.784409   418A      1.800282  
     419A      1.804976   420A      1.809036   421A      1.821480  
     422A      1.823778   423A      1.835368   424A      1.845809  
     425A      1.848903   426A      1.858700   427A      1.860688  
     428A      1.862288   429A      1.877380   430A      1.883532  
     431A      1.895251   432A      1.895438   433A      1.914300  
     434A      1.917172   435A      1.920633   436A      1.931388  
     437A      1.933740   438A      1.940799   439A      1.958211  
     440A      1.965327   441A      1.965845   442A      1.983979  
     443A      1.984992   444A      1.997183   445A      2.001557  
     446A      2.004256   447A      2.013278   448A      2.026162  
     449A      2.033219   450A      2.038548   451A      2.047475  
     452A      2.051460   453A      2.057598   454A      2.080506  
     455A      2.082742   456A      2.089232   457A      2.095717  
     458A      2.100953   459A      2.107592   460A      2.109695  
     461A      2.124916   462A      2.140103   463A      2.165152  
     464A      2.169910   465A      2.176078   466A      2.189858  
     467A      2.197583   468A      2.203047   469A      2.207232  
     470A      2.216425   471A      2.221452   472A      2.246666  
     473A      2.251587   474A      2.253459   475A      2.257833  
     476A      2.263825   477A      2.269304   478A      2.288619  
     479A      2.300574   480A      2.316129   481A      2.318024  
     482A      2.336733   483A      2.342049   484A      2.357779  
     485A      2.376936   486A      2.387092   487A      2.394256  
     488A      2.415397   489A      2.416474   490A      2.422468  
     491A      2.437279   492A      2.444858   493A      2.465624  
     494A      2.470769   495A      2.487309   496A      2.496667  
     497A      2.507924   498A      2.510484   499A      2.521490  
     500A      2.535427   501A      2.547844   502A      2.566481  
     503A      2.582082   504A      2.589332   505A      2.607102  
     506A      2.614041   507A      2.640260   508A      2.649601  
     509A      2.669504   510A      2.703319   511A      2.713966  
     512A      2.715371   513A      2.740200   514A      2.743829  
     515A      2.768558   516A      2.783593   517A      2.806264  
     518A      2.834759   519A      2.841026   520A      2.856757  
     521A      2.896271   522A      2.899108   523A      2.921068  
     524A      2.926255   525A      2.943116   526A      2.943956  
     527A      2.961888   528A      2.980055   529A      2.982870  
     530A      3.009500   531A      3.027897   532A      3.050002  
     533A      3.055807   534A      3.061147   535A      3.069824  
     536A      3.079382   537A      3.097505   538A      3.104619  
     539A      3.133883   540A      3.139401   541A      3.145430  
     542A      3.157442   543A      3.159590   544A      3.164744  
     545A      3.191488   546A      3.210213   547A      3.221273  
     548A      3.231797   549A      3.234712   550A      3.254649  
     551A      3.255512   552A      3.266488   553A      3.277156  
     554A      3.286757   555A      3.295368   556A      3.297926  
     557A      3.317947   558A      3.326370   559A      3.333382  
     560A      3.344419   561A      3.348175   562A      3.352754  
     563A      3.366905   564A      3.373299   565A      3.384105  
     566A      3.387997   567A      3.393122   568A      3.397110  
     569A      3.408978   570A      3.413201   571A      3.418899  
     572A      3.443439   573A      3.445133   574A      3.453170  
     575A      3.464218   576A      3.467361   577A      3.473700  
     578A      3.488667   579A      3.491841   580A      3.513083  
     581A      3.521300   582A      3.530210   583A      3.544015  
     584A      3.547045   585A      3.550223   586A      3.566754  
     587A      3.576442   588A      3.582409   589A      3.588126  
     590A      3.598002   591A      3.619234   592A      3.622281  
     593A      3.628605   594A      3.637162   595A      3.638017  
     596A      3.641529   597A      3.671899   598A      3.674199  
     599A      3.682519   600A      3.683790   601A      3.688776  
     602A      3.701631   603A      3.709830   604A      3.720114  
     605A      3.729528   606A      3.734882   607A      3.740038  
     608A      3.744563   609A      3.750093   610A      3.774457  
     611A      3.778009   612A      3.789665   613A      3.802438  
     614A      3.805478   615A      3.822868   616A      3.823028  
     617A      3.827168   618A      3.829524   619A      3.832818  
     620A      3.858056   621A      3.858546   622A      3.864383  
     623A      3.871876   624A      3.881601   625A      3.889066  
     626A      3.910597   627A      3.915985   628A      3.916937  
     629A      3.946340   630A      3.948989   631A      3.963491  
     632A      3.969826   633A      3.971634   634A      3.994452  
     635A      3.997325   636A      4.004182   637A      4.006042  
     638A      4.015475   639A      4.023076   640A      4.025804  
     641A      4.045881   642A      4.047604   643A      4.053961  
     644A      4.067465   645A      4.068253   646A      4.072035  
     647A      4.076169   648A      4.090248   649A      4.097210  
     650A      4.109374   651A      4.129188   652A      4.135504  
     653A      4.146207   654A      4.150335   655A      4.156715  
     656A      4.170864   657A      4.179945   658A      4.183947  
     659A      4.203860   660A      4.206862   661A      4.221100  
     662A      4.226275   663A      4.233861   664A      4.246007  
     665A      4.255131   666A      4.256664   667A      4.267661  
     668A      4.281788   669A      4.283928   670A      4.290218  
     671A      4.302255   672A      4.307843   673A      4.313351  
     674A      4.321675   675A      4.325561   676A      4.326126  
     677A      4.331023   678A      4.362865   679A      4.371599  
     680A      4.372122   681A      4.403694   682A      4.403829  
     683A      4.409134   684A      4.410982   685A      4.418390  
     686A      4.436023   687A      4.446314   688A      4.467744  
     689A      4.476755   690A      4.484120   691A      4.489477  
     692A      4.493831   693A      4.509861   694A      4.561349  
     695A      4.562282   696A      4.578032   697A      4.591905  
     698A      4.605465   699A      4.610620   700A      4.629439  
     701A      4.629754   702A      4.634278   703A      4.662397  
     704A      4.664087   705A      4.682971   706A      4.684818  
     707A      4.705683   708A      4.724021   709A      4.735673  
     710A      4.740105   711A      4.756775   712A      4.772434  
     713A      4.788210   714A      4.807084   715A      4.814315  
     716A      4.816111   717A      4.823835   718A      4.828943  
     719A      4.852260   720A      4.868319   721A      4.900117  
     722A      4.904007   723A      4.920158   724A      4.922314  
     725A      4.924918   726A      4.931948   727A      4.934324  
     728A      4.975450   729A      4.982670   730A      4.992977  
     731A      4.995673   732A      5.000635   733A      5.009701  
     734A      5.023136   735A      5.029186   736A      5.035062  
     737A      5.038398   738A      5.062549   739A      5.087067  
     740A      5.090912   741A      5.128451   742A      5.151909  
     743A      5.169559   744A      5.178558   745A      5.192709  
     746A      5.198597   747A      5.204279   748A      5.213466  
     749A      5.235559   750A      5.251226   751A      5.263417  
     752A      5.287597   753A      5.312659   754A      5.313046  
     755A      5.339036   756A      5.358489   757A      5.362767  
     758A      5.391715   759A      5.393499   760A      5.423817  
     761A      5.453089   762A      5.470034   763A      5.473227  
     764A      5.492703   765A      5.515920   766A      5.572239  
     767A      5.591025   768A      5.592328   769A      5.598743  
     770A      5.626176   771A      5.658698   772A      5.660852  
     773A      5.690878   774A      5.695326   775A      5.746279  
     776A      5.773686   777A      5.777809   778A      5.824698  
     779A      5.828803   780A      5.890536   781A      5.918465  
     782A      5.936102   783A      5.963922   784A      5.981586  
     785A      5.996406   786A      6.039738   787A      6.045180  
     788A      6.134130   789A      6.164620   790A      6.200819  
     791A      6.231550   792A      6.271957   793A      6.297685  
     794A      6.322078   795A      6.372900   796A      6.410291  
     797A      6.425639   798A      6.484856   799A      6.532959  
     800A      6.549697   801A      6.603445   802A      6.630220  
     803A      6.644972   804A      6.728608   805A      6.733578  
     806A      6.794292   807A      6.826676   808A      6.858051  
     809A      6.903060   810A      6.910051   811A      6.951780  
     812A      6.953721   813A      7.075656   814A      7.162049  
     815A      7.292829   816A      7.321547   817A      7.369197  
     818A      7.431358   819A      7.538823   820A      7.584912  
     821A      7.591618   822A      7.653091   823A      7.909108  
     824A      8.290043   825A      8.541595   826A      8.871023  
     827A      8.929109   828A      9.158160   829A      9.168557  
     830A      9.283819   831A      9.402782   832A      9.413874  
     833A      9.483805   834A      9.539549   835A      9.593421  
     836A      9.912194   837A      9.966902   838A     15.895306  
     839A     15.997588   840A     16.379473   841A     16.513427  
     842A     16.703395   843A     16.919356   844A     18.787463  
     845A     19.136716   846A     19.672783   847A     19.828245  
     848A     20.069302   849A     20.119338   850A     20.371821  
     851A     21.803673  

    Final Occupation by Irrep:
              A 
    DOCC [    49 ]

  Energy converged.

  @DF-RHF Final Energy:  -650.55590380266688

   => Energetics <=

    Nuclear Repulsion Energy =            828.3784713084781970
    One-Electron Energy =               -2516.9856843077609483
    Two-Electron Energy =                1038.0513091966158754
    DFT Exchange-Correlation Energy =       0.0000000000000000
    Empirical Dispersion Energy =           0.0000000000000000
    PCM Polarization Energy =               0.0000000000000000
    EFP Energy =                            0.0000000000000000
    Total Energy =                       -650.5559038026667622



Properties will be evaluated at   0.000000,   0.000000,   0.000000 Bohr

Properties computed using the SCF density matrix

  Nuclear Dipole Moment: (a.u.)
     X:     1.2737      Y:    -0.4938      Z:    -6.6419

  Electronic Dipole Moment: (a.u.)
     X:     1.8841      Y:    -1.1704      Z:     4.1655

  Dipole Moment: (a.u.)
     X:     3.1578      Y:    -1.6642      Z:    -2.4764     Total:     4.3444

  Dipole Moment: (Debye)
     X:     8.0264      Y:    -4.2299      Z:    -6.2944     Total:    11.0424


*** tstop() called on gpu-2-10.local at Sat Nov 11 18:25:38 2017
Module time:
	user time   =    1303.76 seconds =      21.73 minutes
	system time =      55.26 seconds =       0.92 minutes
	total time  =        557 seconds =       9.28 minutes
Total time:
	user time   =    1303.77 seconds =      21.73 minutes
	system time =      55.26 seconds =       0.92 minutes
	total time  =        557 seconds =       9.28 minutes

  //>>>>>>>>>>>>>>>>>>>>>>>>>>>>>>>>>>>//
  //               DFMP2               //
  //<<<<<<<<<<<<<<<<<<<<<<<<<<<<<<<<<<<//

   => Loading Basis Set <=

    Name: (AUG-CC-PVTZ AUX)
    Role: RIFIT
    Keyword: DF_BASIS_MP2
    atoms 1-11  entry C          line   147 file /cbio/jclab/home/chayas/anaconda/envs/py35/share/psi4/basis/aug-cc-pvtz-ri.gbs 
    atoms 12    entry N          line   205 file /cbio/jclab/home/chayas/anaconda/envs/py35/share/psi4/basis/aug-cc-pvtz-ri.gbs 
    atoms 13    entry O          line   263 file /cbio/jclab/home/chayas/anaconda/envs/py35/share/psi4/basis/aug-cc-pvtz-ri.gbs 
    atoms 14    entry F          line   321 file /cbio/jclab/home/chayas/anaconda/envs/py35/share/psi4/basis/aug-cc-pvtz-ri.gbs 
    atoms 15-23 entry H          line    29 file /cbio/jclab/home/chayas/anaconda/envs/py35/share/psi4/basis/aug-cc-pvtz-ri.gbs 

	 --------------------------------------------------------
	                          DF-MP2                         
	      2nd-Order Density-Fitted Moller-Plesset Theory     
	              RMP2 Wavefunction,   8 Threads             
	                                                         
	        Rob Parrish, Justin Turney, Andy Simmonett,      
	           Ed Hohenstein, and C. David Sherrill          
	 --------------------------------------------------------

   => Auxiliary Basis Set <=

  Basis Set: (AUG-CC-PVTZ AUX)
    Blend: AUG-CC-PVTZ-RI
    Number of shells: 518
    Number of basis function: 1898
    Number of Cartesian functions: 2399
    Spherical Harmonics?: true
    Max angular momentum: 4

	 --------------------------------------------------------
	                 NBF =   851, NAUX =  1898
	 --------------------------------------------------------
	   CLASS    FOCC     OCC    AOCC    AVIR     VIR    FVIR
	   PAIRS       0      49      49     802     802       0
	 --------------------------------------------------------


         ------------------------------------------------------------
                                     CPHF                           
                                  Rob Parrish                       
         ------------------------------------------------------------

  ==> Geometry <==

    Molecular point group: c1
    Full point group: C1

    Geometry (in Angstrom), charge = 1, multiplicity = 1:

       Center              X                  Y                   Z               Mass       
    ------------   -----------------  -----------------  -----------------  -----------------
           C         -1.338151165189     0.764158749936    -0.788573172679    12.000000000000
           C         -2.416151165189     1.337158749936    -0.115573172679    12.000000000000
           C          0.770848834811    -1.764841250064    -1.143573172679    12.000000000000
           C          1.934848834811     0.343158749936    -1.075573172679    12.000000000000
           C         -1.423151165189     0.721158749936     1.999426827321    12.000000000000
           C          1.855848834811    -2.307841250064    -1.815573172679    12.000000000000
           C          2.990848834811    -0.252841250064    -1.750573172679    12.000000000000
           C         -0.302151165189     0.169158749936    -0.068573172679    12.000000000000
           C          0.814848834811    -0.424841250064    -0.771573172679    12.000000000000
           C         -2.459151165189     1.316158749936     1.278426827321    12.000000000000
           C         -0.345151165189     0.148158749936     1.325426827321    12.000000000000
           N          2.921848834811    -1.545841250064    -2.096573172679    14.003074004780
           O         -3.512151165189     1.876158749936     1.935426827321    15.994914619560
           F          0.642848834811    -0.419841250064     2.032426827321    18.998403224000
           H         -1.319151165189     0.788158749936    -1.875573172679     1.007825032070
           H         -3.221151165189     1.798158749936    -0.682573172679     1.007825032070
           H         -0.090151165189    -2.387841250064    -0.918573172679     1.007825032070
           H          1.996848834811     1.391158749936    -0.797573172679     1.007825032070
           H         -1.451151165189     0.701158749936     3.085426827321     1.007825032070
           H          1.908848834811    -3.336841250064    -2.143573172679     1.007825032070
           H          3.897848834811     0.265158749936    -2.027573172679     1.007825032070
           H          3.708848834811    -1.964841250064    -2.590573172679     1.007825032070
           H         -3.398151165189     1.782158749936     2.894426827321     1.007825032070

  Nuclear repulsion =  828.378471308478197
  Reference energy  = -650.555903802666876

  ==> Basis Set <==

  Basis Set: AUG-CC-PVTZ
    Blend: AUG-CC-PVTZ
    Number of shells: 277
    Number of basis function: 851
    Number of Cartesian functions: 995
    Spherical Harmonics?: true
    Max angular momentum: 3

  ==> CGRSolver (by Rob Parrish) <==

   Number of roots    =         1
   Preconditioning    =    JACOBI
   Convergence cutoff =     1E-06
   Maximum iterations =       100

  ==> CPHFRHamiltonian (by Rob Parrish) <== 

  ==> DFJK: Density-Fitted J/K Matrices <==

    J tasked:                  Yes
    K tasked:                  Yes
    wK tasked:                  No
    OpenMP threads:              8
    Integrals threads:           8
    Memory (MB):              3576
    Algorithm:                Disk
    Integral Cache:           NONE
    Schwarz Cutoff:          1E-12
    Fitting Condition:       1E-12

   => Auxiliary Basis Set <=

  Basis Set: (AUG-CC-PVTZ AUX)
    Blend: AUG-CC-PVTZ-JKFIT
    Number of shells: 546
    Number of basis function: 1870
    Number of Cartesian functions: 2329
    Spherical Harmonics?: true
    Max angular momentum: 4

  ==> CPHF Iterations <==

  => Iterations <=

             Iter  Converged  Remaining    Residual
  CGR           1          0          1   1.180E-01
  CGR           2          0          1   4.648E-02
  CGR           3          0          1   2.729E-02
  CGR           4          0          1   8.858E-03
  CGR           5          0          1   3.471E-03
  CGR           6          0          1   1.301E-03
  CGR           7          0          1   4.041E-04
  CGR           8          0          1   1.611E-04
  CGR           9          0          1   7.015E-05
  CGR          10          0          1   3.248E-05
  CGR          11          0          1   1.409E-05
  CGR          12          0          1   4.152E-06
  CGR          13          0          1   1.378E-06
  CGR          14          1          0   4.279E-07

    CGRSolver converged.

  ==> DFCorrGrad: Density-Fitted Correlated Gradients <==

    OpenMP threads:              8
    Integrals threads:           8
    Memory (MB):              3576
    Schwarz Cutoff:          0E+00
    Fitting Condition:       1E-12

   => Auxiliary Basis Set <=

  Basis Set: (AUG-CC-PVTZ AUX)
    Blend: AUG-CC-PVTZ-JKFIT
    Number of shells: 546
    Number of basis function: 1870
    Number of Cartesian functions: 2329
    Spherical Harmonics?: true
    Max angular momentum: 4

	-----------------------------------------------------------
	 ==================> DF-MP2 Energies <==================== 
	-----------------------------------------------------------
	 Reference Energy          =    -650.5559038026668759 [Eh]
	 Singles Energy            =      -0.0000000000000001 [Eh]
	 Same-Spin Energy          =      -0.6687484182211401 [Eh]
	 Opposite-Spin Energy      =      -2.0140870258264578 [Eh]
	 Correlation Energy        =      -2.6828354440475977 [Eh]
	 Total Energy              =    -653.2387392467144309 [Eh]
	-----------------------------------------------------------
	 ================> DF-SCS-MP2 Energies <================== 
	-----------------------------------------------------------
	 SCS Same-Spin Scale       =       0.3333333333333333 [-]
	 SCS Opposite-Spin Scale   =       1.2000000000000000 [-]
	 SCS Same-Spin Energy      =      -0.2229161394070467 [Eh]
	 SCS Opposite-Spin Energy  =      -2.4169044309917491 [Eh]
	 SCS Correlation Energy    =      -2.6398205703987960 [Eh]
	 SCS Total Energy          =    -653.1957243730656728 [Eh]
	-----------------------------------------------------------


  -Total Gradient:
     Atom            X                  Y                   Z
    ------   -----------------  -----------------  -----------------
       1        0.009768519558    -0.004988586626    -0.010288214873
       2        0.002245913684    -0.001348160825     0.005250018019
       3       -0.011077555361     0.004529020275     0.006517652895
       4       -0.010197969671     0.007193686825     0.007092608007
       5       -0.009298606134     0.005040133508     0.002451195979
       6        0.006549699192     0.008044518034    -0.000341267237
       7       -0.002340330093    -0.009652391200    -0.001634142344
       8        0.002421892348    -0.001165920634    -0.007341483467
       9       -0.002683838723     0.001241558533    -0.001074462051
      10       -0.001610789298     0.001233585722    -0.010686426187
      11        0.021931533069    -0.012130051772     0.001874584501
      12        0.002981267392    -0.001829052981    -0.002076275683
      13       -0.005237988594     0.002691448126     0.006817182464
      14       -0.000461445416     0.000100676871     0.004912822262
      15       -0.001531142613     0.001017400841    -0.005783078840
      16       -0.003624951430     0.002086630485    -0.005006158698
      17       -0.004549505112    -0.003810329262     0.000884300888
      18        0.000791740798     0.005654279435     0.001088251173
      19       -0.001658177976     0.000737421620     0.004763385323
      20        0.001223154102    -0.002171651189    -0.001397024202
      21        0.002135995900     0.000015742253    -0.001082265529
      22        0.004271187865    -0.002263314491    -0.002716466589
      23       -0.000048603493    -0.000226643534     0.007775264206


*** tstop() called on gpu-2-10.local at Sat Nov 11 19:07:01 2017
Module time:
	user time   =    6591.16 seconds =     109.85 minutes
	system time =     121.75 seconds =       2.03 minutes
	total time  =       3040 seconds =      50.67 minutes
Total time:
	user time   =    6591.17 seconds =     109.85 minutes
	system time =     121.75 seconds =       2.03 minutes
	total time  =       3040 seconds =      50.67 minutes

			-----------------------------------------
			 OPTKING 2.0: for geometry optimizations 
			  - R.A. King,  Bethel University        
			-----------------------------------------

	Internal coordinates to be generated automatically.
	Detected frag 1 with atoms:  1 2 3 4 5 6 7 8 9 10 11 12 13 14 15 16 17 18 19 20
	 21 22 23
	---Fragment 1 Bond Connectivity---
	 1 : 2 8 15
	 2 : 1 10 16
	 3 : 6 9 17
	 4 : 7 9 18
	 5 : 10 11 19
	 6 : 3 12 20
	 7 : 4 12 21
	 8 : 1 9 11
	 9 : 3 4 8
	 10 : 2 5 13
	 11 : 5 8 14
	 12 : 6 7 22
	 13 : 10 23
	 14 : 11
	 15 : 1
	 16 : 2
	 17 : 3
	 18 : 4
	 19 : 5
	 20 : 6
	 21 : 7
	 22 : 12
	 23 : 13

	Assuming in current code that numbering for constraints corresponds to unified fragment.
	Fixed dihedral atom list: 
	     1     8     9     3
	---Fragment 1 Geometry and Gradient---
	 C          -2.5287392266        1.4440507594       -1.4901873321
	 C          -4.5658639979        2.5268638336       -0.2184016447
	 C           1.4566931876       -3.3350666306       -2.1610401093
	 C           3.6563344063        0.6484760575       -2.0325387322
	 C          -2.6893659479        1.3627925357        3.7783691264
	 C           3.5070460418       -4.3611879208       -3.4309360706
	 C           5.6518852027       -0.4778007177       -3.3081038719
	 C          -0.5709829529        0.3196637104       -0.1295845164
	 C           1.5398411375       -0.8028336126       -1.4580619878
	 C          -4.6471222216        2.4871795848        2.4158765846
	 C          -0.6522411767        0.2799794616        2.5046937128
	 N           5.5214940995       -2.9212166075       -3.9619491139
	 O          -6.6370038395        3.5454262192        3.6574266539
	 F           1.2148082426       -0.7933849819        3.8407300888
	 H          -2.4928344301        1.4894041866       -3.5443196386
	 H          -6.0870935348        3.3980275808       -1.2898763620
	 H          -0.1703610128       -4.5123660114       -1.7358517294
	 H           3.7734974266        2.6289090447       -1.5071948673
	 H          -2.7422782796        1.3249980131        5.8306117067
	 H           3.6072015269       -6.3057161115       -4.0507662422
	 H           7.3658668052        0.5010774191       -3.8315580108
	 H           7.0087085661       -3.7130118572       -4.8954738236
	 H          -6.4215750604        3.3677919627        5.4696740153
	             0.0097685196       -0.0049885866       -0.0102882149
	             0.0022459137       -0.0013481608        0.0052500180
	            -0.0110775554        0.0045290203        0.0065176529
	            -0.0101979697        0.0071936868        0.0070926080
	            -0.0092986061        0.0050401335        0.0024511960
	             0.0065496992        0.0080445180       -0.0003412672
	            -0.0023403301       -0.0096523912       -0.0016341423
	             0.0024218923       -0.0011659206       -0.0073414835
	            -0.0026838387        0.0012415585       -0.0010744621
	            -0.0016107893        0.0012335857       -0.0106864262
	             0.0219315331       -0.0121300518        0.0018745845
	             0.0029812674       -0.0018290530       -0.0020762757
	            -0.0052379886        0.0026914481        0.0068171825
	            -0.0004614454        0.0001006769        0.0049128223
	            -0.0015311426        0.0010174008       -0.0057830788
	            -0.0036249514        0.0020866305       -0.0050061587
	            -0.0045495051       -0.0038103293        0.0008843009
	             0.0007917408        0.0056542794        0.0010882512
	            -0.0016581780        0.0007374216        0.0047633853
	             0.0012231541       -0.0021716512       -0.0013970242
	             0.0021359959        0.0000157423       -0.0010822655
	             0.0042711879       -0.0022633145       -0.0027164666
	            -0.0000486035       -0.0002266435        0.0077752642

	Previous optimization step data not found.  Starting new optimization.

	---Fragment 1 Intrafragment Coordinates---
	 - Coordinate -           - BOHR/RAD -       - ANG/DEG -
	 R(1,2)           =         2.634350	       1.394038
	 R(1,8)           =         2.635962	       1.394891
	 R(1,15)          =         2.054947	       1.087431
	 R(2,10)          =         2.635830	       1.394821
	 R(2,16)          =         2.054537	       1.087214
	 R(3,6)           =         2.620975	       1.386960
	 R(3,9)           =         2.629315	       1.391373
	 R(3,17)          =         2.052833	       1.086313
	 R(4,7)           =         2.622554	       1.387796
	 R(4,9)           =         2.629804	       1.391632
	 R(4,18)          =         2.052274	       1.086017
	 R(5,10)          =         2.636938	       1.395407
	 R(5,11)          =         2.635263	       1.394521
	 R(5,19)          =         2.053272	       1.086545
	 R(6,12)          =         2.532488	       1.340135
	 R(6,20)          =         2.043382	       1.081311
	 R(7,12)          =         2.532745	       1.340271
	 R(7,21)          =         2.042043	       1.080603
	 R(8,9)           =         2.735038	       1.447320
	 R(8,11)          =         2.635830	       1.394821
	 R(10,13)         =         2.573123	       1.361638
	 R(11,14)         =         2.534359	       1.341125
	 R(12,22)         =         1.926192	       1.019297
	 R(13,23)         =         1.833631	       0.970316
	 B(1,2,10)        =         2.094553	     120.009056
	 B(1,2,16)        =         2.088723	     119.675016
	 B(1,8,9)         =         2.091569	     119.838095
	 B(1,8,11)        =         2.093692	     119.959722
	 B(2,1,8)         =         2.094940	     120.031219
	 B(2,1,15)        =         2.079469	     119.144799
	 B(2,10,5)        =         2.094306	     119.994870
	 B(2,10,13)       =         2.094247	     119.991510
	 B(3,6,12)        =         2.095837	     120.082592
	 B(3,6,20)        =         2.162622	     123.909110
	 B(3,9,4)         =         2.092709	     119.903419
	 B(3,9,8)         =         2.095225	     120.047550
	 B(4,7,12)        =         2.095204	     120.046354
	 B(4,7,21)        =         2.162152	     123.882205
	 B(4,9,8)         =         2.095251	     120.049013
	 B(5,10,13)       =         2.094633	     120.013619
	 B(5,11,8)        =         2.095181	     120.045019
	 B(5,11,14)       =         2.081414	     119.256220
	 B(6,3,9)         =         2.073561	     118.806294
	 B(6,3,17)        =         2.089619	     119.726370
	 B(6,12,7)        =         2.135737	     122.368730
	 B(6,12,22)       =         2.073789	     118.819381
	 B(7,4,9)         =         2.073322	     118.792572
	 B(7,4,18)        =         2.089194	     119.702012
	 B(7,12,22)       =         2.073658	     118.811870
	 B(8,1,15)        =         2.108776	     120.823969
	 B(8,11,14)       =         2.106591	     120.698759
	 B(9,3,17)        =         2.120005	     121.467326
	 B(9,4,18)        =         2.120669	     121.505395
	 B(9,8,11)        =         2.097924	     120.202184
	 B(10,2,16)       =         2.099909	     120.315896
	 B(10,5,11)       =         2.093699	     119.960108
	 B(10,5,19)       =         2.100355	     120.341451
	 B(10,13,23)      =         1.924294	     110.253909
	 B(11,5,19)       =         2.089132	     119.698439
	 B(12,6,20)       =         2.024726	     116.008235
	 B(12,7,21)       =         2.025828	     116.071414
	 D(1,2,10,5)      =        -0.000325	      -0.018609
	 D(1,2,10,13)     =         3.141388	     179.988267
	 D(1,8,9,3)       =        -1.571040	     -90.013968
	 D(1,8,9,4)       =         1.571378	      90.033336
	 D(1,8,11,5)      =         0.000325	       0.018608
	 D(1,8,11,14)     =        -3.141528	    -179.996269
	 D(2,1,8,9)       =         3.141277	     179.981897
	 D(2,1,8,11)      =        -0.000348	      -0.019945
	 D(2,10,5,11)     =         0.000301	       0.017261
	 D(2,10,5,19)     =        -3.141029	    -179.967685
	 D(2,10,13,23)    =         3.141285	     179.982383
	 D(3,6,12,7)      =         0.000096	       0.005481
	 D(3,6,12,22)     =         3.140819	     179.955662
	 D(3,9,4,7)       =         0.001016	       0.058202
	 D(3,9,4,18)      =        -3.141502	    -179.994805
	 D(3,9,8,11)      =         1.570585	      89.987878
	 D(4,7,12,6)      =         0.000774	       0.044321
	 D(4,7,12,22)     =        -3.139950	    -179.905863
	 D(4,9,3,6)       =        -0.000179	      -0.010250
	 D(4,9,3,17)      =         3.140785	     179.953744
	 D(4,9,8,11)      =        -1.570182	     -89.964819
	 D(5,10,2,16)     =         3.140149	     179.917291
	 D(5,10,13,23)    =        -0.000187	      -0.010740
	 D(5,11,8,9)      =        -3.141300	    -179.983240
	 D(6,3,9,8)       =        -3.140947	    -179.963016
	 D(6,12,7,21)     =         3.141362	     179.986797
	 D(7,4,9,8)       =        -3.141401	    -179.989032
	 D(7,12,6,20)     =         3.140144	     179.917005
	 D(8,1,2,10)      =         0.000348	       0.019955
	 D(8,1,2,16)      =        -3.140133	    -179.916358
	 D(8,9,3,17)      =         0.000017	       0.000979
	 D(8,9,4,18)      =        -0.000734	      -0.042039
	 D(8,11,5,10)     =        -0.000301	      -0.017270
	 D(8,11,5,19)     =         3.141030	     179.967774
	 D(9,3,6,12)      =        -0.000390	      -0.022349
	 D(9,3,6,20)      =        -3.140310	    -179.926537
	 D(9,4,7,12)      =        -0.001315	      -0.075339
	 D(9,4,7,21)      =         3.141364	     179.986901
	 D(9,8,1,15)      =         0.000403	       0.023110
	 D(9,8,11,14)     =         0.000033	       0.001883
	 D(10,2,1,15)     =         3.141234	     179.979432
	 D(10,5,11,14)    =         3.141547	     179.997392
	 D(11,5,10,13)    =        -3.141411	    -179.989616
	 D(11,8,1,15)     =        -3.141221	    -179.978731
	 D(12,6,3,17)     =        -3.141365	    -179.986984
	 D(12,7,4,18)     =         3.141186	     179.976690
	 D(13,10,2,16)    =        -0.001324	      -0.075833
	 D(13,10,5,19)    =         0.000444	       0.025437
	 D(14,11,5,19)    =        -0.000307	      -0.017564
	 D(15,1,2,16)     =         0.000753	       0.043120
	 D(17,3,6,20)     =         0.001899	       0.108827
	 D(18,4,7,21)     =         0.000679	       0.038930
	 D(20,6,12,22)    =        -0.002318	      -0.132814
	 D(21,7,12,22)    =         0.000639	       0.036613

	Current energy   :      -653.2387392467

	Generating empirical Hessian (Schlegel '84) for each fragment.
	Adding user-defined constraint: Fragment 1; Coordinate 64:
		Value =    -1.571040; Fixed value    =    -1.570796
		Force =     0.000122; Force constant =     0.500000
	Removing off-diagonal coupling between coordinate 64 and others.
	Taking RFO optimization step.
	Going to follow RFO solution 1.
	Using RFO vector 1.

	Determining step-restricting scale parameter for RS-RFO.
	Maximum step size allowed    0.10000

	 Iter      |step|        alpha        rfo_root  
	------------------------------------------------
	    0     0.14793       1.00000           1
	    1     0.11893      13.73956           1
	    2     0.10417      26.29632           1
	    3     0.10028      30.79123           1
	    4     0.10000      31.13317           1
	------------------------------------------------
	Norm of target step-size    0.10000
	Projected energy change by RFO approximation:        -0.0045568524

	Back-transformation to cartesian coordinates...
	Successfully converged to displaced geometry.

	--- Internal Coordinate Step in ANG or DEG, aJ/ANG or AJ/DEG ---
	 ---------------------------------------------------------------------------
	   Coordinate                Previous        Force       Change         New 
	   ----------                --------       ------       ------       ------
	    1 R(1,2)          =      1.394038    -0.079263    -0.008279     1.385759
	    2 R(1,8)          =      1.394891    -0.020077    -0.002141     1.392750
	    3 R(1,15)         =      1.087431    -0.047591    -0.006188     1.081243
	    4 R(2,10)         =      1.394821    -0.060957    -0.006344     1.388477
	    5 R(2,16)         =      1.087214    -0.050911    -0.006617     1.080597
	    6 R(3,6)          =      1.386960    -0.077322    -0.007975     1.378985
	    7 R(3,9)          =      1.391373     0.016065     0.001673     1.393047
	    8 R(3,17)         =      1.086313    -0.049220    -0.006383     1.079929
	    9 R(4,7)          =      1.387796    -0.082278    -0.008543     1.379253
	   10 R(4,9)          =      1.391632     0.014149     0.001456     1.393088
	   11 R(4,18)         =      1.086017    -0.047621    -0.006172     1.079845
	   12 R(5,10)         =      1.395407    -0.032501    -0.003422     1.391986
	   13 R(5,11)         =      1.394521    -0.123041    -0.013073     1.381448
	   14 R(5,19)         =      1.086545    -0.039465    -0.005121     1.081424
	   15 R(6,12)         =      1.340135     0.007752     0.000718     1.340853
	   16 R(6,20)         =      1.081311    -0.021011    -0.002693     1.078619
	   17 R(7,12)         =      1.340271     0.006591     0.000599     1.340870
	   18 R(7,21)         =      1.080603    -0.017119    -0.002190     1.078413
	   19 R(8,9)          =      1.447320     0.126559     0.015372     1.462691
	   20 R(8,11)         =      1.394821    -0.085896    -0.009177     1.385645
	   21 R(10,13)        =      1.361638    -0.100042    -0.009605     1.352033
	   22 R(11,14)        =      1.341125    -0.018186    -0.001640     1.339486
	   23 R(12,22)        =      1.019297    -0.045681    -0.004996     1.014301
	   24 R(13,23)        =      0.970316    -0.063446    -0.006029     0.964287
	   25 B(1,2,10)       =    120.009056    -0.000146    -0.265865   119.743192
	   26 B(1,2,16)       =    119.675016     0.000236     0.539004   120.214020
	   27 B(1,8,9)        =    119.838095     0.000559     1.080459   120.918553
	   28 B(1,8,11)       =    119.959722    -0.000575    -1.121503   118.838219
	   29 B(2,1,8)        =    120.031219     0.000284     0.602967   120.634186
	   30 B(2,1,15)       =    119.144799     0.000003     0.059886   119.204686
	   31 B(2,10,5)       =    119.994870     0.000047     0.114110   120.108980
	   32 B(2,10,13)      =    119.991510    -0.000924    -1.782140   118.209371
	   33 B(3,6,12)       =    120.082592    -0.000354    -0.738639   119.343953
	   34 B(3,6,20)       =    123.909110     0.000078     0.122507   124.031616
	   35 B(3,9,4)        =    119.903419    -0.000458    -0.895737   119.007683
	   36 B(3,9,8)        =    120.047550     0.000230     0.449570   120.497121
	   37 B(4,7,12)       =    120.046354    -0.000337    -0.713323   119.333031
	   38 B(4,7,21)       =    123.882205     0.000076     0.127409   124.009614
	   39 B(4,9,8)        =    120.049013     0.000228     0.446141   120.495155
	   40 B(5,10,13)      =    120.013619     0.000876     1.668030   121.681649
	   41 B(5,11,8)       =    120.045019     0.000641     1.200233   121.245252
	   42 B(5,11,14)      =    119.256220     0.000105     0.215738   119.471958
	   43 B(6,3,9)        =    118.806294     0.000392     0.801955   119.608248
	   44 B(6,3,17)       =    119.726370    -0.000154    -0.296519   119.429851
	   45 B(6,12,7)       =    122.368730     0.000356     0.733519   123.102249
	   46 B(6,12,22)      =    118.819381    -0.000179    -0.368266   118.451115
	   47 B(7,4,9)        =    118.792572     0.000401     0.812229   119.604801
	   48 B(7,4,18)       =    119.702012    -0.000155    -0.292336   119.409676
	   49 B(7,12,22)      =    118.811870    -0.000177    -0.365263   118.446608
	   50 B(8,1,15)       =    120.823969    -0.000287    -0.662848   120.161121
	   51 B(8,11,14)      =    120.698759    -0.000746    -1.415970   119.282789
	   52 B(9,3,17)       =    121.467326    -0.000238    -0.505456   120.961870
	   53 B(9,4,18)       =    121.505395    -0.000246    -0.519873   120.985523
	   54 B(9,8,11)       =    120.202184     0.000017     0.041044   120.243227
	   55 B(10,2,16)      =    120.315896    -0.000090    -0.273132   120.042765
	   56 B(10,5,11)      =    119.960108    -0.000251    -0.529940   119.430169
	   57 B(10,5,19)      =    120.341451     0.000262     0.603465   120.944916
	   58 B(10,13,23)     =    110.253909    -0.000153    -0.380899   109.873010
	   59 B(11,5,19)      =    119.698439    -0.000011    -0.073525   119.624914
	   60 B(12,6,20)      =    116.008235     0.000277     0.616183   116.624418
	   61 B(12,7,21)      =    116.071414     0.000261     0.585886   116.657300
	   62 D(1,2,10,5)     =     -0.018609     0.000000     0.001226    -0.017383
	   63 D(1,2,10,13)    =    179.988267     0.000000     0.000516   179.988783
	   64 D(1,8,9,3)      =    -90.013968     0.000000     0.003420   -90.010548
	   65 D(1,8,9,4)      =     90.033336     0.000002     0.031118    90.064454
	   66 D(1,8,11,5)     =      0.018608    -0.000000    -0.008033     0.010575
	   67 D(1,8,11,14)    =   -179.996269    -0.000000    -0.003731  -180.000000
	   68 D(2,1,8,9)      =    179.981897    -0.000000     0.000421   179.982317
	   69 D(2,1,8,11)     =     -0.019945     0.000000     0.008684    -0.011261
	   70 D(2,10,5,11)    =      0.017261    -0.000000    -0.000671     0.016590
	   71 D(2,10,5,19)    =   -179.967685    -0.000000    -0.002307  -179.969992
	   72 D(2,10,13,23)   =    179.982383     0.000000     0.000758   179.983141
	   73 D(3,6,12,7)     =      0.005481    -0.000001    -0.016454    -0.010972
	   74 D(3,6,12,22)    =    179.955662    -0.000001    -0.028744   179.926918
	   75 D(3,9,4,7)      =      0.058202    -0.000000    -0.001010     0.057192
	   76 D(3,9,4,18)     =   -179.994805     0.000002     0.041387  -179.953418
	   77 D(3,9,8,11)     =     89.987878    -0.000000    -0.004938    89.982940
	   78 D(4,7,12,6)     =      0.044321     0.000000     0.005565     0.049886
	   79 D(4,7,12,22)    =   -179.905863     0.000001     0.017856  -179.888007
	   80 D(4,9,3,6)      =     -0.010250    -0.000000    -0.008620    -0.018870
	   81 D(4,9,3,17)     =    179.953744    -0.000002    -0.036314   179.917430
	   82 D(4,9,8,11)     =    -89.964819     0.000001     0.022761   -89.942058
	   83 D(5,10,2,16)    =    179.917291     0.000000     0.009637   179.926929
	   84 D(5,10,13,23)   =     -0.010740     0.000000     0.000149    -0.010591
	   85 D(5,11,8,9)     =   -179.983240     0.000000     0.000192  -179.983048
	   86 D(6,3,9,8)      =   -179.963016     0.000001     0.018043  -179.944973
	   87 D(6,12,7,21)    =    179.986797    -0.000001    -0.018965   179.967832
	   88 D(7,4,9,8)      =   -179.989032    -0.000001    -0.027671  -180.016703
	   89 D(7,12,6,20)    =    179.917005     0.000002     0.032581   179.949587
	   90 D(8,1,2,10)     =      0.019955    -0.000000    -0.005180     0.014774
	   91 D(8,1,2,16)     =   -179.916358    -0.000001    -0.013083  -179.929441
	   92 D(8,9,3,17)     =      0.000979    -0.000001    -0.009651    -0.008673
	   93 D(8,9,4,18)     =     -0.042039     0.000001     0.014726    -0.027313
	   94 D(8,11,5,10)    =     -0.017270     0.000000     0.003978    -0.013292
	   95 D(8,11,5,19)    =    179.967774     0.000000     0.005696   179.973469
	   96 D(9,3,6,12)     =     -0.022349     0.000001     0.017661    -0.004688
	   97 D(9,3,6,20)     =   -179.926537    -0.000002    -0.035605  -179.962142
	   98 D(9,4,7,12)     =     -0.075339     0.000000     0.003056    -0.072283
	   99 D(9,4,7,21)     =    179.986901     0.000001     0.029280   180.016181
	  100 D(9,8,1,15)     =      0.023110    -0.000000    -0.008193     0.014917
	  101 D(9,8,11,14)    =      0.001883     0.000000     0.003885     0.005768
	  102 D(10,2,1,15)    =    179.979432     0.000000     0.003051   179.982484
	  103 D(10,5,11,14)   =    179.997392     0.000000     0.000520   179.997912
	  104 D(11,5,10,13)   =   -179.989616    -0.000000    -0.000179  -179.989795
	  105 D(11,8,1,15)    =   -179.978731     0.000000     0.000070  -179.978662
	  106 D(12,6,3,17)    =   -179.986984     0.000002     0.045012  -179.941972
	  107 D(12,7,4,18)    =    179.976690    -0.000002    -0.038532   179.938158
	  108 D(13,10,2,16)   =     -0.075833     0.000000     0.008928    -0.066905
	  109 D(13,10,5,19)   =      0.025437    -0.000000    -0.001815     0.023622
	  110 D(14,11,5,19)   =     -0.017564     0.000000     0.002238    -0.015326
	  111 D(15,1,2,16)    =      0.043120    -0.000000    -0.004851     0.038269
	  112 D(17,3,6,20)    =      0.108827    -0.000000    -0.008253     0.100574
	  113 D(18,4,7,21)    =      0.038930    -0.000001    -0.012307     0.026623
	  114 D(20,6,12,22)   =     -0.132814     0.000001     0.020291    -0.112523
	  115 D(21,7,12,22)   =      0.036613    -0.000000    -0.006674     0.029939
	 ---------------------------------------------------------------------------
	Successfully symmetrized geometry.
	 Forces used to impose fixed constraints are not included.
	  Forces zeroed: 64 

  ==> Convergence Check <==

  Measures of convergence in internal coordinates in au.
  Criteria marked as inactive (o), active & met (*), and active & unmet ( ).
  --------------------------------------------------------------------------------------------- ~
   Step     Total Energy     Delta E     MAX Force     RMS Force      MAX Disp      RMS Disp    ~
  --------------------------------------------------------------------------------------------- ~
    Convergence Criteria    1.00e-06 *    3.00e-04 *             o    1.20e-03 *             o  ~
  --------------------------------------------------------------------------------------------- ~
      1    -653.23873925   -6.53e+02      1.54e-02      4.39e-03 o    3.11e-02      9.33e-03 o  ~
  ---------------------------------------------------------------------------------------------

	Writing optimization data to binary file.
	Structure for next step:
	Cartesian Geometry (in Angstrom)
	    C    -1.3572454045   0.7739124213  -0.7720311532
	    C    -2.4261047297   1.3419202584  -0.0973207758
	    C     0.7849325202  -1.7678834941  -1.1516623098
	    C     1.9450012413   0.3328364233  -1.0836666769
	    C    -1.4192179317   0.7191327329   2.0009906402
	    C     1.8618914722  -2.3166876111  -1.8154200087
	    C     3.0011434409  -0.2533468469  -1.7494681386
	    C    -0.3130211403   0.1752230906  -0.0713746578
	    C     0.8179864734  -0.4265147751  -0.7772071533
	    C    -2.4574591729   1.3148991065   1.2905392330
	    C    -0.3609488562   0.1573650929   1.3133256652
	    N     2.9256487262  -1.5480232056  -2.0901229590
	    O    -3.5148275978   1.8783758554   1.9170052762
	    F     0.6386026851  -0.4161143529   1.9961431178
	    H    -1.3418656630   0.7996113502  -1.8528587910
	    H    -3.2332385676   1.8036504734  -0.6478033837
	    H    -0.0721592281  -2.3859498263  -0.9288736507
	    H     2.0049017981   1.3751410885  -0.8078442437
	    H    -1.4300606883   0.6900364490   3.0819687046
	    H     1.9119805829  -3.3446079014  -2.1383581236
	    H     3.9059835989   0.2665408568  -2.0214141981
	    H     3.7107216094  -1.9658618212  -2.5778507868
	    H    -3.4141219677   1.7919958839   2.8721214021
			--------------------------
			 OPTKING Finished Execution 
			--------------------------

    Structure for next step:
    Molecular point group: c1
    Full point group: C1

    Geometry (in Angstrom), charge = 1, multiplicity = 1:

    C           -1.356523320853     0.773411981095    -0.768337584636
    C           -2.425382646020     1.341419818197    -0.093627207236
    C            0.785654603906    -1.768383934233    -1.147968741256
    C            1.945723324920     0.332335983148    -1.079973108397
    C           -1.418495848050     0.718632292749     2.004684208722
    C            1.862613555840    -2.317188051277    -1.811726440161
    C            3.001865524531    -0.253847287062    -1.745774570031
    C           -0.312299056618     0.174722650444    -0.067681089226
    C            0.818708557098    -0.427015215264    -0.773513584792
    C           -2.456737089239     1.314398666308     1.294232801550
    C           -0.360226772519     0.156864652711     1.317019233757
    N            2.926370809879    -1.548523645731    -2.086429390477
    O           -3.514105514145     1.877875415237     1.920698844736
    F            0.639324768745    -0.416614793023     1.999836686317
    H           -1.341143579346     0.799110909994    -1.849165222488
    H           -3.232516483914     1.803150033237    -0.644109815129
    H           -0.071437144437    -2.386450266489    -0.925180082118
    H            2.005623881755     1.374640648328    -0.804150675172
    H           -1.429338604661     0.689536008830     3.085662273134
    H            1.912702666519    -3.345108341617    -2.134664555033
    H            3.906705682598     0.266040416656    -2.017720629532
    H            3.711443693106    -1.966362261359    -2.574157218254
    H           -3.413399884045     1.791495443743     2.875814970599

gradient() will perform analytic gradient computation.

*** tstart() called on gpu-2-10.local
*** at Sat Nov 11 19:07:02 2017

    SCF Algorithm Type (re)set to DF.

*** tstart() called on gpu-2-10.local
*** at Sat Nov 11 19:07:02 2017

   => Loading Basis Set <=

    Name: AUG-CC-PVTZ
    Role: ORBITAL
    Keyword: BASIS
    atoms 1-11  entry C          line   221 file /cbio/jclab/home/chayas/anaconda/envs/py35/share/psi4/basis/aug-cc-pvtz.gbs 
    atoms 12    entry N          line   267 file /cbio/jclab/home/chayas/anaconda/envs/py35/share/psi4/basis/aug-cc-pvtz.gbs 
    atoms 13    entry O          line   313 file /cbio/jclab/home/chayas/anaconda/envs/py35/share/psi4/basis/aug-cc-pvtz.gbs 
    atoms 14    entry F          line   359 file /cbio/jclab/home/chayas/anaconda/envs/py35/share/psi4/basis/aug-cc-pvtz.gbs 
    atoms 15-23 entry H          line    34 file /cbio/jclab/home/chayas/anaconda/envs/py35/share/psi4/basis/aug-cc-pvtz.gbs 


         ---------------------------------------------------------
                                   SCF
            by Justin Turney, Rob Parrish, and Andy Simmonett
                              RHF Reference
                        8 Threads,   4768 MiB Core
         ---------------------------------------------------------

  ==> Geometry <==

    Molecular point group: c1
    Full point group: C1

    Geometry (in Angstrom), charge = 1, multiplicity = 1:

       Center              X                  Y                   Z               Mass       
    ------------   -----------------  -----------------  -----------------  -----------------
           C         -1.356523320853     0.773411981095    -0.768337584636    12.000000000000
           C         -2.425382646020     1.341419818197    -0.093627207236    12.000000000000
           C          0.785654603906    -1.768383934233    -1.147968741256    12.000000000000
           C          1.945723324920     0.332335983148    -1.079973108397    12.000000000000
           C         -1.418495848050     0.718632292749     2.004684208722    12.000000000000
           C          1.862613555840    -2.317188051277    -1.811726440161    12.000000000000
           C          3.001865524531    -0.253847287062    -1.745774570031    12.000000000000
           C         -0.312299056618     0.174722650444    -0.067681089226    12.000000000000
           C          0.818708557098    -0.427015215264    -0.773513584792    12.000000000000
           C         -2.456737089239     1.314398666308     1.294232801550    12.000000000000
           C         -0.360226772519     0.156864652711     1.317019233757    12.000000000000
           N          2.926370809879    -1.548523645731    -2.086429390477    14.003074004780
           O         -3.514105514145     1.877875415237     1.920698844736    15.994914619560
           F          0.639324768745    -0.416614793023     1.999836686317    18.998403224000
           H         -1.341143579346     0.799110909994    -1.849165222488     1.007825032070
           H         -3.232516483914     1.803150033237    -0.644109815129     1.007825032070
           H         -0.071437144437    -2.386450266489    -0.925180082118     1.007825032070
           H          2.005623881755     1.374640648328    -0.804150675172     1.007825032070
           H         -1.429338604661     0.689536008830     3.085662273134     1.007825032070
           H          1.912702666519    -3.345108341617    -2.134664555033     1.007825032070
           H          3.906705682598     0.266040416656    -2.017720629532     1.007825032070
           H          3.711443693106    -1.966362261359    -2.574157218254     1.007825032070
           H         -3.413399884045     1.791495443743     2.875814970599     1.007825032070

  Running in c1 symmetry.

  Rotational constants: A =      0.06380  B =      0.01255  C =      0.01174 [cm^-1]
  Rotational constants: A =   1912.56772  B =    376.32275  C =    352.05228 [MHz]
  Nuclear repulsion =  829.859009095841202

  Charge       = 1
  Multiplicity = 1
  Electrons    = 98
  Nalpha       = 49
  Nbeta        = 49

  ==> Algorithm <==

  SCF Algorithm Type is DF.
  DIIS enabled.
  MOM disabled.
  Fractional occupation disabled.
  Guess Type is READ.
  Energy threshold   = 1.00e-10
  Density threshold  = 1.00e-10
  Integral threshold = 0.00e+00

  ==> Primary Basis <==

  Basis Set: AUG-CC-PVTZ
    Blend: AUG-CC-PVTZ
    Number of shells: 277
    Number of basis function: 851
    Number of Cartesian functions: 995
    Spherical Harmonics?: true
    Max angular momentum: 3

   => Loading Basis Set <=

    Name: (AUG-CC-PVTZ AUX)
    Role: JKFIT
    Keyword: DF_BASIS_SCF
    atoms 1-11  entry C          line   161 file /cbio/jclab/home/chayas/anaconda/envs/py35/share/psi4/basis/aug-cc-pvtz-jkfit.gbs 
    atoms 12    entry N          line   223 file /cbio/jclab/home/chayas/anaconda/envs/py35/share/psi4/basis/aug-cc-pvtz-jkfit.gbs 
    atoms 13    entry O          line   285 file /cbio/jclab/home/chayas/anaconda/envs/py35/share/psi4/basis/aug-cc-pvtz-jkfit.gbs 
    atoms 14    entry F          line   347 file /cbio/jclab/home/chayas/anaconda/envs/py35/share/psi4/basis/aug-cc-pvtz-jkfit.gbs 
    atoms 15-23 entry H          line    69 file /cbio/jclab/home/chayas/anaconda/envs/py35/share/psi4/basis/aug-cc-pvtz-jkfit.gbs 

  Reading orbitals from file 180, no projection.

  ==> Pre-Iterations <==

   -------------------------------------------------------
    Irrep   Nso     Nmo     Nalpha   Nbeta   Ndocc  Nsocc
   -------------------------------------------------------
     A        851     851       0       0       0       0
   -------------------------------------------------------
    Total     851     851      49      49      49       0
   -------------------------------------------------------

  ==> Integral Setup <==

  ==> DFJK: Density-Fitted J/K Matrices <==

    J tasked:                  Yes
    K tasked:                  Yes
    wK tasked:                  No
    OpenMP threads:              8
    Integrals threads:           8
    Memory (MB):              3576
    Algorithm:                Disk
    Integral Cache:           NONE
    Schwarz Cutoff:          1E-12
    Fitting Condition:       1E-12

   => Auxiliary Basis Set <=

  Basis Set: (AUG-CC-PVTZ AUX)
    Blend: AUG-CC-PVTZ-JKFIT
    Number of shells: 546
    Number of basis function: 1870
    Number of Cartesian functions: 2329
    Spherical Harmonics?: true
    Max angular momentum: 4

  Minimum eigenvalue in the overlap matrix is 6.6506686879E-07.
  Using Symmetric Orthogonalization.

  SCF Guess: Orbitals guess was supplied from a previous computation.

  ==> Iterations <==

                           Total Energy        Delta E     RMS |[F,P]|

   @DF-RHF iter   0:  -650.59239571735588   -6.50592e+02   4.75685e-04 
   @DF-RHF iter   1:  -650.56117214402138    3.12236e-02   6.88208e-05 
   @DF-RHF iter   2:  -650.56138428344877   -2.12139e-04   3.76649e-05 DIIS
   @DF-RHF iter   3:  -650.56144714002119   -6.28566e-05   7.60217e-06 DIIS
   @DF-RHF iter   4:  -650.56145284380841   -5.70379e-06   3.66932e-06 DIIS
   @DF-RHF iter   5:  -650.56145423299631   -1.38919e-06   1.44021e-06 DIIS
   @DF-RHF iter   6:  -650.56145456789170   -3.34895e-07   7.10939e-07 DIIS
   @DF-RHF iter   7:  -650.56145466880332   -1.00912e-07   3.09338e-07 DIIS
   @DF-RHF iter   8:  -650.56145469685907   -2.80558e-08   1.03535e-07 DIIS
   @DF-RHF iter   9:  -650.56145470052252   -3.66344e-09   4.31638e-08 DIIS
   @DF-RHF iter  10:  -650.56145470080651   -2.83990e-10   1.51275e-08 DIIS
   @DF-RHF iter  11:  -650.56145470079412    1.23919e-11   3.69380e-09 DIIS
   @DF-RHF iter  12:  -650.56145470080810   -1.39835e-11   1.28072e-09 DIIS
   @DF-RHF iter  13:  -650.56145470079207    1.60298e-11   4.33208e-10 DIIS
   @DF-RHF iter  14:  -650.56145470080753   -1.54614e-11   2.04372e-10 DIIS
   @DF-RHF iter  15:  -650.56145470079514    1.23919e-11   1.20978e-10 DIIS
   @DF-RHF iter  16:  -650.56145470082947   -3.43334e-11   4.52306e-11 DIIS

  ==> Post-Iterations <==

    Orbital Energies (a.u.)
    -----------------------

    Doubly Occupied:                                                      

       1A    -26.438753     2A    -20.702035     3A    -15.847159  
       4A    -11.491435     5A    -11.491397     6A    -11.461629  
       7A    -11.455886     8A    -11.431100     9A    -11.422331  
      10A    -11.422293    11A    -11.377884    12A    -11.374106  
      13A    -11.355367    14A    -11.346348    15A     -1.758451  
      16A     -1.522716    17A     -1.522118    18A     -1.323725  
      19A     -1.273125    20A     -1.248599    21A     -1.163519  
      22A     -1.150920    23A     -1.073831    24A     -1.064634  
      25A     -0.990791    26A     -0.972916    27A     -0.962209  
      28A     -0.885827    29A     -0.879462    30A     -0.862316  
      31A     -0.854073    32A     -0.824456    33A     -0.823156  
      34A     -0.806517    35A     -0.804178    36A     -0.783251  
      37A     -0.756157    38A     -0.746977    39A     -0.727067  
      40A     -0.718283    41A     -0.705480    42A     -0.687401  
      43A     -0.654467    44A     -0.642059    45A     -0.609277  
      46A     -0.582459    47A     -0.544945    48A     -0.469132  
      49A     -0.445086  

    Virtual:                                                              

      50A     -0.106011    51A     -0.087724    52A     -0.069413  
      53A     -0.063396    54A     -0.059723    55A     -0.051406  
      56A     -0.041430    57A     -0.039741    58A     -0.035309  
      59A     -0.030845    60A     -0.024648    61A     -0.013723  
      62A     -0.011694    63A     -0.010372    64A     -0.006080  
      65A     -0.003953    66A      0.002397    67A      0.008961  
      68A      0.012612    69A      0.014033    70A      0.015580  
      71A      0.016479    72A      0.024487    73A      0.026115  
      74A      0.027804    75A      0.031620    76A      0.032696  
      77A      0.036223    78A      0.040798    79A      0.041255  
      80A      0.043139    81A      0.053124    82A      0.059497  
      83A      0.061960    84A      0.062640    85A      0.066457  
      86A      0.067149    87A      0.075556    88A      0.083048  
      89A      0.085915    90A      0.092232    91A      0.093162  
      92A      0.093645    93A      0.097037    94A      0.097198  
      95A      0.104185    96A      0.116709    97A      0.117144  
      98A      0.126515    99A      0.130985   100A      0.131295  
     101A      0.139144   102A      0.140814   103A      0.142251  
     104A      0.143813   105A      0.152064   106A      0.154516  
     107A      0.159383   108A      0.161567   109A      0.165051  
     110A      0.169351   111A      0.170255   112A      0.175119  
     113A      0.175875   114A      0.183760   115A      0.189281  
     116A      0.191650   117A      0.191716   118A      0.193365  
     119A      0.201414   120A      0.205971   121A      0.209130  
     122A      0.211198   123A      0.216430   124A      0.220416  
     125A      0.225106   126A      0.230504   127A      0.230913  
     128A      0.237125   129A      0.242503   130A      0.243811  
     131A      0.247060   132A      0.248298   133A      0.251168  
     134A      0.258301   135A      0.259410   136A      0.267518  
     137A      0.271933   138A      0.277275   139A      0.279880  
     140A      0.280546   141A      0.281010   142A      0.293247  
     143A      0.293443   144A      0.299712   145A      0.305369  
     146A      0.306432   147A      0.316220   148A      0.316856  
     149A      0.324197   150A      0.325155   151A      0.327787  
     152A      0.330570   153A      0.331235   154A      0.336304  
     155A      0.338156   156A      0.341228   157A      0.343627  
     158A      0.348319   159A      0.352173   160A      0.358448  
     161A      0.359695   162A      0.367899   163A      0.370314  
     164A      0.371805   165A      0.372871   166A      0.374145  
     167A      0.378208   168A      0.383220   169A      0.387495  
     170A      0.394134   171A      0.400192   172A      0.401699  
     173A      0.403965   174A      0.411015   175A      0.411034  
     176A      0.415010   177A      0.416495   178A      0.423484  
     179A      0.427640   180A      0.431063   181A      0.432962  
     182A      0.437624   183A      0.445185   184A      0.449128  
     185A      0.451631   186A      0.454198   187A      0.465578  
     188A      0.467686   189A      0.474325   190A      0.474779  
     191A      0.487410   192A      0.487859   193A      0.492095  
     194A      0.494867   195A      0.496783   196A      0.499852  
     197A      0.516324   198A      0.521437   199A      0.523169  
     200A      0.529950   201A      0.538153   202A      0.541876  
     203A      0.558746   204A      0.570065   205A      0.574058  
[...]
	 B(4,7,12)        =         2.076028	     118.947665
	 B(4,7,21)        =         2.165967	     124.100794
	 B(4,9,8)         =         2.109269	     120.852214
	 B(5,10,13)       =         2.147619	     123.049526
	 B(5,11,8)        =         2.142058	     122.730894
	 B(5,11,14)       =         2.080687	     119.214606
	 B(6,3,9)         =         2.098158	     120.215612
	 B(6,3,17)        =         2.083797	     119.392793
	 B(6,12,7)        =         2.153403	     123.380882
	 B(6,12,22)       =         2.064892	     118.309573
	 B(7,4,9)         =         2.098158	     120.215617
	 B(7,4,18)        =         2.083803	     119.393129
	 B(7,12,22)       =         2.064890	     118.309460
	 B(8,1,15)        =         2.086833	     119.566715
	 B(8,11,14)       =         2.060440	     118.054499
	 B(9,3,17)        =         2.101219	     120.390963
	 B(9,4,18)        =         2.101213	     120.390611
	 B(9,8,11)        =         2.088786	     119.678632
	 B(10,2,16)       =         2.075105	     118.894744
	 B(10,5,11)       =         2.068374	     118.509118
	 B(10,5,19)       =         2.130260	     122.054914
	 B(10,13,23)      =         1.930192	     110.591873
	 B(11,5,19)       =         2.084551	     119.435968
	 B(12,6,20)       =         2.041194	     116.951814
	 B(12,7,21)       =         2.041184	     116.951253
	 D(1,2,10,5)      =         0.000217	       0.012449
	 D(1,2,10,13)     =        -3.141419	    -179.990037
	 D(1,8,9,3)       =        -1.570751	     -89.997415
	 D(1,8,9,4)       =         1.582024	      90.643306
	 D(1,8,11,5)      =         0.000428	       0.024520
	 D(1,8,11,14)     =        -3.141157	    -179.975031
	 D(2,1,8,9)       =        -3.140784	    -179.953656
	 D(2,1,8,11)      =        -0.000141	      -0.008079
	 D(2,10,5,11)     =         0.000054	       0.003108
	 D(2,10,5,19)     =         3.141523	     179.995985
	 D(2,10,13,23)    =         3.141593	     180.000000
	 D(3,6,12,7)      =        -0.001586	      -0.090846
	 D(3,6,12,22)     =         3.138120	     179.801055
	 D(3,9,4,7)       =        -0.000272	      -0.015609
	 D(3,9,4,18)      =        -3.136745	    -179.722244
	 D(3,9,8,11)      =         1.571808	      90.057953
	 D(4,7,12,6)      =         0.001306	       0.074804
	 D(4,7,12,22)     =        -3.138400	    -179.817098
	 D(4,9,3,6)       =        -0.000000	      -0.000000
	 D(4,9,3,17)      =         3.136508	     179.708659
	 D(4,9,8,11)      =        -1.558602	     -89.301326
	 D(5,10,2,16)     =        -3.141283	    -179.982275
	 D(5,10,13,23)    =        -0.000057	      -0.003288
	 D(5,11,8,9)      =         3.141098	     179.971653
	 D(6,3,9,8)       =        -3.130697	    -179.375749
	 D(6,12,7,21)     =         3.139632	     179.887651
	 D(7,4,9,8)       =         3.130417	     179.359711
	 D(7,12,6,20)     =        -3.139306	    -179.868974
	 D(8,1,2,10)      =        -0.000172	      -0.009866
	 D(8,1,2,16)      =         3.141326	     179.984741
	 D(8,9,3,17)      =         0.005818	       0.333338
	 D(8,9,4,18)      =        -0.006055	      -0.346924
	 D(8,11,5,10)     =        -0.000386	      -0.022093
	 D(8,11,5,19)     =         3.141328	     179.984839
	 D(9,3,6,12)      =         0.000897	       0.051384
	 D(9,3,6,20)      =         3.138321	     179.812543
	 D(9,4,7,12)      =        -0.000338	      -0.019392
	 D(9,4,7,21)      =        -3.138415	    -179.817924
	 D(9,8,1,15)      =         0.000444	       0.025442
	 D(9,8,11,14)     =        -0.000487	      -0.027898
	 D(10,2,1,15)     =        -3.141399	    -179.988927
	 D(10,5,11,14)    =         3.141199	     179.977454
	 D(11,5,10,13)    =        -3.141492	    -179.994245
	 D(11,8,1,15)     =         3.141087	     179.971019
	 D(12,6,3,17)     =        -3.135669	    -179.660602
	 D(12,7,4,18)     =         3.136185	     179.690164
	 D(13,10,2,16)    =         0.000266	       0.015239
	 D(13,10,5,19)    =        -0.000024	      -0.001368
	 D(14,11,5,19)    =        -0.000273	      -0.015615
	 D(15,1,2,16)     =         0.000099	       0.005681
	 D(17,3,6,20)     =         0.001755	       0.100557
	 D(18,4,7,21)     =        -0.001891	      -0.108367
	 D(20,6,12,22)    =         0.000400	       0.022928
	 D(21,7,12,22)    =        -0.000074	      -0.004251

	Current energy   :      -653.2423131914

	Energy change for the previous step:
		Projected    :         0.0000017151
		Actual       :        -0.0000041909

	Performing BFGS update.
	Previous computed or guess Hessian on step 1.
	Steps to be used in Hessian update: 4 3
	Adding user-defined constraint: Fragment 1; Coordinate 64:
		Value =    -1.570751; Fixed value    =    -1.570800
		Force =    -0.000029; Force constant =     0.600000
	Removing off-diagonal coupling between coordinate 64 and others.
	Taking RFO optimization step.
	Going to follow RFO solution 1.
	Using RFO vector 1.
	Norm of target step-size    0.00340
	Projected energy change by RFO approximation:        -0.0000000122

	Back-transformation to cartesian coordinates...
	Could not converge backtransformation.
	Using first guess instead.

	--- Internal Coordinate Step in ANG or DEG, aJ/ANG or AJ/DEG ---
	 ---------------------------------------------------------------------------
	   Coordinate                Previous        Force       Change         New 
	   ----------                --------       ------       ------       ------
	    1 R(1,2)          =      1.380682     0.000070     0.000005     1.380687
	    2 R(1,8)          =      1.394055    -0.000251    -0.000029     1.394026
	    3 R(1,15)         =      1.079766    -0.000266    -0.000045     1.079720
	    4 R(2,10)         =      1.392262    -0.000614    -0.000069     1.392193
	    5 R(2,16)         =      1.078022    -0.000093    -0.000011     1.078011
	    6 R(3,6)          =      1.376888    -0.000088    -0.000007     1.376881
	    7 R(3,9)          =      1.393498    -0.000176    -0.000025     1.393473
	    8 R(3,17)         =      1.078363    -0.000297    -0.000052     1.078311
	    9 R(4,7)          =      1.376879    -0.000151    -0.000016     1.376863
	   10 R(4,9)          =      1.393506    -0.000222    -0.000031     1.393476
	   11 R(4,18)         =      1.078360    -0.000291    -0.000051     1.078309
	   12 R(5,10)         =      1.389883     0.000168     0.000021     1.389905
	   13 R(5,11)         =      1.376927    -0.000216    -0.000019     1.376908
	   14 R(5,19)         =      1.079013    -0.000055    -0.000005     1.079008
	   15 R(6,12)         =      1.341394    -0.000183    -0.000023     1.341372
	   16 R(6,20)         =      1.077169    -0.000020    -0.000001     1.077168
	   17 R(7,12)         =      1.341395    -0.000110    -0.000014     1.341381
	   18 R(7,21)         =      1.077172    -0.000033    -0.000004     1.077168
	   19 R(8,9)          =      1.464176     0.000919     0.000136     1.464312
	   20 R(8,11)         =      1.384055    -0.000164    -0.000024     1.384031
	   21 R(10,13)        =      1.347397     0.000015     0.000015     1.347412
	   22 R(11,14)        =      1.346137     0.000023     0.000029     1.346165
	   23 R(12,22)        =      1.013124    -0.000244    -0.000033     1.013091
	   24 R(13,23)        =      0.963136    -0.000170    -0.000012     0.963124
	   25 B(1,2,10)       =    120.045506    -0.000000     0.001525   120.047031
	   26 B(1,2,16)       =    121.059750    -0.000002    -0.007813   121.051937
	   27 B(1,8,9)        =    122.437678     0.000006     0.021016   122.458694
	   28 B(1,8,11)       =    117.883667    -0.000000    -0.002132   117.881535
	   29 B(2,1,8)        =    120.687934     0.000001     0.000067   120.688001
	   30 B(2,1,15)       =    119.745348    -0.000001    -0.005406   119.739942
	   31 B(2,10,5)       =    120.142876     0.000000    -0.000031   120.142845
	   32 B(2,10,13)      =    116.807598    -0.000000     0.001150   116.808748
	   33 B(3,6,12)       =    118.947462     0.000000     0.001202   118.948664
	   34 B(3,6,20)       =    124.100319    -0.000000    -0.000157   124.100161
	   35 B(3,9,4)        =    118.292708     0.000001     0.003308   118.296015
	   36 B(3,9,8)        =    120.852080     0.000000     0.000746   120.852825
	   37 B(4,7,12)       =    118.947665     0.000000     0.001862   118.949528
	   38 B(4,7,21)       =    124.100794    -0.000000    -0.000995   124.099798
	   39 B(4,9,8)        =    120.852214    -0.000001    -0.004235   120.847979
	   40 B(5,10,13)      =    123.049526    -0.000000    -0.001119   123.048407
	   41 B(5,11,8)       =    122.730894     0.000000     0.003328   122.734222
	   42 B(5,11,14)      =    119.214606    -0.000001    -0.005847   119.208759
	   43 B(6,3,9)        =    120.215612    -0.000001    -0.002364   120.213248
	   44 B(6,3,17)       =    119.392793    -0.000000    -0.001632   119.391161
	   45 B(6,12,7)       =    123.380882    -0.000000    -0.001319   123.379563
	   46 B(6,12,22)      =    118.309573     0.000000     0.000608   118.310181
	   47 B(7,4,9)        =    120.215617    -0.000001    -0.002646   120.212971
	   48 B(7,4,18)       =    119.393129    -0.000000    -0.001669   119.391460
	   49 B(7,12,22)      =    118.309460     0.000000     0.000683   118.310143
	   50 B(8,1,15)       =    119.566715     0.000001     0.005342   119.572058
	   51 B(8,11,14)      =    118.054499     0.000001     0.002515   118.057014
	   52 B(9,3,17)       =    120.390963     0.000001     0.004068   120.395031
	   53 B(9,4,18)       =    120.390611     0.000001     0.004458   120.395069
	   54 B(9,8,11)       =    119.678632    -0.000005    -0.018922   119.659710
	   55 B(10,2,16)      =    118.894744     0.000002     0.006287   118.901031
	   56 B(10,5,11)      =    118.509118    -0.000000    -0.002770   118.506348
	   57 B(10,5,19)      =    122.054914     0.000000     0.003580   122.058493
	   58 B(10,13,23)     =    110.591873    -0.000004    -0.013125   110.578748
	   59 B(11,5,19)      =    119.435968     0.000000    -0.000809   119.435159
	   60 B(12,6,20)      =    116.951814    -0.000000    -0.000853   116.950961
	   61 B(12,7,21)      =    116.951253    -0.000000    -0.000766   116.950487
	   62 D(1,2,10,5)     =      0.012449    -0.000000     0.001184     0.013633
	   63 D(1,2,10,13)    =   -179.990037    -0.000000    -0.001450  -179.991487
	   64 D(1,8,9,3)      =    -89.997415     0.000000     0.004063   -89.993352
	   65 D(1,8,9,4)      =     90.643306     0.000000     0.023211    90.666517
	   66 D(1,8,11,5)     =      0.024520     0.000000     0.028200     0.052720
	   67 D(1,8,11,14)    =   -179.975031    -0.000000     0.002672  -179.972359
	   68 D(2,1,8,9)      =   -179.953656    -0.000000     0.005317  -179.948339
	   69 D(2,1,8,11)     =     -0.008079    -0.000000    -0.030348    -0.038426
	   70 D(2,10,5,11)    =      0.003108    -0.000000    -0.003108     0.000000
	   71 D(2,10,5,19)    =    179.995985     0.000000     0.002405   179.998391
	   72 D(2,10,13,23)   =    180.000000     0.000000     0.001840   180.001840
	   73 D(3,6,12,7)     =     -0.090846     0.000000     0.054164    -0.036683
	   74 D(3,6,12,22)    =    179.801055     0.000000     0.037410   179.838465
	   75 D(3,9,4,7)      =     -0.015609    -0.000000    -0.001293    -0.016902
	   76 D(3,9,4,18)     =   -179.722244    -0.000000    -0.035867  -179.758111
	   77 D(3,9,8,11)     =     90.057953     0.000000     0.040332    90.098285
	   78 D(4,7,12,6)     =      0.074804    -0.000000    -0.040638     0.034166
	   79 D(4,7,12,22)    =   -179.817098    -0.000000    -0.023884  -179.840982
	   80 D(4,9,3,6)      =      0.000000     0.000000     0.014387     0.014387
	   81 D(4,9,3,17)     =    179.708659     0.000000     0.031774   179.740433
	   82 D(4,9,8,11)     =    -89.301326     0.000000     0.059479   -89.241847
	   83 D(5,10,2,16)    =   -179.982275    -0.000000     0.003002  -179.979273
	   84 D(5,10,13,23)   =     -0.003288     0.000000    -0.000154    -0.003442
	   85 D(5,11,8,9)     =    179.971653     0.000000    -0.006408   179.965245
	   86 D(6,3,9,8)      =   -179.375749     0.000000     0.033532  -179.342217
	   87 D(6,12,7,21)    =    179.887651     0.000000    -0.004278   179.883373
	   88 D(7,4,9,8)      =    179.359711     0.000000    -0.019977   179.339734
	   89 D(7,12,6,20)    =   -179.868974    -0.000000    -0.006516  -179.875491
	   90 D(8,1,2,10)     =     -0.009866     0.000000     0.016363     0.006496
	   91 D(8,1,2,16)     =    179.984741     0.000000     0.015259   180.000000
	   92 D(8,9,3,17)     =      0.333338     0.000000     0.050490     0.383829
	   93 D(8,9,4,18)     =     -0.346924    -0.000000    -0.054550    -0.401475
	   94 D(8,11,5,10)    =     -0.022093    -0.000000    -0.011340    -0.033433
	   95 D(8,11,5,19)    =    179.984839    -0.000000    -0.017404   179.967435
	   96 D(9,3,6,12)     =      0.051384    -0.000000    -0.040097     0.011287
	   97 D(9,3,6,20)     =    179.812543     0.000000     0.025223   179.837765
	   98 D(9,4,7,12)     =     -0.019392     0.000000     0.013124    -0.006268
	   99 D(9,4,7,21)     =   -179.817924    -0.000000    -0.026018  -179.843942
	  100 D(9,8,1,15)     =      0.025442     0.000000     0.024932     0.050373
	  101 D(9,8,11,14)    =     -0.027898    -0.000000    -0.031936    -0.059834
	  102 D(10,2,1,15)    =   -179.988927    -0.000000    -0.003287  -179.992214
	  103 D(10,5,11,14)   =    179.977454     0.000000     0.014470   179.991924
	  104 D(11,5,10,13)   =   -179.994245    -0.000000    -0.001021  -179.995265
	  105 D(11,8,1,15)    =    179.971019     0.000000    -0.010733   179.960286
	  106 D(12,6,3,17)    =   -179.660602    -0.000000    -0.056903  -179.717505
	  107 D(12,7,4,18)    =    179.690164     0.000000     0.047369   179.737533
	  108 D(13,10,2,16)   =      0.015239    -0.000000     0.000368     0.015607
	  109 D(13,10,5,19)   =     -0.001368     0.000000     0.005210     0.003843
	  110 D(14,11,5,19)   =     -0.015615     0.000000     0.008406    -0.007208
	  111 D(15,1,2,16)    =      0.005681    -0.000000    -0.005681     0.000000
	  112 D(17,3,6,20)    =      0.100557     0.000000     0.008417     0.108974
	  113 D(18,4,7,21)    =     -0.108367     0.000000     0.008227    -0.100140
	  114 D(20,6,12,22)   =      0.022928    -0.000000    -0.022928     0.000000
	  115 D(21,7,12,22)   =     -0.004251     0.000000     0.012476     0.008225
	 ---------------------------------------------------------------------------
	Successfully symmetrized geometry.
	 Forces used to impose fixed constraints are not included.
	  Forces zeroed: 64 

  ==> Convergence Check <==

  Measures of convergence in internal coordinates in au.
  Criteria marked as inactive (o), active & met (*), and active & unmet ( ).
  ---------------------------------------------------------------------------------------------
   Step     Total Energy     Delta E     MAX Force     RMS Force      MAX Disp      RMS Disp   
  ---------------------------------------------------------------------------------------------
    Convergence Criteria    1.00e-06 *    3.00e-04 *             o    1.20e-03 *             o
  ---------------------------------------------------------------------------------------------
      5    -653.24231319   -4.19e-06      1.12e-04 *    2.06e-05 o    1.04e-03 *    3.17e-04 o  ~
  ---------------------------------------------------------------------------------------------


  **** Optimization is complete! (in 5 steps) ****

  ==> Optimization Summary <==

  Measures of convergence in internal coordinates in au.
  --------------------------------------------------------------------------------------------------------------- ~
   Step         Total Energy             Delta E       MAX Force       RMS Force        MAX Disp        RMS Disp  ~
  --------------------------------------------------------------------------------------------------------------- ~
      1    -653.238739246714   -653.238739246714      0.01536148      0.00439190      0.03110421      0.00932509  ~
      2    -653.241746347490     -0.003007100775      0.00475148      0.00142497      0.02160201      0.00645022  ~
      3    -653.242280389672     -0.000534042182      0.00207491      0.00033274      0.00524495      0.00149485  ~
      4    -653.242309000521     -0.000028610849      0.00069761      0.00011396      0.00349340      0.00097969  ~
      5    -653.242313191389     -0.000004190869      0.00011157      0.00002075      0.00103811      0.00031685  ~
  --------------------------------------------------------------------------------------------------------------- ~

	Writing optimization data to binary file.
	Final energy is   -653.2423131913895
	Final (previous) structure:
	Cartesian Geometry (in Angstrom)
	    C    -1.3849338948   0.7837645593  -0.7670416215
	    C    -2.4389710591   1.3439643727  -0.0731651008
	    C     0.7889773324  -1.7661650626  -1.1567846273
	    C     1.9471420505   0.3261106661  -1.0825460043
	    C    -1.4073687874   0.7153894825   2.0135291754
	    C     1.8706537545  -2.3245532021  -1.8002125999
	    C     3.0140998084  -0.2591728901  -1.7266271086
	    C    -0.3265085892   0.1813941701  -0.0886063032
	    C     0.8104457202  -0.4232286935  -0.7854401852
	    C    -2.4532367978   1.3112620246   1.3186398177
	    C    -0.3697652412   0.1653335322   1.2946794276
	    N     2.9390732326  -1.5562751850  -2.0601492752
	    O    -3.5130266153   1.8768263827   1.9289360896
	    F     0.6507695297  -0.4150106594   1.9533098261
	    H    -1.3787380727   0.8120133329  -1.8464198228
	    H    -3.2603734479   1.8114895194  -0.5916728882
	    H    -0.0715340708  -2.3786193671  -0.9393304309
	    H     2.0017769446   1.3671382267  -0.8066152402
	    H    -1.3868468709   0.6727581316   3.0915040555
	    H     1.9222539482  -3.3542707635  -2.1121617837
	    H     3.9226375169   0.2592574523  -1.9837032420
	    H     3.7307862689  -1.9778023183  -2.5312382252
	    H    -3.4314843232   1.8040467111   2.8858506790
	Saving final (previous) structure.
			--------------------------
			 OPTKING Finished Execution 
			--------------------------

    Final optimized geometry and variables:
    Molecular point group: c1
    Full point group: C1

    Geometry (in Angstrom), charge = 1, multiplicity = 1:

    C           -1.384933894808     0.783764559340    -0.767041621520
    C           -2.438971059079     1.343964372708    -0.073165100769
    C            0.788977332393    -1.766165062631    -1.156784627257
    C            1.947142050545     0.326110666130    -1.082546004304
    C           -1.407368787415     0.715389482479     2.013529175404
    C            1.870653754526    -2.324553202090    -1.800212599934
    C            3.014099808391    -0.259172890091    -1.726627108555
    C           -0.326508589175     0.181394170095    -0.088606303165
    C            0.810445720161    -0.423228693473    -0.785440185173
    C           -2.453236797801     1.311262024605     1.318639817716
    C           -0.369765241245     0.165333532203     1.294679427627
    N            2.939073232566    -1.556275184982    -2.060149275214
    O           -3.513026615343     1.876826382670     1.928936089570
    F            0.650769529706    -0.415010659412     1.953309826096
    H           -1.378738072686     0.812013332891    -1.846419822828
    H           -3.260373447936     1.811489519432    -0.591672888193
    H           -0.071534070758    -2.378619367097    -0.939330430884
    H            2.001776944560     1.367138226686    -0.806615240249
    H           -1.386846870866     0.672758131610     3.091504055534
    H            1.922253948165    -3.354270763498    -2.112161783679
    H            3.922637516950     0.259257452321    -1.983703242035
    H            3.730786268940    -1.977802318310    -2.531238225174
    H           -3.431484323189     1.804046711074     2.885850679033

	Cleaning optimization helper files.

*** Psi4 exiting successfully. Buy a developer a beer!
