
    -----------------------------------------------------------------------
          Psi4: An Open-Source Ab Initio Electronic Structure Package
                               Psi4 1.1 release

                         Git: Rev {HEAD} add49b9 


    R. M. Parrish, L. A. Burns, D. G. A. Smith, A. C. Simmonett,
    A. E. DePrince III, E. G. Hohenstein, U. Bozkaya, A. Yu. Sokolov,
    R. Di Remigio, R. M. Richard, J. F. Gonthier, A. M. James,
    H. R. McAlexander, A. Kumar, M. Saitow, X. Wang, B. P. Pritchard,
    P. Verma, H. F. Schaefer III, K. Patkowski, R. A. King, E. F. Valeev,
    F. A. Evangelista, J. M. Turney, T. D. Crawford, and C. D. Sherrill,
    J. Chem. Theory Comput. in press (2017).
    (doi: 10.1021/acs.jctc.7b00174)

    -----------------------------------------------------------------------


    Psi4 started on: Sunday, 12 November 2017 02:43PM

    Process ID:  30147
    PSIDATADIR: /cbio/jclab/home/chayas/anaconda/envs/py35/share/psi4
    Memory:     500.0 MiB
    Threads:    8
    
  ==> Input File <==

--------------------------------------------------------------------------

memory 5 Gb

molecule phepyrOH_neutral {
  symmetry C1
  0 1 
  C      1.885   -1.036   -0.112
  C      2.878   -1.652   2.002
  C      0.807   -0.463   0.561
  C      1.800   -1.079   2.676
  C      3.862   -2.773   -1.356
  C      5.298   -2.250   0.501
  C      4.965   -3.329   -1.983
  C      6.337   -2.829   -0.209
  C      2.921   -1.631   0.608
  C      4.040   -2.225   -0.090
  C      0.764   -0.484   1.955
  N      6.202   -3.372   -1.440
  O      -0.288   0.076   2.612
  H      1.904   -1.012   -1.199
  H      3.678   -2.112   2.578
  H      0.003   -0.001   -0.006
  H      1.772   -1.098   3.762
  H      2.895   -2.772   -1.850
  H      5.475   -1.833   1.487
  H      4.879   -3.768   -2.972
  H      7.337   -2.875   0.208
  H      -1.116   -0.360   2.354
  units Angstrom
}

dih_string = "3 11 13 22 60"
set optking fixed_dihedral = $dih_string

optimize('MP2/aug-cc-PVTZ')
--------------------------------------------------------------------------

  Memory set to   4.657 GiB by Python driver.
gradient() will perform analytic gradient computation.

*** tstart() called on gpu-1-8.local
*** at Sun Nov 12 14:43:19 2017

    SCF Algorithm Type (re)set to DF.

*** tstart() called on gpu-1-8.local
*** at Sun Nov 12 14:43:19 2017

   => Loading Basis Set <=

    Name: AUG-CC-PVTZ
    Role: ORBITAL
    Keyword: BASIS
    atoms 1-11  entry C          line   221 file /cbio/jclab/home/chayas/anaconda/envs/py35/share/psi4/basis/aug-cc-pvtz.gbs 
    atoms 12    entry N          line   267 file /cbio/jclab/home/chayas/anaconda/envs/py35/share/psi4/basis/aug-cc-pvtz.gbs 
    atoms 13    entry O          line   313 file /cbio/jclab/home/chayas/anaconda/envs/py35/share/psi4/basis/aug-cc-pvtz.gbs 
    atoms 14-22 entry H          line    34 file /cbio/jclab/home/chayas/anaconda/envs/py35/share/psi4/basis/aug-cc-pvtz.gbs 


         ---------------------------------------------------------
                                   SCF
            by Justin Turney, Rob Parrish, and Andy Simmonett
                              RHF Reference
                        8 Threads,   4768 MiB Core
         ---------------------------------------------------------

  ==> Geometry <==

    Molecular point group: c1
    Full point group: C1

    Geometry (in Angstrom), charge = 0, multiplicity = 1:

       Center              X                  Y                   Z               Mass       
    ------------   -----------------  -----------------  -----------------  -----------------
           C         -1.248024030814     0.711661203358    -0.583427900479    12.000000000000
           C         -0.255024030814     0.095661203358     1.530572099521    12.000000000000
           C         -2.326024030814     1.284661203358     0.089572099521    12.000000000000
           C         -1.333024030814     0.668661203358     2.204572099521    12.000000000000
           C          0.728975969186    -1.025338796642    -1.827427900479    12.000000000000
           C          2.164975969186    -0.502338796642     0.029572099521    12.000000000000
           C          1.831975969186    -1.581338796642    -2.454427900479    12.000000000000
           C          3.203975969186    -1.081338796642    -0.680427900479    12.000000000000
           C         -0.212024030814     0.116661203358     0.136572099521    12.000000000000
           C          0.906975969186    -0.477338796642    -0.561427900479    12.000000000000
           C         -2.369024030814     1.263661203358     1.483572099521    12.000000000000
           N          3.068975969186    -1.624338796642    -1.911427900479    14.003074004780
           O         -3.421024030814     1.823661203358     2.140572099521    15.994914619560
           H         -1.229024030814     0.735661203358    -1.670427900479     1.007825032070
           H          0.544975969186    -0.364338796642     2.106572099521     1.007825032070
           H         -3.130024030814     1.746661203358    -0.477427900479     1.007825032070
           H         -1.361024030814     0.649661203358     3.290572099521     1.007825032070
           H         -0.238024030814    -1.024338796642    -2.321427900479     1.007825032070
           H          2.341975969186    -0.085338796642     1.015572099521     1.007825032070
           H          1.745975969186    -2.020338796642    -3.443427900479     1.007825032070
           H          4.203975969186    -1.127338796642    -0.263427900479     1.007825032070
           H         -4.249024030814     1.387661203358     1.882572099521     1.007825032070

  Running in c1 symmetry.

  Rotational constants: A =      0.09693  B =      0.01354  C =      0.01209 [cm^-1]
  Rotational constants: A =   2906.03036  B =    406.02342  C =    362.38900 [MHz]
  Nuclear repulsion =  698.505167868280068

  Charge       = 0
  Multiplicity = 1
  Electrons    = 90
  Nalpha       = 45
  Nbeta        = 45

  ==> Algorithm <==

  SCF Algorithm Type is DF.
  DIIS enabled.
  MOM disabled.
  Fractional occupation disabled.
  Guess Type is SAD.
  Energy threshold   = 1.00e-10
  Density threshold  = 1.00e-10
  Integral threshold = 0.00e+00

  ==> Primary Basis <==

  Basis Set: AUG-CC-PVTZ
    Blend: AUG-CC-PVTZ
    Number of shells: 263
    Number of basis function: 805
    Number of Cartesian functions: 940
    Spherical Harmonics?: true
    Max angular momentum: 3

   => Loading Basis Set <=

    Name: (AUG-CC-PVTZ AUX)
    Role: JKFIT
    Keyword: DF_BASIS_SCF
    atoms 1-11  entry C          line   161 file /cbio/jclab/home/chayas/anaconda/envs/py35/share/psi4/basis/aug-cc-pvtz-jkfit.gbs 
    atoms 12    entry N          line   223 file /cbio/jclab/home/chayas/anaconda/envs/py35/share/psi4/basis/aug-cc-pvtz-jkfit.gbs 
    atoms 13    entry O          line   285 file /cbio/jclab/home/chayas/anaconda/envs/py35/share/psi4/basis/aug-cc-pvtz-jkfit.gbs 
    atoms 14-22 entry H          line    69 file /cbio/jclab/home/chayas/anaconda/envs/py35/share/psi4/basis/aug-cc-pvtz-jkfit.gbs 

  ==> Pre-Iterations <==

   -------------------------------------------------------
    Irrep   Nso     Nmo     Nalpha   Nbeta   Ndocc  Nsocc
   -------------------------------------------------------
     A        805     805       0       0       0       0
   -------------------------------------------------------
    Total     805     805      45      45      45       0
   -------------------------------------------------------

  ==> Integral Setup <==

  ==> DFJK: Density-Fitted J/K Matrices <==

    J tasked:                  Yes
    K tasked:                  Yes
    wK tasked:                  No
    OpenMP threads:              8
    Integrals threads:           8
    Memory (MB):              3576
    Algorithm:                Disk
    Integral Cache:           NONE
    Schwarz Cutoff:          1E-12
    Fitting Condition:       1E-12

   => Auxiliary Basis Set <=

  Basis Set: (AUG-CC-PVTZ AUX)
    Blend: AUG-CC-PVTZ-JKFIT
    Number of shells: 516
    Number of basis function: 1766
    Number of Cartesian functions: 2198
    Spherical Harmonics?: true
    Max angular momentum: 4

  Minimum eigenvalue in the overlap matrix is 6.2289938211E-07.
  Using Symmetric Orthogonalization.

  SCF Guess: Superposition of Atomic Densities via on-the-fly atomic UHF.

  ==> Iterations <==

                           Total Energy        Delta E     RMS |[F,P]|

   @DF-RHF iter   0:  -559.45865722903352   -5.59459e+02   2.39357e-02 
   @DF-RHF iter   1:  -550.97513702050492    8.48352e+00   1.95146e-03 
   @DF-RHF iter   2:  -551.22598088937048   -2.50844e-01   7.07828e-04 DIIS
   @DF-RHF iter   3:  -551.26552496288491   -3.95441e-02   3.26475e-04 DIIS
   @DF-RHF iter   4:  -551.28024206842406   -1.47171e-02   1.40526e-04 DIIS
   @DF-RHF iter   5:  -551.28215670897941   -1.91464e-03   4.19233e-05 DIIS
   @DF-RHF iter   6:  -551.28244687533243   -2.90166e-04   1.94607e-05 DIIS
   @DF-RHF iter   7:  -551.28248771386768   -4.08385e-05   6.35268e-06 DIIS
   @DF-RHF iter   8:  -551.28249284955837   -5.13569e-06   2.32874e-06 DIIS
   @DF-RHF iter   9:  -551.28249452819728   -1.67864e-06   1.47225e-06 DIIS
   @DF-RHF iter  10:  -551.28249514572065   -6.17523e-07   4.86922e-07 DIIS
   @DF-RHF iter  11:  -551.28249520418660   -5.84660e-08   1.90247e-07 DIIS
   @DF-RHF iter  12:  -551.28249521136320   -7.17660e-09   4.95667e-08 DIIS
   @DF-RHF iter  13:  -551.28249521215844   -7.95239e-10   1.92559e-08 DIIS
   @DF-RHF iter  14:  -551.28249521234056   -1.82126e-10   1.50612e-08 DIIS
   @DF-RHF iter  15:  -551.28249521240741   -6.68479e-11   7.14303e-09 DIIS
   @DF-RHF iter  16:  -551.28249521240571    1.70530e-12   2.74576e-09 DIIS
   @DF-RHF iter  17:  -551.28249521241594   -1.02318e-11   1.11531e-09 DIIS
   @DF-RHF iter  18:  -551.28249521243583   -1.98952e-11   3.61957e-10 DIIS
   @DF-RHF iter  19:  -551.28249521241037    2.54659e-11   1.68939e-10 DIIS
   @DF-RHF iter  20:  -551.28249521243538   -2.50111e-11   5.60573e-11 DIIS

  ==> Post-Iterations <==

    Orbital Energies (a.u.)
    -----------------------

    Doubly Occupied:                                                      

       1A    -20.591532     2A    -15.562605     3A    -11.308852  
       4A    -11.274691     5A    -11.274587     6A    -11.263843  
       7A    -11.252698     8A    -11.252123     9A    -11.247550  
      10A    -11.244838    11A    -11.243709    12A    -11.237194  
      13A    -11.236875    14A     -1.409203    15A     -1.249261  
      16A     -1.174030    17A     -1.104035    18A     -1.039591  
      19A     -1.028201    20A     -1.008788    21A     -0.880200  
      22A     -0.872925    23A     -0.835930    24A     -0.810582  
      25A     -0.747717    26A     -0.723700    27A     -0.683241  
      28A     -0.665617    29A     -0.647776    30A     -0.637099  
      31A     -0.631139    32A     -0.610409    33A     -0.596191  
      34A     -0.592014    35A     -0.550490    36A     -0.545051  
      37A     -0.528006    38A     -0.516044    39A     -0.507138  
      40A     -0.484554    41A     -0.418285    42A     -0.399304  
      43A     -0.354226    44A     -0.349383    45A     -0.312461  

    Virtual:                                                              

      46A      0.022347    47A      0.029111    48A      0.032009  
      49A      0.039108    50A      0.041264    51A      0.045790  
      52A      0.054129    53A      0.056784    54A      0.059793  
      55A      0.074763    56A      0.078314    57A      0.084257  
      58A      0.087971    59A      0.091467    60A      0.093944  
      61A      0.102144    62A      0.106803    63A      0.107989  
      64A      0.110754    65A      0.113686    66A      0.116465  
      67A      0.117179    68A      0.121475    69A      0.127783  
      70A      0.129605    71A      0.132482    72A      0.133377  
      73A      0.138230    74A      0.141800    75A      0.145790  
      76A      0.148711    77A      0.149886    78A      0.153822  
      79A      0.158803    80A      0.161852    81A      0.168445  
      82A      0.169798    83A      0.176713    84A      0.181683  
      85A      0.185433    86A      0.186571    87A      0.201128  
      88A      0.203884    89A      0.211280    90A      0.216086  
      91A      0.222155    92A      0.225014    93A      0.228895  
      94A      0.234928    95A      0.240473    96A      0.242045  
      97A      0.244341    98A      0.246788    99A      0.252273  
     100A      0.257009   101A      0.262369   102A      0.263929  
     103A      0.267121   104A      0.270555   105A      0.274730  
     106A      0.283826   107A      0.285107   108A      0.289101  
     109A      0.291345   110A      0.294568   111A      0.298916  
     112A      0.301760   113A      0.303981   114A      0.307602  
     115A      0.314785   116A      0.319196   117A      0.323112  
     118A      0.328134   119A      0.329188   120A      0.332802  
     121A      0.339777   122A      0.341872   123A      0.352533  
     124A      0.357982   125A      0.361621   126A      0.364453  
     127A      0.370656   128A      0.371951   129A      0.382579  
     130A      0.387854   131A      0.390765   132A      0.395688  
     133A      0.399587   134A      0.410394   135A      0.416299  
     136A      0.421231   137A      0.425168   138A      0.429424  
     139A      0.431238   140A      0.434816   141A      0.436264  
     142A      0.437040   143A      0.443508   144A      0.447720  
     145A      0.451323   146A      0.457673   147A      0.460929  
     148A      0.462456   149A      0.464377   150A      0.473463  
     151A      0.475183   152A      0.480992   153A      0.484171  
     154A      0.487626   155A      0.489236   156A      0.497064  
     157A      0.499743   158A      0.500901   159A      0.502514  
     160A      0.508404   161A      0.509040   162A      0.512385  
     163A      0.515713   164A      0.518454   165A      0.520007  
     166A      0.526378   167A      0.528063   168A      0.529168  
     169A      0.532765   170A      0.539444   171A      0.544132  
     172A      0.547361   173A      0.550041   174A      0.552120  
     175A      0.559059   176A      0.564183   177A      0.570804  
     178A      0.575194   179A      0.579672   180A      0.589378  
     181A      0.592332   182A      0.599225   183A      0.608121  
     184A      0.613190   185A      0.614202   186A      0.620489  
     187A      0.629085   188A      0.630734   189A      0.636841  
     190A      0.640333   191A      0.650809   192A      0.652884  
     193A      0.662334   194A      0.679774   195A      0.684573  
     196A      0.687997   197A      0.691320   198A      0.699241  
     199A      0.702282   200A      0.706728   201A      0.711686  
     202A      0.719539   203A      0.720965   204A      0.722296  
     205A      0.730378   206A      0.738676   207A      0.740255  
     208A      0.747553   209A      0.759484   210A      0.763476  
     211A      0.765940   212A      0.770866   213A      0.774088  
     214A      0.778807   215A      0.789199   216A      0.796045  
     217A      0.803256   218A      0.808627   219A      0.819153  
     220A      0.820981   221A      0.825769   222A      0.837792  
     223A      0.840800   224A      0.843867   225A      0.849249  
     226A      0.859374   227A      0.863391   228A      0.869614  
     229A      0.874801   230A      0.877150   231A      0.879382  
     232A      0.884769   233A      0.891995   234A      0.898658  
     235A      0.901559   236A      0.903387   237A      0.906177  
     238A      0.909522   239A      0.912981   240A      0.922478  
     241A      0.927196   242A      0.929532   243A      0.937715  
     244A      0.945570   245A      0.950244   246A      0.957628  
     247A      0.960418   248A      0.963270   249A      0.968329  
     250A      0.972673   251A      0.977222   252A      0.979317  
     253A      0.982291   254A      0.985229   255A      0.992035  
     256A      0.997522   257A      1.001841   258A      1.008925  
     259A      1.010595   260A      1.013929   261A      1.017579  
     262A      1.021992   263A      1.029362   264A      1.036753  
     265A      1.037119   266A      1.038787   267A      1.045400  
     268A      1.045520   269A      1.048664   270A      1.054329  
     271A      1.056307   272A      1.067002   273A      1.068871  
     274A      1.078375   275A      1.083523   276A      1.084315  
     277A      1.090840   278A      1.092636   279A      1.098628  
     280A      1.101638   281A      1.104519   282A      1.108219  
     283A      1.111070   284A      1.113769   285A      1.122117  
     286A      1.123655   287A      1.125273   288A      1.140913  
     289A      1.150478   290A      1.157926   291A      1.162036  
     292A      1.167161   293A      1.169951   294A      1.175183  
     295A      1.177394   296A      1.181225   297A      1.185721  
     298A      1.186216   299A      1.189956   300A      1.198044  
     301A      1.204229   302A      1.206603   303A      1.211792  
     304A      1.217592   305A      1.219145   306A      1.221971  
     307A      1.224943   308A      1.233568   309A      1.242844  
     310A      1.250541   311A      1.263301   312A      1.266444  
     313A      1.279557   314A      1.283312   315A      1.286539  
     316A      1.291831   317A      1.296254   318A      1.299889  
     319A      1.305204   320A      1.307541   321A      1.313753  
     322A      1.316550   323A      1.325664   324A      1.333178  
     325A      1.334905   326A      1.353123   327A      1.355453  
     328A      1.368784   329A      1.370416   330A      1.374029  
     331A      1.388933   332A      1.394883   333A      1.401243  
     334A      1.412208   335A      1.418916   336A      1.424474  
     337A      1.446450   338A      1.449399   339A      1.453344  
     340A      1.463279   341A      1.468347   342A      1.477091  
     343A      1.488956   344A      1.493364   345A      1.502958  
     346A      1.508177   347A      1.516164   348A      1.522369  
     349A      1.526357   350A      1.538421   351A      1.538969  
     352A      1.544350   353A      1.557776   354A      1.574324  
     355A      1.582802   356A      1.591676   357A      1.603567  
     358A      1.607170   359A      1.611817   360A      1.620269  
     361A      1.626919   362A      1.629215   363A      1.633711  
     364A      1.653555   365A      1.662715   366A      1.671765  
     367A      1.675926   368A      1.690247   369A      1.694512  
     370A      1.702526   371A      1.703799   372A      1.710894  
     373A      1.718280   374A      1.722407   375A      1.734883  
     376A      1.740165   377A      1.743271   378A      1.748131  
     379A      1.751335   380A      1.770745   381A      1.777873  
     382A      1.784460   383A      1.789280   384A      1.808639  
     385A      1.812576   386A      1.816428   387A      1.823113  
     388A      1.830730   389A      1.842310   390A      1.845664  
     391A      1.854399   392A      1.864393   393A      1.870094  
     394A      1.882302   395A      1.891573   396A      1.899126  
     397A      1.906918   398A      1.907753   399A      1.914681  
     400A      1.924939   401A      1.932485   402A      1.942882  
     403A      1.957817   404A      1.961865   405A      1.967429  
     406A      1.973567   407A      1.976142   408A      1.992090  
     409A      2.002431   410A      2.004738   411A      2.013012  
     412A      2.014459   413A      2.024480   414A      2.029497  
     415A      2.033973   416A      2.045475   417A      2.054025  
     418A      2.060068   419A      2.067976   420A      2.072718  
     421A      2.081996   422A      2.086945   423A      2.089618  
     424A      2.105814   425A      2.111207   426A      2.112022  
     427A      2.119043   428A      2.130040   429A      2.132013  
     430A      2.145320   431A      2.147695   432A      2.153361  
     433A      2.165560   434A      2.183606   435A      2.194451  
     436A      2.199987   437A      2.204446   438A      2.204824  
     439A      2.222262   440A      2.226632   441A      2.233689  
     442A      2.237884   443A      2.256592   444A      2.261726  
     445A      2.269885   446A      2.295036   447A      2.305961  
     448A      2.307654   449A      2.317218   450A      2.321087  
     451A      2.340259   452A      2.352453   453A      2.364705  
     454A      2.370583   455A      2.373375   456A      2.383763  
     457A      2.393538   458A      2.407844   459A      2.409560  
     460A      2.411878   461A      2.418646   462A      2.424559  
     463A      2.439392   464A      2.459079   465A      2.470221  
     466A      2.488174   467A      2.503002   468A      2.519320  
     469A      2.522734   470A      2.544761   471A      2.550157  
     472A      2.558579   473A      2.564833   474A      2.572698  
     475A      2.583468   476A      2.590379   477A      2.599315  
     478A      2.615930   479A      2.622442   480A      2.644609  
     481A      2.669601   482A      2.687503   483A      2.697273  
     484A      2.708683   485A      2.733559   486A      2.749183  
     487A      2.759190   488A      2.775984   489A      2.782827  
     490A      2.801203   491A      2.819099   492A      2.826880  
     493A      2.849094   494A      2.863466   495A      2.871607  
     496A      2.889720   497A      2.902071   498A      2.931916  
     499A      2.939091   500A      2.952622   501A      2.989762  
     502A      3.005422   503A      3.007382   504A      3.048523  
     505A      3.056551   506A      3.076514   507A      3.094834  
     508A      3.119822   509A      3.145450   510A      3.164593  
     511A      3.189319   512A      3.194872   513A      3.209153  
     514A      3.217663   515A      3.242622   516A      3.246444  
     517A      3.266804   518A      3.287458   519A      3.299156  
     520A      3.314830   521A      3.319750   522A      3.337629  
     523A      3.350030   524A      3.367127   525A      3.372053  
     526A      3.372502   527A      3.392285   528A      3.403906  
     529A      3.413298   530A      3.421282   531A      3.429271  
     532A      3.438110   533A      3.444807   534A      3.454308  
     535A      3.461328   536A      3.478557   537A      3.481315  
     538A      3.493874   539A      3.503739   540A      3.512865  
     541A      3.522664   542A      3.538826   543A      3.539705  
     544A      3.542573   545A      3.555945   546A      3.562842  
     547A      3.564091   548A      3.572810   549A      3.577361  
     550A      3.583550   551A      3.596165   552A      3.603891  
     553A      3.607219   554A      3.628293   555A      3.633956  
     556A      3.639694   557A      3.651250   558A      3.655603  
     559A      3.677531   560A      3.686123   561A      3.699198  
     562A      3.709539   563A      3.721862   564A      3.733601  
     565A      3.736519   566A      3.751496   567A      3.774611  
     568A      3.778758   569A      3.782517   570A      3.786492  
     571A      3.791516   572A      3.805133   573A      3.816661  
     574A      3.829485   575A      3.834665   576A      3.847240  
     577A      3.860689   578A      3.863057   579A      3.871664  
     580A      3.882266   581A      3.885597   582A      3.893198  
     583A      3.902703   584A      3.919664   585A      3.928301  
     586A      3.937129   587A      3.940437   588A      3.941260  
     589A      3.946399   590A      3.951723   591A      3.966414  
     592A      3.975902   593A      3.984244   594A      3.998265  
     595A      4.009300   596A      4.012585   597A      4.018996  
     598A      4.027752   599A      4.031936   600A      4.038635  
     601A      4.041582   602A      4.043094   603A      4.068089  
     604A      4.088480   605A      4.098053   606A      4.115132  
     607A      4.120415   608A      4.132477   609A      4.133787  
     610A      4.144081   611A      4.152024   612A      4.159106  
     613A      4.165956   614A      4.170357   615A      4.180846  
     616A      4.200095   617A      4.205843   618A      4.207743  
     619A      4.225491   620A      4.237494   621A      4.255769  
     622A      4.259168   623A      4.263094   624A      4.270592  
     625A      4.279872   626A      4.285648   627A      4.300795  
     628A      4.304213   629A      4.311946   630A      4.331265  
     631A      4.339393   632A      4.342454   633A      4.355141  
     634A      4.373604   635A      4.384018   636A      4.385095  
     637A      4.393694   638A      4.400884   639A      4.403410  
     640A      4.415374   641A      4.428233   642A      4.433490  
     643A      4.438444   644A      4.448377   645A      4.463740  
     646A      4.469335   647A      4.471956   648A      4.489181  
     649A      4.497012   650A      4.509609   651A      4.515880  
     652A      4.517756   653A      4.526792   654A      4.541702  
     655A      4.558837   656A      4.568856   657A      4.585904  
     658A      4.600119   659A      4.624753   660A      4.635100  
     661A      4.643361   662A      4.650398   663A      4.665049  
     664A      4.682311   665A      4.691426   666A      4.695509  
     667A      4.718460   668A      4.735355   669A      4.740236  
     670A      4.751050   671A      4.756329   672A      4.792509  
     673A      4.796094   674A      4.811335   675A      4.836325  
     676A      4.859173   677A      4.861972   678A      4.875870  
     679A      4.883157   680A      4.910694   681A      4.916248  
     682A      4.934088   683A      4.938807   684A      4.943279  
     685A      4.963029   686A      4.970953   687A      4.995368  
     688A      5.012457   689A      5.018048   690A      5.027751  
     691A      5.035064   692A      5.045354   693A      5.049576  
     694A      5.059322   695A      5.087031   696A      5.091588  
     697A      5.109945   698A      5.116539   699A      5.126831  
     700A      5.138243   701A      5.144533   702A      5.149751  
     703A      5.160329   704A      5.161758   705A      5.172570  
     706A      5.179318   707A      5.194711   708A      5.215759  
     709A      5.229055   710A      5.243265   711A      5.255822  
     712A      5.272611   713A      5.285727   714A      5.309236  
     715A      5.316071   716A      5.334954   717A      5.352800  
     718A      5.364000   719A      5.376841   720A      5.386255  
     721A      5.426047   722A      5.432709   723A      5.446168  
     724A      5.447228   725A      5.469182   726A      5.477221  
     727A      5.498243   728A      5.510426   729A      5.554018  
     730A      5.566197   731A      5.568989   732A      5.613674  
     733A      5.619638   734A      5.638011   735A      5.682114  
     736A      5.700959   737A      5.708751   738A      5.748710  
     739A      5.760068   740A      5.770853   741A      5.800309  
     742A      5.815743   743A      5.828895   744A      5.846799  
     745A      5.876623   746A      5.879101   747A      5.914496  
     748A      5.941136   749A      5.985096   750A      6.047392  
     751A      6.085566   752A      6.112242   753A      6.156900  
     754A      6.185473   755A      6.226426   756A      6.246864  
     757A      6.273591   758A      6.286255   759A      6.375262  
     760A      6.401997   761A      6.419771   762A      6.467673  
     763A      6.481769   764A      6.521435   765A      6.527283  
     766A      6.598391   767A      6.621355   768A      6.710139  
     769A      6.715272   770A      6.740302   771A      6.741307  
     772A      6.881720   773A      6.886563   774A      6.908321  
     775A      6.911935   776A      6.927704   777A      6.944120  
     778A      6.975675   779A      7.092318   780A      7.104290  
     781A      7.145837   782A      7.285800   783A      7.323160  
     784A      7.419381   785A      7.429815   786A      7.542940  
     787A      7.631241   788A      7.651746   789A      7.823309  
     790A      7.938142   791A      8.227381   792A      8.607828  
     793A     15.623920   794A     16.362659   795A     16.756648  
     796A     16.805933   797A     16.930555   798A     18.429936  
     799A     18.826364   800A     19.185546   801A     19.824415  
     802A     20.070919   803A     20.132422   804A     20.587761  
     805A     21.767779  

    Final Occupation by Irrep:
              A 
    DOCC [    45 ]

  Energy converged.

  @DF-RHF Final Energy:  -551.28249521243538

   => Energetics <=

    Nuclear Repulsion Energy =            698.5051678682800684
    One-Electron Energy =               -2133.7679469837189572
    Two-Electron Energy =                 883.9802839030035102
    DFT Exchange-Correlation Energy =       0.0000000000000000
    Empirical Dispersion Energy =           0.0000000000000000
    PCM Polarization Energy =               0.0000000000000000
    EFP Energy =                            0.0000000000000000
    Total Energy =                       -551.2824952124353786



Properties will be evaluated at   0.000000,   0.000000,   0.000000 Bohr

Properties computed using the SCF density matrix

  Nuclear Dipole Moment: (a.u.)
     X:    -1.3099      Y:    -0.0822      Z:     0.1275

  Electronic Dipole Moment: (a.u.)
     X:     0.1651      Y:     0.1385      Z:     0.1243

  Dipole Moment: (a.u.)
     X:    -1.1448      Y:     0.0563      Z:     0.2519     Total:     1.1736

  Dipole Moment: (Debye)
     X:    -2.9098      Y:     0.1431      Z:     0.6402     Total:     2.9829


*** tstop() called on gpu-1-8.local at Sun Nov 12 14:51:44 2017
Module time:
	user time   =    1115.74 seconds =      18.60 minutes
	system time =      49.93 seconds =       0.83 minutes
	total time  =        505 seconds =       8.42 minutes
Total time:
	user time   =    1115.74 seconds =      18.60 minutes
	system time =      49.93 seconds =       0.83 minutes
	total time  =        505 seconds =       8.42 minutes

  //>>>>>>>>>>>>>>>>>>>>>>>>>>>>>>>>>>>//
  //               DFMP2               //
  //<<<<<<<<<<<<<<<<<<<<<<<<<<<<<<<<<<<//

   => Loading Basis Set <=

    Name: (AUG-CC-PVTZ AUX)
    Role: RIFIT
    Keyword: DF_BASIS_MP2
    atoms 1-11  entry C          line   147 file /cbio/jclab/home/chayas/anaconda/envs/py35/share/psi4/basis/aug-cc-pvtz-ri.gbs 
    atoms 12    entry N          line   205 file /cbio/jclab/home/chayas/anaconda/envs/py35/share/psi4/basis/aug-cc-pvtz-ri.gbs 
    atoms 13    entry O          line   263 file /cbio/jclab/home/chayas/anaconda/envs/py35/share/psi4/basis/aug-cc-pvtz-ri.gbs 
    atoms 14-22 entry H          line    29 file /cbio/jclab/home/chayas/anaconda/envs/py35/share/psi4/basis/aug-cc-pvtz-ri.gbs 

	 --------------------------------------------------------
	                          DF-MP2                         
	      2nd-Order Density-Fitted Moller-Plesset Theory     
	              RMP2 Wavefunction,   8 Threads             
	                                                         
	        Rob Parrish, Justin Turney, Andy Simmonett,      
	           Ed Hohenstein, and C. David Sherrill          
	 --------------------------------------------------------

   => Auxiliary Basis Set <=

  Basis Set: (AUG-CC-PVTZ AUX)
    Blend: AUG-CC-PVTZ-RI
    Number of shells: 490
    Number of basis function: 1792
    Number of Cartesian functions: 2263
    Spherical Harmonics?: true
    Max angular momentum: 4

	 --------------------------------------------------------
	                 NBF =   805, NAUX =  1792
	 --------------------------------------------------------
	   CLASS    FOCC     OCC    AOCC    AVIR     VIR    FVIR
	   PAIRS       0      45      45     760     760       0
	 --------------------------------------------------------


         ------------------------------------------------------------
                                     CPHF                           
                                  Rob Parrish                       
         ------------------------------------------------------------

  ==> Geometry <==

    Molecular point group: c1
    Full point group: C1

    Geometry (in Angstrom), charge = 0, multiplicity = 1:

       Center              X                  Y                   Z               Mass       
    ------------   -----------------  -----------------  -----------------  -----------------
           C         -1.248024030814     0.711661203358    -0.583427900479    12.000000000000
           C         -0.255024030814     0.095661203358     1.530572099521    12.000000000000
           C         -2.326024030814     1.284661203358     0.089572099521    12.000000000000
           C         -1.333024030814     0.668661203358     2.204572099521    12.000000000000
           C          0.728975969186    -1.025338796642    -1.827427900479    12.000000000000
           C          2.164975969186    -0.502338796642     0.029572099521    12.000000000000
           C          1.831975969186    -1.581338796642    -2.454427900479    12.000000000000
           C          3.203975969186    -1.081338796642    -0.680427900479    12.000000000000
           C         -0.212024030814     0.116661203358     0.136572099521    12.000000000000
           C          0.906975969186    -0.477338796642    -0.561427900479    12.000000000000
           C         -2.369024030814     1.263661203358     1.483572099521    12.000000000000
           N          3.068975969186    -1.624338796642    -1.911427900479    14.003074004780
           O         -3.421024030814     1.823661203358     2.140572099521    15.994914619560
           H         -1.229024030814     0.735661203358    -1.670427900479     1.007825032070
           H          0.544975969186    -0.364338796642     2.106572099521     1.007825032070
           H         -3.130024030814     1.746661203358    -0.477427900479     1.007825032070
           H         -1.361024030814     0.649661203358     3.290572099521     1.007825032070
           H         -0.238024030814    -1.024338796642    -2.321427900479     1.007825032070
           H          2.341975969186    -0.085338796642     1.015572099521     1.007825032070
           H          1.745975969186    -2.020338796642    -3.443427900479     1.007825032070
           H          4.203975969186    -1.127338796642    -0.263427900479     1.007825032070
           H         -4.249024030814     1.387661203358     1.882572099521     1.007825032070

  Nuclear repulsion =  698.505167868280068
  Reference energy  = -551.282495212435379

  ==> Basis Set <==

  Basis Set: AUG-CC-PVTZ
    Blend: AUG-CC-PVTZ
    Number of shells: 263
    Number of basis function: 805
    Number of Cartesian functions: 940
    Spherical Harmonics?: true
    Max angular momentum: 3

  ==> CGRSolver (by Rob Parrish) <==

   Number of roots    =         1
   Preconditioning    =    JACOBI
   Convergence cutoff =     1E-06
   Maximum iterations =       100

  ==> CPHFRHamiltonian (by Rob Parrish) <== 

  ==> DFJK: Density-Fitted J/K Matrices <==

    J tasked:                  Yes
    K tasked:                  Yes
    wK tasked:                  No
    OpenMP threads:              8
    Integrals threads:           8
    Memory (MB):              3576
    Algorithm:                Disk
    Integral Cache:           NONE
    Schwarz Cutoff:          1E-12
    Fitting Condition:       1E-12

   => Auxiliary Basis Set <=

  Basis Set: (AUG-CC-PVTZ AUX)
    Blend: AUG-CC-PVTZ-JKFIT
    Number of shells: 516
    Number of basis function: 1766
    Number of Cartesian functions: 2198
    Spherical Harmonics?: true
    Max angular momentum: 4

  ==> CPHF Iterations <==

  => Iterations <=

             Iter  Converged  Remaining    Residual
  CGR           1          0          1   8.635E-02
  CGR           2          0          1   3.480E-02
  CGR           3          0          1   2.444E-02
  CGR           4          0          1   1.006E-02
  CGR           5          0          1   3.875E-03
  CGR           6          0          1   1.607E-03
  CGR           7          0          1   4.832E-04
  CGR           8          0          1   1.795E-04
  CGR           9          0          1   9.136E-05
  CGR          10          0          1   3.928E-05
  CGR          11          0          1   1.340E-05
  CGR          12          0          1   4.973E-06
  CGR          13          0          1   1.446E-06
  CGR          14          1          0   4.651E-07

    CGRSolver converged.

  ==> DFCorrGrad: Density-Fitted Correlated Gradients <==

    OpenMP threads:              8
    Integrals threads:           8
    Memory (MB):              3576
    Schwarz Cutoff:          0E+00
    Fitting Condition:       1E-12

   => Auxiliary Basis Set <=

  Basis Set: (AUG-CC-PVTZ AUX)
    Blend: AUG-CC-PVTZ-JKFIT
    Number of shells: 516
    Number of basis function: 1766
    Number of Cartesian functions: 2198
    Spherical Harmonics?: true
    Max angular momentum: 4

	-----------------------------------------------------------
	 ==================> DF-MP2 Energies <==================== 
	-----------------------------------------------------------
	 Reference Energy          =    -551.2824952124353786 [Eh]
	 Singles Energy            =      -0.0000000000000001 [Eh]
	 Same-Spin Energy          =      -0.6048314648348703 [Eh]
	 Opposite-Spin Energy      =      -1.8304652425399306 [Eh]
	 Correlation Energy        =      -2.4352967073748006 [Eh]
	 Total Energy              =    -553.7177919198102245 [Eh]
	-----------------------------------------------------------
	 ================> DF-SCS-MP2 Energies <================== 
	-----------------------------------------------------------
	 SCS Same-Spin Scale       =       0.3333333333333333 [-]
	 SCS Opposite-Spin Scale   =       1.2000000000000000 [-]
	 SCS Same-Spin Energy      =      -0.2016104882782901 [Eh]
	 SCS Opposite-Spin Energy  =      -2.1965582910479164 [Eh]
	 SCS Correlation Energy    =      -2.3981687793262063 [Eh]
	 SCS Total Energy          =    -553.6806639917615485 [Eh]
	-----------------------------------------------------------


  -Total Gradient:
     Atom            X                  Y                   Z
    ------   -----------------  -----------------  -----------------
       1        0.009442887720    -0.002178764117    -0.006294164505
       2        0.008374250438    -0.008482563971    -0.004040366966
       3       -0.005706997809     0.003092079346     0.003811804699
       4       -0.003224730332    -0.000832077864     0.000403671183
       5       -0.009882353709     0.001533267379     0.002160938040
       6       -0.004854848780     0.006197809693     0.006930576789
       7       -0.012664082945     0.002180207695    -0.000200356166
       8       -0.003128472884     0.006978934690     0.011052831121
       9        0.002990369688    -0.001630509799    -0.002110782496
      10        0.004185917280    -0.001837610971    -0.001698719409
      11       -0.005237328820     0.010116023255     0.010275616123
      12        0.012490541657    -0.006996354790    -0.008158458208
      13        0.013432254501    -0.000611075299    -0.010145734880
      14       -0.001571557327    -0.001020399804    -0.006322486647
      15        0.005436778698    -0.000963110259     0.004242281325
      16       -0.002920650729     0.000898501358    -0.004630495280
      17        0.002790061886    -0.000937912412     0.005300904685
      18       -0.004518927386     0.001182864499    -0.003939729319
      19        0.001101719454     0.000249409913     0.005524525966
      20        0.000485846136    -0.001042045065    -0.002866849848
      21        0.002326557209    -0.000741645094     0.000449078798
      22       -0.009347233946    -0.005155028376     0.000255914994


*** tstop() called on gpu-1-8.local at Sun Nov 12 15:23:49 2017
Module time:
	user time   =    5265.95 seconds =      87.77 minutes
	system time =     107.04 seconds =       1.78 minutes
	total time  =       2430 seconds =      40.50 minutes
Total time:
	user time   =    5265.95 seconds =      87.77 minutes
	system time =     107.04 seconds =       1.78 minutes
	total time  =       2430 seconds =      40.50 minutes

			-----------------------------------------
			 OPTKING 2.0: for geometry optimizations 
			  - R.A. King,  Bethel University        
			-----------------------------------------

	Internal coordinates to be generated automatically.
	Detected frag 1 with atoms:  1 2 3 4 5 6 7 8 9 10 11 12 13 14 15 16 17 18 19 20
	 21 22
	---Fragment 1 Bond Connectivity---
	 1 : 3 9 14
	 2 : 4 9 15
	 3 : 1 11 16
	 4 : 2 11 17
	 5 : 7 10 18
	 6 : 8 10 19
	 7 : 5 12 20
	 8 : 6 12 21
	 9 : 1 2 10
	 10 : 5 6 9
	 11 : 3 4 13
	 12 : 7 8
	 13 : 11 22
	 14 : 1
	 15 : 2
	 16 : 3
	 17 : 4
	 18 : 5
	 19 : 6
	 20 : 7
	 21 : 8
	 22 : 13

	Assuming in current code that numbering for constraints corresponds to unified fragment.
	Fixed dihedral atom list: 
	     3    11    13    22
	---Fragment 1 Geometry and Gradient---
	 C          -2.3584236255        1.3448447737       -1.1025189502
	 C          -0.4819255755        0.1807734759        2.8923620947
	 C          -4.3955483967        2.4276578479        0.1692667372
	 C          -2.5190503468        1.2635865500        4.1660375083
	 C           1.3775649392       -1.9376095191       -3.4533382595
	 C           4.0912116660       -0.9492827516        0.0558831693
	 C           3.4619328638       -2.9882972490       -4.6381965448
	 C           6.0546371181       -2.0434341825       -1.2858223851
	 C          -0.4006673518        0.2204577247        0.2580838655
	 C           1.7139361909       -0.9020395983       -1.0609449753
	 C          -4.4768066205        2.3879735991        2.8035449665
	 N           5.7995240902       -3.0695554727       -3.6120752547
	 O          -6.4647985123        3.4462202335        4.0450950358
	 H          -2.3225188290        1.3901982009       -3.1566512566
	 H           1.0298553308       -0.6885005452        3.9808443473
	 H          -5.9148882076        3.3007113213       -0.9022079801
	 H          -2.5719626785        1.2276817535        6.2182800886
	 H          -0.4498002313       -1.9357197929       -4.3868629691
	 H           4.4256931916       -0.1612669542        1.9191531363
	 H           3.2994164164       -3.8178870213       -6.5071356902
	 H           7.9443632510       -2.1303615846       -0.4978065877
	 H          -8.0294917503        2.6222996396        3.5575456935
	             0.0094428877       -0.0021787641       -0.0062941645
	             0.0083742504       -0.0084825640       -0.0040403670
	            -0.0057069978        0.0030920793        0.0038118047
	            -0.0032247303       -0.0008320779        0.0004036712
	            -0.0098823537        0.0015332674        0.0021609380
	            -0.0048548488        0.0061978097        0.0069305768
	            -0.0126640829        0.0021802077       -0.0002003562
	            -0.0031284729        0.0069789347        0.0110528311
	             0.0029903697       -0.0016305098       -0.0021107825
	             0.0041859173       -0.0018376110       -0.0016987194
	            -0.0052373288        0.0101160233        0.0102756161
	             0.0124905417       -0.0069963548       -0.0081584582
	             0.0134322545       -0.0006110753       -0.0101457349
	            -0.0015715573       -0.0010203998       -0.0063224866
	             0.0054367787       -0.0009631103        0.0042422813
	            -0.0029206507        0.0008985014       -0.0046304953
	             0.0027900619       -0.0009379124        0.0053009047
	            -0.0045189274        0.0011828645       -0.0039397293
	             0.0011017195        0.0002494099        0.0055245260
	             0.0004858461       -0.0010420451       -0.0028668498
	             0.0023265572       -0.0007416451        0.0004490788
	            -0.0093472339       -0.0051550284        0.0002559150

	Previous optimization step data not found.  Starting new optimization.

	---Fragment 1 Intrafragment Coordinates---
	 - Coordinate -           - BOHR/RAD -       - ANG/DEG -
	 R(1,3)           =         2.634350	       1.394038
	 R(1,9)           =         2.635962	       1.394891
	 R(1,14)          =         2.054947	       1.087431
	 R(2,4)           =         2.635263	       1.394521
	 R(2,9)           =         2.635830	       1.394821
	 R(2,15)          =         2.055702	       1.087831
	 R(3,11)          =         2.635830	       1.394821
	 R(3,16)          =         2.053941	       1.086899
	 R(4,11)          =         2.636938	       1.395407
	 R(4,17)          =         2.053239	       1.086527
	 R(5,7)           =         2.617713	       1.385234
	 R(5,10)          =         2.628516	       1.390951
	 R(5,18)          =         2.052008	       1.085876
	 R(6,8)           =         2.617705	       1.385230
	 R(6,10)          =         2.626971	       1.390133
	 R(6,19)          =         2.050517	       1.085087
	 R(7,12)          =         2.554185	       1.351616
	 R(7,20)          =         2.051235	       1.085467
	 R(8,12)          =         2.555281	       1.352196
	 R(8,21)          =         2.049290	       1.084438
	 R(9,10)          =         2.733384	       1.446444
	 R(11,13)         =         2.571662	       1.360865
	 R(13,22)         =         1.834343	       0.970693
	 B(1,3,11)        =         2.094553	     120.009056
	 B(1,3,16)        =         2.088505	     119.662516
	 B(1,9,2)         =         2.093692	     119.959722
	 B(1,9,10)        =         2.095161	     120.043881
	 B(2,4,11)        =         2.093699	     119.960108
	 B(2,4,17)        =         2.089577	     119.723926
	 B(2,9,10)        =         2.094332	     119.996376
	 B(3,1,9)         =         2.094940	     120.031219
	 B(3,1,14)        =         2.079469	     119.144799
	 B(3,11,4)        =         2.094306	     119.994870
	 B(3,11,13)       =         2.094549	     120.008801
	 B(4,2,9)         =         2.095181	     120.045019
	 B(4,2,15)        =         2.078675	     119.099297
	 B(4,11,13)       =         2.094331	     119.996326
	 B(5,7,12)        =         2.164774	     124.032419
	 B(5,7,20)        =         2.107900	     120.773750
	 B(5,10,6)        =         2.089402	     119.713913
	 B(5,10,9)        =         2.096711	     120.132663
	 B(6,8,12)        =         2.164670	     124.026428
	 B(6,8,21)        =         2.108649	     120.816676
	 B(6,10,9)        =         2.097073	     120.153413
	 B(7,5,10)        =         2.058056	     117.917911
	 B(7,5,18)        =         2.098486	     120.234396
	 B(7,12,8)        =         2.031222	     116.380442
	 B(8,6,10)        =         2.058246	     117.928826
	 B(8,6,19)        =         2.099051	     120.266760
	 B(9,1,14)        =         2.108776	     120.823969
	 B(9,2,15)        =         2.109330	     120.855683
	 B(10,5,18)       =         2.126643	     121.847689
	 B(10,6,19)       =         2.125888	     121.804412
	 B(11,3,16)       =         2.100127	     120.328425
	 B(11,4,17)       =         2.099910	     120.315955
	 B(11,13,22)      =         1.924367	     110.258129
	 B(12,7,20)       =         2.010511	     115.193804
	 B(12,8,21)       =         2.009864	     115.156734
	 D(1,3,11,4)      =        -0.000325	      -0.018609
	 D(1,3,11,13)     =         3.140978	     179.964785
	 D(1,9,2,4)       =         0.000325	       0.018608
	 D(1,9,2,15)      =        -3.141497	    -179.994534
	 D(1,9,10,5)      =        -0.524224	     -30.035797
	 D(1,9,10,6)      =         2.616694	     149.925506
	 D(2,4,11,3)      =         0.000301	       0.017261
	 D(2,4,11,13)     =        -3.141002	    -179.966135
	 D(2,9,1,3)       =        -0.000348	      -0.019945
	 D(2,9,1,14)      =        -3.141221	    -179.978731
	 D(2,9,10,5)      =         2.618285	     150.016707
	 D(2,9,10,6)      =        -0.523983	     -30.021991
	 D(3,1,9,10)      =        -3.141025	    -179.967461
	 D(3,11,4,17)     =         3.141223	     179.978848
	 D(3,11,13,22)    =         1.047832	      60.036330
	 D(4,2,9,10)      =         3.141002	     179.966149
	 D(4,11,3,16)     =         3.141593	     180.000000
	 D(4,11,13,22)    =        -2.094051	    -119.980276
	 D(5,7,12,8)      =        -0.001332	      -0.076323
	 D(5,10,6,8)      =         0.000381	       0.021838
	 D(5,10,6,19)     =        -3.140989	    -179.965395
	 D(6,8,12,7)      =         0.001671	       0.095732
	 D(6,10,5,7)      =        -0.000077	      -0.004437
	 D(6,10,5,18)     =        -3.141299	    -179.983151
	 D(7,5,10,9)      =         3.140843	     179.957036
	 D(7,12,8,21)     =         3.140716	     179.949799
	 D(8,6,10,9)      =        -3.140539	    -179.939628
	 D(8,12,7,20)     =         3.139212	     179.863574
	 D(9,1,3,11)      =         0.000348	       0.019955
	 D(9,1,3,16)      =        -3.141571	    -179.998735
	 D(9,2,4,11)      =        -0.000301	      -0.017270
	 D(9,2,4,17)      =        -3.141228	    -179.979086
	 D(9,10,5,18)     =        -0.000378	      -0.021678
	 D(9,10,6,19)     =         0.001277	       0.073140
	 D(10,5,7,12)     =         0.000580	       0.033223
	 D(10,5,7,20)     =        -3.139908	    -179.903478
	 D(10,6,8,12)     =        -0.001235	      -0.070741
	 D(10,6,8,21)     =        -3.140143	    -179.916933
	 D(10,9,1,14)     =         0.001287	       0.073752
	 D(10,9,2,15)     =        -0.000820	      -0.046992
	 D(11,3,1,14)     =         3.141234	     179.979432
	 D(11,4,2,15)     =         3.141517	     179.995641
	 D(12,7,5,18)     =        -3.141378	    -179.987706
	 D(12,8,6,19)     =         3.140139	     179.916697
	 D(13,11,3,16)    =        -0.000286	      -0.016400
	 D(13,11,4,17)    =        -0.000079	      -0.004548
	 D(14,1,3,16)     =        -0.000685	      -0.039257
	 D(15,2,4,17)     =         0.000590	       0.033826
	 D(18,5,7,20)     =         0.001319	       0.075593
	 D(19,6,8,21)     =         0.001231	       0.070505

	Current energy   :      -553.7177919198

	Generating empirical Hessian (Schlegel '84) for each fragment.
	Adding user-defined constraint: Fragment 1; Coordinate 73:
		Value =     1.047832; Fixed value    =     1.047198
		Force =    -0.000317; Force constant =     0.500000
	Removing off-diagonal coupling between coordinate 73 and others.
	Taking RFO optimization step.
	Going to follow RFO solution 1.
	Using RFO vector 1.

	Determining step-restricting scale parameter for RS-RFO.
	Maximum step size allowed    0.10000

	 Iter      |step|        alpha        rfo_root  
	------------------------------------------------
	    0     0.30463       1.00000           1
	    1     0.20528       3.63423           1
	    2     0.15207       9.24470           1
	    3     0.12159      19.60676           1
	    4     0.10559      31.40681           1
	    5     0.10051      36.84967           1
	    6     0.10000      37.45336           1
	------------------------------------------------
	Norm of target step-size    0.10000
	Projected energy change by RFO approximation:        -0.0047033781

	Back-transformation to cartesian coordinates...
	Could not converge backtransformation.
	Using first guess instead.

	--- Internal Coordinate Step in ANG or DEG, aJ/ANG or AJ/DEG ---
	 ---------------------------------------------------------------------------
	   Coordinate                Previous        Force       Change         New 
	   ----------                --------       ------       ------       ------
	    1 R(1,3)          =      1.394038    -0.053839    -0.005373     1.388665
	    2 R(1,9)          =      1.394891    -0.005982    -0.000348     1.394543
	    3 R(1,14)         =      1.087431    -0.051656    -0.006280     1.081151
	    4 R(2,4)          =      1.394521    -0.054439    -0.005508     1.389013
	    5 R(2,9)          =      1.394821    -0.002386     0.000020     1.394841
	    6 R(2,15)         =      1.087831    -0.054803    -0.006687     1.081143
	    7 R(3,11)         =      1.394821    -0.047179    -0.004846     1.389975
	    8 R(3,16)         =      1.086899    -0.040846    -0.004943     1.081955
	    9 R(4,11)         =      1.395407    -0.079254    -0.008152     1.387255
	   10 R(4,17)         =      1.086527    -0.043195    -0.005234     1.081293
	   11 R(5,7)          =      1.385234     0.001506     0.000129     1.385363
	   12 R(5,10)         =      1.390951     0.003707     0.001002     1.391953
	   13 R(5,18)         =      1.085876    -0.047931    -0.005784     1.080091
	   14 R(6,8)          =      1.385230     0.002007     0.000186     1.385416
	   15 R(6,10)         =      1.390133     0.008958     0.001460     1.391593
	   16 R(6,19)         =      1.085087    -0.043628    -0.005266     1.079821
	   17 R(7,12)         =      1.351616    -0.122732    -0.011265     1.340351
	   18 R(7,20)         =      1.085467    -0.024676    -0.002987     1.082480
	   19 R(8,12)         =      1.352196    -0.126416    -0.011610     1.340586
	   20 R(8,21)         =      1.084438    -0.019356    -0.002322     1.082115
	   21 R(9,10)         =      1.446444     0.155009     0.017771     1.464215
	   22 R(11,13)        =      1.360865     0.084902     0.007909     1.368774
	   23 R(13,22)        =      0.970693    -0.084204    -0.007627     0.963065
	   24 B(1,3,11)       =    120.009056     0.000109     0.169795   120.178852
	   25 B(1,3,16)       =    119.662516     0.000131     0.334432   119.996949
	   26 B(1,9,2)        =    119.959722    -0.000773    -1.344761   118.614960
	   27 B(1,9,10)       =    120.043881     0.000375     0.650387   120.694269
	   28 B(2,4,11)       =    119.960108     0.000073     0.082749   120.042858
	   29 B(2,4,17)       =    119.723926     0.000195     0.485568   120.209494
	   30 B(2,9,10)       =    119.996376     0.000399     0.694332   120.690708
	   31 B(3,1,9)        =    120.031219     0.000318     0.624720   120.655939
	   32 B(3,1,14)       =    119.144799    -0.000088    -0.153447   118.991352
	   33 B(3,11,4)       =    119.994870    -0.000141    -0.321634   119.673236
	   34 B(3,11,13)      =    120.008801     0.000494     0.906671   120.915472
	   35 B(4,2,9)        =    120.045019     0.000413     0.788560   120.833579
	   36 B(4,2,15)       =    119.099297    -0.000145    -0.258476   118.840821
	   37 B(4,11,13)      =    119.996326    -0.000353    -0.588094   119.408232
	   38 B(5,7,12)       =    124.032419     0.000041    -0.004175   124.028244
	   39 B(5,7,20)       =    120.773750    -0.000072    -0.116250   120.657499
	   40 B(5,10,6)       =    119.713913    -0.001199    -2.020648   117.693265
	   41 B(5,10,9)       =    120.132663     0.000605     1.021482   121.154145
	   42 B(6,8,12)       =    124.026428     0.000039    -0.004103   124.022324
	   43 B(6,8,21)       =    120.816676    -0.000076    -0.126314   120.690362
	   44 B(6,10,9)       =    120.153413     0.000594     0.999169   121.152581
	   45 B(7,5,10)       =    117.917911     0.000528     1.061601   118.979512
	   46 B(7,5,18)       =    120.234396    -0.000206    -0.404030   119.830366
	   47 B(7,12,8)       =    116.380442     0.000067    -0.089429   116.291013
	   48 B(8,6,10)       =    117.928826     0.000525     1.056767   118.985593
	   49 B(8,6,19)       =    120.266760    -0.000212    -0.417294   119.849466
	   50 B(9,1,14)       =    120.823969    -0.000230    -0.472335   120.351634
	   51 B(9,2,15)       =    120.855683    -0.000268    -0.531188   120.324494
	   52 B(10,5,18)      =    121.847689    -0.000322    -0.658048   121.189641
	   53 B(10,6,19)      =    121.804412    -0.000313    -0.639994   121.164419
	   54 B(11,3,16)      =    120.328425    -0.000240    -0.504342   119.824083
	   55 B(11,4,17)      =    120.315955    -0.000269    -0.568310   119.747645
	   56 B(11,13,22)     =    110.258129    -0.000251    -0.569593   109.688537
	   57 B(12,7,20)      =    115.193804     0.000032     0.120415   115.314219
	   58 B(12,8,21)      =    115.156734     0.000037     0.130580   115.287314
	   59 D(1,3,11,4)     =     -0.018609     0.000014     0.266177     0.247569
	   60 D(1,3,11,13)    =    179.964785    -0.000019    -0.357281   179.607505
	   61 D(1,9,2,4)      =      0.018608     0.000008     0.136331     0.154939
	   62 D(1,9,2,15)     =   -179.994534    -0.000014    -0.237476  -180.232009
	   63 D(1,9,10,5)     =    -30.035797    -0.000029    -0.522138   -30.557935
	   64 D(1,9,10,6)     =    149.925506    -0.000029    -0.517287   149.408219
	   65 D(2,4,11,3)     =      0.017261    -0.000004    -0.089827    -0.072565
	   66 D(2,4,11,13)    =   -179.966135     0.000029     0.523922  -179.442213
	   67 D(2,9,1,3)      =     -0.019945     0.000003     0.041237     0.021292
	   68 D(2,9,1,14)     =   -179.978731    -0.000022    -0.380922  -180.359653
	   69 D(2,9,10,5)     =    150.016707    -0.000027    -0.482011   149.534696
	   70 D(2,9,10,6)     =    -30.021991    -0.000027    -0.477160   -30.499150
	   71 D(3,1,9,10)     =   -179.967461     0.000005     0.079493  -179.887969
	   72 D(3,11,4,17)    =    179.978848    -0.000003    -0.072978   179.905870
	   73 D(3,11,13,22)   =     60.036330    -0.000013    -0.081204    59.955126
	   74 D(4,2,9,10)     =    179.966149     0.000006     0.098054   180.064203
	   75 D(4,11,3,16)    =    180.000000     0.000021     0.371752   180.371752
	   76 D(4,11,13,22)   =   -119.980276    -0.000046    -0.702986  -120.683263
	   77 D(5,7,12,8)     =     -0.076323     0.000001     0.019293    -0.057029
	   78 D(5,10,6,8)     =      0.021838    -0.000000     0.000238     0.022076
	   79 D(5,10,6,19)    =   -179.965395    -0.000016    -0.275861  -180.241257
	   80 D(6,8,12,7)     =      0.095732    -0.000001    -0.009775     0.085957
	   81 D(6,10,5,7)     =     -0.004437     0.000001     0.008566     0.004129
	   82 D(6,10,5,18)    =   -179.983151    -0.000016    -0.265517  -180.248668
	   83 D(7,5,10,9)     =    179.957036     0.000001     0.014381   179.971417
	   84 D(7,12,8,21)    =    179.949799     0.000008     0.140785   180.090583
	   85 D(8,6,10,9)     =   -179.939628    -0.000000    -0.005584  -179.945212
	   86 D(8,12,7,20)    =    179.863574     0.000009     0.150168   180.013742
	   87 D(9,1,3,11)     =      0.019955    -0.000014    -0.242652    -0.222698
	   88 D(9,1,3,16)     =   -179.998735    -0.000020    -0.348362  -180.347097
	   89 D(9,2,4,11)     =     -0.017270    -0.000007    -0.112843    -0.130113
	   90 D(9,2,4,17)     =   -179.979086    -0.000008    -0.129362  -180.108448
	   91 D(9,10,5,18)    =     -0.021678    -0.000015    -0.259702    -0.281380
	   92 D(9,10,6,19)    =      0.073140    -0.000017    -0.281684    -0.208545
	   93 D(10,5,7,12)    =      0.033223    -0.000001    -0.019194     0.014029
	   94 D(10,5,7,20)    =   -179.903478    -0.000009    -0.156863  -180.060342
	   95 D(10,6,8,12)    =     -0.070741    -0.000000    -0.000039    -0.070780
	   96 D(10,6,8,21)    =   -179.916933    -0.000009    -0.158711  -180.075644
	   97 D(10,9,1,14)    =      0.073752    -0.000020    -0.342667    -0.268914
	   98 D(10,9,2,15)    =     -0.046992    -0.000016    -0.275753    -0.322745
	   99 D(11,3,1,14)    =    179.979432     0.000011     0.173697   180.153129
	  100 D(11,4,2,15)    =    179.995641     0.000015     0.255547   180.251188
	  101 D(12,7,5,18)    =   -179.987706     0.000015     0.251022  -179.736684
	  102 D(12,8,6,19)    =    179.916697     0.000016     0.272319   180.189016
	  103 D(13,11,3,16)   =     -0.016400    -0.000013    -0.251912    -0.268312
	  104 D(13,11,4,17)   =     -0.004548     0.000030     0.540770     0.536222
	  105 D(14,1,3,16)    =     -0.039257     0.000004     0.067987     0.028730
	  106 D(15,2,4,17)    =      0.033826     0.000014     0.239028     0.272853
	  107 D(18,5,7,20)    =      0.075593     0.000007     0.113352     0.188945
	  108 D(19,6,8,21)    =      0.070505     0.000007     0.113647     0.184152
	 ---------------------------------------------------------------------------
	Successfully symmetrized geometry.
	 Forces used to impose fixed constraints are not included.
	  Forces zeroed: 73 

  ==> Convergence Check <==

  Measures of convergence in internal coordinates in au.
  Criteria marked as inactive (o), active & met (*), and active & unmet ( ).
  --------------------------------------------------------------------------------------------- ~
   Step     Total Energy     Delta E     MAX Force     RMS Force      MAX Disp      RMS Disp    ~
  --------------------------------------------------------------------------------------------- ~
    Convergence Criteria    1.00e-06 *    3.00e-04 *             o    1.20e-03 *             o  ~
  --------------------------------------------------------------------------------------------- ~
      1    -553.71779192   -5.54e+02      1.88e-02      4.67e-03 o    3.53e-02      9.61e-03 o  ~
  ---------------------------------------------------------------------------------------------

	Writing optimization data to binary file.
	Structure for next step:
	Cartesian Geometry (in Angstrom)
	    C    -1.2622460553   0.7221439329  -0.5678701542
	    C    -0.2831346307   0.1035838179   1.5326581425
	    C    -2.3360700259   1.2935497050   0.1020471101
	    C    -1.3579646900   0.6712680736   2.2048436335
	    C     0.7581986683  -1.0403168756  -1.8313059017
	    C     2.1806365357  -0.5108768848   0.0046815487
	    C     1.8617200327  -1.5959542115  -2.4579947583
	    C     3.2216413567  -1.0893710823  -0.7031544035
	    C    -0.2219552876   0.1200497873   0.1392564226
	    C     0.9118821224  -0.4805431757  -0.5661708028
	    C    -2.3874191450   1.2669769050   1.4908188550
	    N     3.0893924173  -1.6331211980  -1.9213567659
	    O    -3.4346776100   1.8325618210   2.1667672635
	    H    -1.2406452520   0.7559285177  -1.6482773448
	    H     0.5064344894  -0.3591287799   2.1082871048
	    H    -3.1346836877   1.7628430520  -0.4570661689
	    H    -1.3959366977   0.6512673916   3.2852849194
	    H    -0.2022392302  -1.0510370400  -2.3253113386
	    H     2.3639847635  -0.0893943803   0.9817945498
	    H     1.7728527158  -2.0394270340  -3.4414563889
	    H     4.2194489259  -1.1268397802  -0.2860817924
	    H    -4.2577483933   1.4063839124   1.9051924595
			--------------------------
			 OPTKING Finished Execution 
			--------------------------

    Structure for next step:
    Molecular point group: c1
    Full point group: C1

    Geometry (in Angstrom), charge = 0, multiplicity = 1:

    C           -1.262058065761     0.722851433295    -0.568158905480
    C           -0.282946641213     0.104291318215     1.532369391294
    C           -2.335882036370     1.294257205351     0.101758358873
    C           -1.357776700484     0.671975573909     2.204554882273
    C            0.758386657802    -1.039609375239    -1.831594652947
    C            2.180824525202    -0.510169384488     0.004392797427
    C            1.861908022214    -1.595246711110    -2.458283509559
    C            3.221829346191    -1.088663581963    -0.703443154726
    C           -0.221767298054     0.120757287624     0.138967671377
    C            0.912070111954    -0.479835675361    -0.566459554011
    C           -2.387231155526     1.267684405366     1.490530103712
    N            3.089580406819    -1.632413697623    -1.921645517163
    O           -3.434489620439     1.833269321309     2.166478512207
    H           -1.240457262517     0.756636018057    -1.648566096075
    H            0.506622478880    -0.358421279564     2.107998353504
    H           -3.134495698138     1.763550552311    -0.457354920183
    H           -1.395748708155     0.651974891979     3.284996168165
    H           -0.202051240724    -1.050329539688    -2.325600089821
    H            2.364172753015    -0.088686879919     0.981505798558
    H            1.773040705296    -2.038719533657    -3.441745140152
    H            4.219636915412    -1.126132279828    -0.286370543642
    H           -4.257560403818     1.407091412734     1.904903708267

gradient() will perform analytic gradient computation.

*** tstart() called on gpu-1-8.local
*** at Sun Nov 12 15:23:50 2017

    SCF Algorithm Type (re)set to DF.

*** tstart() called on gpu-1-8.local
*** at Sun Nov 12 15:23:50 2017

   => Loading Basis Set <=

    Name: AUG-CC-PVTZ
    Role: ORBITAL
    Keyword: BASIS
    atoms 1-11  entry C          line   221 file /cbio/jclab/home/chayas/anaconda/envs/py35/share/psi4/basis/aug-cc-pvtz.gbs 
    atoms 12    entry N          line   267 file /cbio/jclab/home/chayas/anaconda/envs/py35/share/psi4/basis/aug-cc-pvtz.gbs 
    atoms 13    entry O          line   313 file /cbio/jclab/home/chayas/anaconda/envs/py35/share/psi4/basis/aug-cc-pvtz.gbs 
    atoms 14-22 entry H          line    34 file /cbio/jclab/home/chayas/anaconda/envs/py35/share/psi4/basis/aug-cc-pvtz.gbs 


         ---------------------------------------------------------
                                   SCF
            by Justin Turney, Rob Parrish, and Andy Simmonett
                              RHF Reference
                        8 Threads,   4768 MiB Core
         ---------------------------------------------------------

  ==> Geometry <==

    Molecular point group: c1
    Full point group: C1

    Geometry (in Angstrom), charge = 0, multiplicity = 1:

       Center              X                  Y                   Z               Mass       
    ------------   -----------------  -----------------  -----------------  -----------------
           C         -1.262058065761     0.722851433295    -0.568158905480    12.000000000000
           C         -0.282946641213     0.104291318215     1.532369391294    12.000000000000
           C         -2.335882036370     1.294257205351     0.101758358873    12.000000000000
           C         -1.357776700484     0.671975573909     2.204554882273    12.000000000000
           C          0.758386657802    -1.039609375239    -1.831594652947    12.000000000000
           C          2.180824525202    -0.510169384488     0.004392797427    12.000000000000
           C          1.861908022214    -1.595246711110    -2.458283509559    12.000000000000
           C          3.221829346191    -1.088663581963    -0.703443154726    12.000000000000
           C         -0.221767298054     0.120757287624     0.138967671377    12.000000000000
           C          0.912070111954    -0.479835675361    -0.566459554011    12.000000000000
           C         -2.387231155526     1.267684405366     1.490530103712    12.000000000000
           N          3.089580406819    -1.632413697623    -1.921645517163    14.003074004780
           O         -3.434489620439     1.833269321309     2.166478512207    15.994914619560
           H         -1.240457262517     0.756636018057    -1.648566096075     1.007825032070
           H          0.506622478880    -0.358421279564     2.107998353504     1.007825032070
           H         -3.134495698138     1.763550552311    -0.457354920183     1.007825032070
           H         -1.395748708155     0.651974891979     3.284996168165     1.007825032070
           H         -0.202051240724    -1.050329539688    -2.325600089821     1.007825032070
           H          2.364172753015    -0.088686879919     0.981505798558     1.007825032070
           H          1.773040705296    -2.038719533657    -3.441745140152     1.007825032070
           H          4.219636915412    -1.126132279828    -0.286370543642     1.007825032070
           H         -4.257560403818     1.407091412734     1.904903708267     1.007825032070

  Running in c1 symmetry.

  Rotational constants: A =      0.09842  B =      0.01333  C =      0.01194 [cm^-1]
  Rotational constants: A =   2950.44719  B =    399.54896  C =    358.01165 [MHz]
  Nuclear repulsion =  697.386846919557115

  Charge       = 0
  Multiplicity = 1
  Electrons    = 90
  Nalpha       = 45
  Nbeta        = 45

  ==> Algorithm <==

  SCF Algorithm Type is DF.
  DIIS enabled.
  MOM disabled.
  Fractional occupation disabled.
  Guess Type is READ.
  Energy threshold   = 1.00e-10
  Density threshold  = 1.00e-10
  Integral threshold = 0.00e+00

  ==> Primary Basis <==

  Basis Set: AUG-CC-PVTZ
    Blend: AUG-CC-PVTZ
    Number of shells: 263
    Number of basis function: 805
    Number of Cartesian functions: 940
    Spherical Harmonics?: true
    Max angular momentum: 3

   => Loading Basis Set <=

    Name: (AUG-CC-PVTZ AUX)
    Role: JKFIT
    Keyword: DF_BASIS_SCF
    atoms 1-11  entry C          line   161 file /cbio/jclab/home/chayas/anaconda/envs/py35/share/psi4/basis/aug-cc-pvtz-jkfit.gbs 
    atoms 12    entry N          line   223 file /cbio/jclab/home/chayas/anaconda/envs/py35/share/psi4/basis/aug-cc-pvtz-jkfit.gbs 
    atoms 13    entry O          line   285 file /cbio/jclab/home/chayas/anaconda/envs/py35/share/psi4/basis/aug-cc-pvtz-jkfit.gbs 
    atoms 14-22 entry H          line    69 file /cbio/jclab/home/chayas/anaconda/envs/py35/share/psi4/basis/aug-cc-pvtz-jkfit.gbs 

  Reading orbitals from file 180, no projection.

  ==> Pre-Iterations <==

   -------------------------------------------------------
    Irrep   Nso     Nmo     Nalpha   Nbeta   Ndocc  Nsocc
   -------------------------------------------------------
     A        805     805       0       0       0       0
   -------------------------------------------------------
    Total     805     805      45      45      45       0
   -------------------------------------------------------

  ==> Integral Setup <==

  ==> DFJK: Density-Fitted J/K Matrices <==

    J tasked:                  Yes
    K tasked:                  Yes
    wK tasked:                  No
    OpenMP threads:              8
    Integrals threads:           8
    Memory (MB):              3576
    Algorithm:                Disk
    Integral Cache:           NONE
    Schwarz Cutoff:          1E-12
    Fitting Condition:       1E-12

   => Auxiliary Basis Set <=

  Basis Set: (AUG-CC-PVTZ AUX)
    Blend: AUG-CC-PVTZ-JKFIT
    Number of shells: 516
    Number of basis function: 1766
    Number of Cartesian functions: 2198
    Spherical Harmonics?: true
    Max angular momentum: 4

  Minimum eigenvalue in the overlap matrix is 6.0773562337E-07.
  Using Symmetric Orthogonalization.

  SCF Guess: Orbitals guess was supplied from a previous computation.

  ==> Iterations <==

                           Total Energy        Delta E     RMS |[F,P]|

   @DF-RHF iter   0:  -551.43093972505437   -5.51431e+02   5.22134e-04 
   @DF-RHF iter   1:  -551.28650488384187    1.44435e-01   1.34179e-04 
   @DF-RHF iter   2:  -551.28743324634104   -9.28362e-04   1.20525e-04 DIIS
   @DF-RHF iter   3:  -551.28832576114598   -8.92515e-04   1.80946e-05 DIIS
   @DF-RHF iter   4:  -551.28834020916759   -1.44480e-05   5.07354e-06 DIIS
   @DF-RHF iter   5:  -551.28834268686239   -2.47769e-06   9.41303e-07 DIIS
   @DF-RHF iter   6:  -551.28834302929181   -3.42429e-07   7.42275e-07 DIIS
   @DF-RHF iter   7:  -551.28834314700407   -1.17712e-07   3.59435e-07 DIIS
   @DF-RHF iter   8:  -551.28834317924782   -3.22437e-08   1.63365e-07 DIIS
   @DF-RHF iter   9:  -551.28834318530039   -6.05257e-09   5.76816e-08 DIIS
   @DF-RHF iter  10:  -551.28834318614963   -8.49241e-10   2.13388e-08 DIIS
   @DF-RHF iter  11:  -551.28834318627378   -1.24146e-10   4.87576e-09 DIIS
   @DF-RHF iter  12:  -551.28834318628662   -1.28466e-11   3.24657e-09 DIIS
   @DF-RHF iter  13:  -551.28834318630084   -1.42109e-11   1.63200e-09 DIIS
   @DF-RHF iter  14:  -551.28834318627344    2.73985e-11   7.71480e-10 DIIS
   @DF-RHF iter  15:  -551.28834318627344    0.00000e+00   3.17810e-10 DIIS
   @DF-RHF iter  16:  -551.28834318628515   -1.17097e-11   1.20399e-10 DIIS
   @DF-RHF iter  17:  -551.28834318627105    1.40972e-11   5.43174e-11 DIIS

  ==> Post-Iterations <==

    Orbital Energies (a.u.)
    -----------------------

    Doubly Occupied:                                                      

       1A    -20.591215     2A    -15.561543     3A    -11.307498  
       4A    -11.272988     5A    -11.272890     6A    -11.266607  
       7A    -11.252144     8A    -11.251219     9A    -11.250064  
      10A    -11.243597    11A    -11.241211    12A    -11.237053  
      13A    -11.236796    14A     -1.407997    15A     -1.255729  
      16A     -1.174854    17A     -1.105354    18A     -1.039471  
      19A     -1.029674    20A     -1.012047    21A     -0.880038  
      22A     -0.872913    23A     -0.839325    24A     -0.812442  
      25A     -0.748277    26A     -0.724566    27A     -0.683779  
      28A     -0.664575    29A     -0.650489    30A     -0.639283  
      31A     -0.633311    32A     -0.608258    33A     -0.598008  
      34A     -0.592613    35A     -0.550331    36A     -0.546657  
      37A     -0.531232    38A     -0.516284    39A     -0.509497  
      40A     -0.485223    41A     -0.418731    42A     -0.401112  
      43A     -0.354807    44A     -0.348936    45A     -0.315749  

    Virtual:                                                              

      46A      0.022532    47A      0.029294    48A      0.032006  
      49A      0.039127    50A      0.041326    51A      0.045928  
      52A      0.054158    53A      0.056726    54A      0.059905  
      55A      0.075494    56A      0.078447    57A      0.084256  
      58A      0.088666    59A      0.091374    60A      0.094017  
      61A      0.102077    62A      0.106936    63A      0.108016  
      64A      0.110598    65A      0.113658    66A      0.116673  
      67A      0.117173    68A      0.121500    69A      0.127801  
      70A      0.129631    71A      0.132197    72A      0.133226  
      73A      0.138101    74A      0.141797    75A      0.145771  
      76A      0.148461    77A      0.149673    78A      0.153538  
      79A      0.158783    80A      0.161283    81A      0.168192  
      82A      0.169961    83A      0.176445    84A      0.180960  
      85A      0.185145    86A      0.186508    87A      0.201133  
      88A      0.204044    89A      0.210970    90A      0.216086  
      91A      0.221937    92A      0.225295    93A      0.228401  
      94A      0.234970    95A      0.240892    96A      0.241703  
      97A      0.243974    98A      0.246621    99A      0.252530  
     100A      0.257215   101A      0.261979   102A      0.263943  
     103A      0.267106   104A      0.270642   105A      0.275112  
     106A      0.283246   107A      0.284935   108A      0.289553  
     109A      0.291936   110A      0.295427   111A      0.299533  
     112A      0.302803   113A      0.304721   114A      0.306926  
     115A      0.314700   116A      0.319520   117A      0.323237  
     118A      0.327287   119A      0.328416   120A      0.332488  
     121A      0.339264   122A      0.341413   123A      0.352295  
     124A      0.357845   125A      0.361580   126A      0.364106  
     127A      0.370779   128A      0.371900   129A      0.383098  
     130A      0.387720   131A      0.390090   132A      0.395672  
     133A      0.399666   134A      0.409665   135A      0.416019  
     136A      0.420694   137A      0.424617   138A      0.428673  
     139A      0.429675   140A      0.435048   141A      0.436738  
     142A      0.437905   143A      0.444793   144A      0.447120  
     145A      0.450975   146A      0.458052   147A      0.461210  
     148A      0.463009   149A      0.464744   150A      0.472762  
     151A      0.475071   152A      0.481304   153A      0.483922  
     154A      0.487167   155A      0.489952   156A      0.497663  
     157A      0.499604   158A      0.500938   159A      0.502154  
     160A      0.508811   161A      0.510095   162A      0.512454  
     163A      0.515415   164A      0.517674   165A      0.519936  
     166A      0.526967   167A      0.527654   168A      0.529693  
     169A      0.532540   170A      0.538111   171A      0.544090  
     172A      0.547017   173A      0.548346   174A      0.551723  
     175A      0.557252   176A      0.562237   177A      0.568535  
     178A      0.573878   179A      0.578552   180A      0.589468  
     181A      0.591542   182A      0.598549   183A      0.607992  
     184A      0.611620   185A      0.614106   186A      0.620493  
     187A      0.626183   188A      0.629703   189A      0.636204  
     190A      0.641034   191A      0.649936   192A      0.653828  
     193A      0.662992   194A      0.680099   195A      0.686019  
     196A      0.687730   197A      0.692903   198A      0.697836  
     199A      0.703761   200A      0.706443   201A      0.712622  
     202A      0.718530   203A      0.720956   204A      0.722613  
     205A      0.729553   206A      0.739130   207A      0.740643  
     208A      0.744585   209A      0.758269   210A      0.761801  
     211A      0.766483   212A      0.769758   213A      0.773172  
     214A      0.777895   215A      0.789964   216A      0.795188  
     217A      0.802090   218A      0.808441   219A      0.818354  
     220A      0.820731   221A      0.825805   222A      0.838619  
     223A      0.841401   224A      0.844042   225A      0.850010  
     226A      0.859886   227A      0.863934   228A      0.869322  
     229A      0.875966   230A      0.876797   231A      0.880169  
     232A      0.883949   233A      0.892367   234A      0.897877  
     235A      0.901263   236A      0.903864   237A      0.906719  
     238A      0.910256   239A      0.911702   240A      0.922655  
     241A      0.928081   242A      0.929758   243A      0.937236  
     244A      0.945642   245A      0.948944   246A      0.956222  
     247A      0.960799   248A      0.962492   249A      0.967275  
     250A      0.971488   251A      0.976787   252A      0.978919  
     253A      0.980306   254A      0.982625   255A      0.991840  
     256A      0.999008   257A      1.000441   258A      1.007987  
     259A      1.010270   260A      1.015143   261A      1.016992  
     262A      1.021788   263A      1.029472   264A      1.036826  
     265A      1.037319   266A      1.038453   267A      1.043700  
     268A      1.044903   269A      1.047503   270A      1.054208  
     271A      1.055943   272A      1.065708   273A      1.068212  
     274A      1.079375   275A      1.082447   276A      1.083734  
     277A      1.088849   278A      1.090670   279A      1.098515  
     280A      1.100064   281A      1.103703   282A      1.104934  
     283A      1.109183   284A      1.113268   285A      1.120733  
     286A      1.121324   287A      1.125355   288A      1.139815  
     289A      1.150230   290A      1.158551   291A      1.161269  
     292A      1.165754   293A      1.170292   294A      1.175414  
     295A      1.177053   296A      1.179065   297A      1.183656  
     298A      1.185653   299A      1.190415   300A      1.196738  
     301A      1.201603   302A      1.206086   303A      1.212881  
     304A      1.217405   305A      1.218034   306A      1.221273  
     307A      1.222332   308A      1.233108   309A      1.242850  
     310A      1.249401   311A      1.264163   312A      1.269707  
     313A      1.277329   314A      1.285177   315A      1.286829  
     316A      1.291753   317A      1.294784   318A      1.300215  
     319A      1.303154   320A      1.306092   321A      1.313459  
     322A      1.315254   323A      1.326498   324A      1.331974  
     325A      1.334174   326A      1.352136   327A      1.355091  
     328A      1.368240   329A      1.369700   330A      1.375778  
     331A      1.387521   332A      1.392450   333A      1.399686  
     334A      1.411593   335A      1.418764   336A      1.423539  
     337A      1.444095   338A      1.450463   339A      1.451786  
     340A      1.461495   341A      1.465825   342A      1.474681  
[...]
	 R(11,13)         =         2.599059	       1.375363
	 R(13,22)         =         1.816393	       0.961194
	 B(1,3,11)        =         2.093154	     119.928876
	 B(1,3,16)        =         2.104992	     120.607131
	 B(1,9,2)         =         2.065194	     118.326879
	 B(1,9,10)        =         2.108130	     120.786969
	 B(2,4,11)        =         2.093071	     119.924119
	 B(2,4,17)        =         2.114592	     121.157222
	 B(2,9,10)        =         2.109850	     120.885507
	 B(3,1,9)         =         2.110851	     120.942835
	 B(3,1,14)        =         2.084127	     119.411702
	 B(3,11,4)        =         2.091573	     119.838288
	 B(3,11,13)       =         2.120876	     121.517245
	 B(4,2,9)         =         2.112001	     121.008766
	 B(4,2,15)        =         2.083851	     119.395888
	 B(4,11,13)       =         2.067503	     118.459177
	 B(5,7,12)        =         2.159118	     123.708350
	 B(5,7,20)        =         2.095324	     120.053237
	 B(5,10,6)        =         2.036146	     116.662596
	 B(5,10,9)        =         2.123164	     121.648312
	 B(6,8,12)        =         2.159321	     123.719998
	 B(6,8,21)        =         2.095178	     120.044875
	 B(6,10,9)        =         2.123875	     121.689091
	 B(7,5,10)        =         2.088445	     119.659109
	 B(7,5,18)        =         2.091532	     119.835971
	 B(7,12,8)        =         2.035137	     116.604773
	 B(8,6,10)        =         2.088202	     119.645159
	 B(8,6,19)        =         2.091378	     119.827117
	 B(9,1,14)        =         2.087233	     119.589631
	 B(9,2,15)        =         2.086782	     119.563784
	 B(10,5,18)       =         2.102882	     120.486255
	 B(10,6,19)       =         2.103265	     120.508204
	 B(11,3,16)       =         2.084968	     119.459895
	 B(11,4,17)       =         2.075484	     118.916449
	 B(11,13,22)      =         1.902977	     109.032529
	 B(12,7,20)       =         2.028725	     116.237359
	 B(12,8,21)       =         2.028670	     116.234204
	 D(1,3,11,4)      =         0.036285	       2.078958
	 D(1,3,11,13)     =         3.090197	     177.055266
	 D(1,9,2,4)       =         0.012480	       0.715050
	 D(1,9,2,15)      =         3.118191	     178.659187
	 D(1,9,10,5)      =        -0.626973	     -35.922934
	 D(1,9,10,6)      =         2.514387	     144.063751
	 D(2,4,11,3)      =        -0.019741	      -1.131100
	 D(2,4,11,13)     =        -3.076321	    -176.260204
	 D(2,9,1,3)       =         0.004290	       0.245804
	 D(2,9,1,14)      =         3.098174	     177.512287
	 D(2,9,10,5)      =         2.519805	     144.374203
	 D(2,9,10,6)      =        -0.622020	     -35.639112
	 D(3,1,9,10)      =        -3.132247	    -179.464505
	 D(3,11,4,17)     =         3.131178	     179.403272
	 D(3,11,13,22)    =         1.043592	      59.793438
	 D(4,2,9,10)      =        -3.134174	    -179.574938
	 D(4,11,3,16)     =        -3.092534	    -177.189173
	 D(4,11,13,22)    =        -2.184508	    -125.163093
	 D(5,7,12,8)      =        -0.000682	      -0.039071
	 D(5,10,6,8)      =        -0.000199	      -0.011386
	 D(5,10,6,19)     =         3.113297	     178.378806
	 D(6,8,12,7)      =         0.000078	       0.004465
	 D(6,10,5,7)      =        -0.000356	      -0.020378
	 D(6,10,5,18)     =         3.113765	     178.405596
	 D(7,5,10,9)      =         3.141016	     179.966943
	 D(7,12,8,21)     =        -3.135398	    -179.645093
	 D(8,6,10,9)      =        -3.141570	    -179.998702
	 D(8,12,7,20)     =        -3.135743	    -179.664834
	 D(9,1,3,11)      =        -0.028663	      -1.642283
	 D(9,1,3,16)      =         3.100007	     177.617326
	 D(9,2,4,11)      =        -0.004790	      -0.274422
	 D(9,2,4,17)      =         3.127263	     179.178981
	 D(9,10,5,18)     =        -0.028049	      -1.607082
	 D(9,10,6,19)     =        -0.028074	      -1.608510
	 D(10,5,7,12)     =         0.000839	       0.048093
	 D(10,5,7,20)     =         3.135663	     179.660276
	 D(10,6,8,12)     =         0.000357	       0.020479
	 D(10,6,8,21)     =         3.135612	     179.657341
	 D(10,9,1,14)     =        -0.038363	      -2.198022
	 D(10,9,2,15)     =        -0.028463	      -1.630801
	 D(11,3,1,14)     =        -3.122631	    -178.913568
	 D(11,4,2,15)     =        -3.110560	    -178.221963
	 D(12,7,5,18)     =        -3.113462	    -178.388231
	 D(12,8,6,19)     =        -3.113332	    -178.380800
	 D(13,11,3,16)    =        -0.038622	      -2.212865
	 D(13,11,4,17)    =         0.074598	       4.274169
	 D(14,1,3,16)     =         0.006040	       0.346040
	 D(15,2,4,17)     =         0.021493	       1.231440
	 D(18,5,7,20)     =         0.021362	       1.223951
	 D(19,6,8,21)     =         0.021922	       1.256062

	Current energy   :      -553.7217592811

	Energy change for the previous step:
		Projected    :        -0.0000066120
		Actual       :         0.0000005785

	Performing BFGS update.
	Previous computed or guess Hessian on step 1.
	Steps to be used in Hessian update: 6 5
	Adding user-defined constraint: Fragment 1; Coordinate 73:
		Value =     1.043592; Fixed value    =     1.047200
		Force =     0.002345; Force constant =     0.650000
	Removing off-diagonal coupling between coordinate 73 and others.
	Taking RFO optimization step.
	Going to follow RFO solution 1.
	Rejecting RFO root 1 because normalization gives large value.
	Using RFO vector 2.
	Norm of target step-size    0.00735
	Projected energy change by RFO approximation:        -0.0000016361

	Back-transformation to cartesian coordinates...
	Successfully converged to displaced geometry.

	--- Internal Coordinate Step in ANG or DEG, aJ/ANG or AJ/DEG ---
	 ---------------------------------------------------------------------------
	   Coordinate                Previous        Force       Change         New 
	   ----------                --------       ------       ------       ------
	    1 R(1,3)          =      1.385247    -0.000007    -0.000015     1.385233
	    2 R(1,9)          =      1.394198    -0.000089     0.000024     1.394222
	    3 R(1,14)         =      1.079916     0.000005     0.000017     1.079933
	    4 R(2,4)          =      1.385141     0.000013    -0.000000     1.385141
	    5 R(2,9)          =      1.394188    -0.000104     0.000001     1.394189
	    6 R(2,15)         =      1.079889     0.000008     0.000030     1.079919
	    7 R(3,11)         =      1.388348     0.000051     0.000030     1.388378
	    8 R(3,16)         =      1.079791    -0.000016    -0.000004     1.079786
	    9 R(4,11)         =      1.386430    -0.000037     0.000023     1.386453
	   10 R(4,17)         =      1.078801     0.000006     0.000011     1.078812
	   11 R(5,7)          =      1.385546     0.000046     0.000008     1.385553
	   12 R(5,10)         =      1.391965    -0.000033     0.000026     1.391992
	   13 R(5,18)         =      1.079599     0.000043     0.000034     1.079633
	   14 R(6,8)          =      1.385570     0.000032     0.000004     1.385574
	   15 R(6,10)         =      1.391965    -0.000092     0.000015     1.391980
	   16 R(6,19)         =      1.079539     0.000036     0.000036     1.079575
	   17 R(7,12)         =      1.335064    -0.000143     0.000006     1.335070
	   18 R(7,20)         =      1.081134    -0.000033     0.000004     1.081138
	   19 R(8,12)         =      1.335128    -0.000150     0.000005     1.335133
	   20 R(8,21)         =      1.081113    -0.000042     0.000002     1.081115
	   21 R(9,10)         =      1.461627     0.000309    -0.000161     1.461466
	   22 R(11,13)        =      1.375363     0.000206     0.000030     1.375393
	   23 R(13,22)        =      0.961194     0.000092     0.000032     0.961226
	   24 B(1,3,11)       =    119.928876    -0.000000    -0.001678   119.927198
	   25 B(1,3,16)       =    120.607131     0.000000     0.001928   120.609059
	   26 B(1,9,2)        =    118.326879     0.000001    -0.003573   118.323306
	   27 B(1,9,10)       =    120.786969     0.000000     0.002461   120.789430
	   28 B(2,4,11)       =    119.924119    -0.000000    -0.001049   119.923071
	   29 B(2,4,17)       =    121.157222     0.000000     0.000878   121.158100
	   30 B(2,9,10)       =    120.885507    -0.000001     0.001029   120.886536
	   31 B(3,1,9)        =    120.942835    -0.000001     0.003514   120.946349
	   32 B(3,1,14)       =    119.411702     0.000000    -0.009638   119.402064
	   33 B(3,11,4)       =    119.838288     0.000000    -0.000294   119.837994
	   34 B(3,11,13)      =    121.517245    -0.000001     0.000912   121.518157
	   35 B(4,2,9)        =    121.008766    -0.000000     0.002766   121.011532
	   36 B(4,2,15)       =    119.395888     0.000000    -0.009007   119.386881
	   37 B(4,11,13)      =    118.459177     0.000000    -0.003720   118.455458
	   38 B(5,7,12)       =    123.708350    -0.000000     0.004602   123.712951
	   39 B(5,7,20)       =    120.053237     0.000001    -0.010219   120.043018
	   40 B(5,10,6)       =    116.662596     0.000001    -0.008889   116.653707
	   41 B(5,10,9)       =    121.648312    -0.000000     0.004497   121.652809
	   42 B(6,8,12)       =    123.719998    -0.000000     0.005349   123.725346
	   43 B(6,8,21)       =    120.044875     0.000000    -0.011590   120.033285
	   44 B(6,10,9)       =    121.689091    -0.000001     0.004389   121.693480
	   45 B(7,5,10)       =    119.659109    -0.000001     0.004007   119.663116
	   46 B(7,5,18)       =    119.835971     0.000002    -0.010597   119.825374
	   47 B(7,12,8)       =    116.604773     0.000001    -0.009124   116.595649
	   48 B(8,6,10)       =    119.645159    -0.000001     0.003761   119.648920
	   49 B(8,6,19)       =    119.827117     0.000002    -0.010550   119.816567
	   50 B(9,1,14)       =    119.589631     0.000001     0.006082   119.595712
	   51 B(9,2,15)       =    119.563784     0.000000     0.005757   119.569541
	   52 B(10,5,18)      =    120.486255    -0.000001     0.006968   120.493223
	   53 B(10,6,19)      =    120.508204    -0.000001     0.007283   120.515487
	   54 B(11,3,16)      =    119.459895    -0.000000    -0.000157   119.459738
	   55 B(11,4,17)      =    118.916449     0.000000     0.000060   118.916509
	   56 B(11,13,22)     =    109.032529    -0.000001    -0.005581   109.026948
	   57 B(12,7,20)      =    116.237359    -0.000000     0.004406   116.241765
	   58 B(12,8,21)      =    116.234204    -0.000000     0.004782   116.238986
	   59 D(1,3,11,4)     =      2.078958     0.000001     0.012861     2.091819
	   60 D(1,3,11,13)    =    177.055266    -0.000001    -0.029111   177.026155
	   61 D(1,9,2,4)      =      0.715050     0.000000     0.020666     0.735717
	   62 D(1,9,2,15)     =    178.659187     0.000000     0.004767   178.663954
	   63 D(1,9,10,5)     =    -35.922934    -0.000000     0.046161   -35.876773
	   64 D(1,9,10,6)     =    144.063751    -0.000000     0.037013   144.100764
	   65 D(2,4,11,3)     =     -1.131100    -0.000001    -0.023690    -1.154791
	   66 D(2,4,11,13)    =   -176.260204     0.000001     0.016778  -176.243426
	   67 D(2,9,1,3)      =      0.245804    -0.000000    -0.031549     0.214255
	   68 D(2,9,1,14)     =    177.512287    -0.000000    -0.032843   177.479444
	   69 D(2,9,10,5)     =    144.374203     0.000000     0.064773   144.438976
	   70 D(2,9,10,6)     =    -35.639112     0.000000     0.055625   -35.583487
	   71 D(3,1,9,10)     =   -179.464505    -0.000000    -0.013417  -179.477923
	   72 D(3,11,4,17)    =    179.403272    -0.000001    -0.010470   179.392802
	   73 D(3,11,13,22)   =     59.793438     0.000004     0.046098    59.839536
	   74 D(4,2,9,10)     =   -179.574938     0.000000     0.002520  -179.572417
	   75 D(4,11,3,16)    =   -177.189173     0.000001     0.004544  -177.184629
	   76 D(4,11,13,22)   =   -125.163093     0.000003     0.004851  -125.158242
	   77 D(5,7,12,8)     =     -0.039071    -0.000000    -0.051381    -0.090452
	   78 D(5,10,6,8)     =     -0.011386    -0.000000    -0.069959    -0.081345
	   79 D(5,10,6,19)    =    178.378806    -0.000000    -0.049624   178.329181
	   80 D(6,8,12,7)     =      0.004465    -0.000000    -0.085871    -0.081406
	   81 D(6,10,5,7)     =     -0.020378    -0.000000    -0.055998    -0.076377
	   82 D(6,10,5,18)    =    178.405596    -0.000000    -0.040143   178.365453
	   83 D(7,5,10,9)     =    179.966943    -0.000000    -0.064706   179.902238
	   84 D(7,12,8,21)    =   -179.645093     0.000001     0.126659  -179.518435
	   85 D(8,6,10,9)     =   -179.998702    -0.000000    -0.061248  -180.059950
	   86 D(8,12,7,20)    =   -179.664834     0.000001     0.123249  -179.541585
	   87 D(9,1,3,11)     =     -1.642283    -0.000000     0.015140    -1.627143
	   88 D(9,1,3,16)     =    177.617326    -0.000000     0.023539   177.640864
	   89 D(9,2,4,11)     =     -0.274422     0.000000     0.006689    -0.267733
	   90 D(9,2,4,17)     =    179.178981     0.000000    -0.006839   179.172143
	   91 D(9,10,5,18)    =     -1.607082    -0.000000    -0.048851    -1.655933
	   92 D(9,10,6,19)    =     -1.608510    -0.000000    -0.040913    -1.649424
	   93 D(10,5,7,12)    =      0.048093     0.000001     0.123244     0.171337
	   94 D(10,5,7,20)    =    179.660276    -0.000000    -0.057643   179.602632
	   95 D(10,6,8,12)    =      0.020479     0.000001     0.148710     0.169190
	   96 D(10,6,8,21)    =    179.657341    -0.000000    -0.071427   179.585914
	   97 D(10,9,1,14)    =     -2.198022    -0.000000    -0.014711    -2.212733
	   98 D(10,9,2,15)    =     -1.630801     0.000000    -0.013379    -1.644180
	   99 D(11,3,1,14)    =   -178.913568    -0.000000     0.016008  -178.897560
	  100 D(11,4,2,15)    =   -178.221963     0.000000     0.022261  -178.199702
	  101 D(12,7,5,18)    =   -178.388231     0.000000     0.107218  -178.281013
	  102 D(12,8,6,19)    =   -178.380800     0.000000     0.128231  -178.252569
	  103 D(13,11,3,16)   =     -2.212865    -0.000001    -0.037428    -2.250293
	  104 D(13,11,4,17)   =      4.274169     0.000001     0.029998     4.304166
	  105 D(14,1,3,16)    =      0.346040    -0.000000     0.024407     0.370447
	  106 D(15,2,4,17)    =      1.231440     0.000000     0.008733     1.240174
	  107 D(18,5,7,20)    =      1.223951    -0.000001    -0.073669     1.150282
	  108 D(19,6,8,21)    =      1.256062    -0.000001    -0.091906     1.164155
	 ---------------------------------------------------------------------------
	Successfully symmetrized geometry.
	 Forces used to impose fixed constraints are not included.
	  Forces zeroed: 73 

  ==> Convergence Check <==

  Measures of convergence in internal coordinates in au.
  Criteria marked as inactive (o), active & met (*), and active & unmet ( ).
  ---------------------------------------------------------------------------------------------
   Step     Total Energy     Delta E     MAX Force     RMS Force      MAX Disp      RMS Disp   
  ---------------------------------------------------------------------------------------------
    Convergence Criteria    1.00e-06 *    3.00e-04 *             o    1.20e-03 *             o
  ---------------------------------------------------------------------------------------------
      7    -553.72175928    5.78e-07 *    1.80e-04 *    2.42e-05 o    2.60e-03      7.07e-04 o  ~
  ---------------------------------------------------------------------------------------------


  **** Optimization is complete! (in 7 steps) ****

  ==> Optimization Summary <==

  Measures of convergence in internal coordinates in au.
  --------------------------------------------------------------------------------------------------------------- ~
   Step         Total Energy             Delta E       MAX Force       RMS Force        MAX Disp        RMS Disp  ~
  --------------------------------------------------------------------------------------------------------------- ~
      1    -553.717791919810   -553.717791919810      0.01881473      0.00466793      0.03526696      0.00961498  ~
      2    -553.720796639631     -0.003004719821      0.00501053      0.00147978      0.03723767      0.00960445  ~
      3    -553.721515964911     -0.000719325280      0.00110801      0.00039048      0.03586823      0.00962014  ~
      4    -553.721709094799     -0.000193129888      0.00075462      0.00017794      0.03432560      0.00688903  ~
      5    -553.721752812768     -0.000043717970      0.00041956      0.00011354      0.01412097      0.00282896  ~
      6    -553.721759859541     -0.000007046772      0.00029439      0.00005134      0.00388879      0.00094438  ~
      7    -553.721759281064      0.000000578476      0.00025670      0.00003458      0.00259549      0.00070687  ~
  --------------------------------------------------------------------------------------------------------------- ~

	Writing optimization data to binary file.
	Final energy is   -553.7217592810644
	Final (previous) structure:
	Cartesian Geometry (in Angstrom)
	    C    -1.2452638167   0.7598066360  -0.5608849418
	    C    -0.3141410599   0.0577487961   1.5301244376
	    C    -2.3164109799   1.3322529231   0.1053423106
	    C    -1.3924485468   0.6109293568   2.2008410739
	    C     0.7571991185  -1.0901977496  -1.8059721040
	    C     2.1934523717  -0.4556037893  -0.0315668702
	    C     1.8612703370  -1.6382300306  -2.4387626529
	    C     3.2383085558  -1.0303408362  -0.7370852416
	    C    -0.2262941648   0.1161094132   0.1399313945
	    C     0.9082196137  -0.4766037620  -0.5657047966
	    C    -2.4019680622   1.2392720669   1.4879288418
	    N     3.0941154868  -1.6188725889  -1.9267929462
	    O    -3.4186363732   1.8460608973   2.1877971080
	    H    -1.1778718827   0.8523372968  -1.6347168311
	    H     0.4528830520  -0.4548819988   2.0914125964
	    H    -3.0829734630   1.8625938851  -0.4396973764
	    H    -1.4693523137   0.5556613449   3.2754776326
	    H    -0.2169192209  -1.1641135097  -2.2654969187
	    H     2.3858859742   0.0272112543   0.9146170584
	    H     1.7502998213  -2.1211580617  -3.3996560162
	    H     4.2400459383  -1.0128085337  -0.3308583881
	    H    -4.2606217635   1.4947385447   1.8852631961
	Saving final (previous) structure.
			--------------------------
			 OPTKING Finished Execution 
			--------------------------

    Final optimized geometry and variables:
    Molecular point group: c1
    Full point group: C1

    Geometry (in Angstrom), charge = 0, multiplicity = 1:

    C           -1.245263816676     0.759806635957    -0.560884941806
    C           -0.314141059868     0.057748796140     1.530124437606
    C           -2.316410979881     1.332252923117     0.105342310580
    C           -1.392448546816     0.610929356789     2.200841073897
    C            0.757199118458    -1.090197749612    -1.805972104046
    C            2.193452371733    -0.455603789265    -0.031566870190
    C            1.861270337019    -1.638230030555    -2.438762652899
    C            3.238308555833    -1.030340836200    -0.737085241608
    C           -0.226294164766     0.116109413173     0.139931394537
    C            0.908219613689    -0.476603762040    -0.565704796591
    C           -2.401968062195     1.239272066929     1.487928841799
    N            3.094115486751    -1.618872588937    -1.926792946195
    O           -3.418636373202     1.846060897336     2.187797107968
    H           -1.177871882723     0.852337296841    -1.634716831098
    H            0.452883052018    -0.454881998751     2.091412596438
    H           -3.082973462977     1.862593885142    -0.439697376388
    H           -1.469352313748     0.555661344898     3.275477632555
    H           -0.216919220888    -1.164113509677    -2.265496918682
    H            2.385885974202     0.027211254286     0.914617058365
    H            1.750299821273    -2.121158061718    -3.399656016239
    H            4.240045938287    -1.012808533678    -0.330858388142
    H           -4.260621763523     1.494738544749     1.885263196087

	Cleaning optimization helper files.

*** Psi4 exiting successfully. Buy a developer a beer!
