
    -----------------------------------------------------------------------
          Psi4: An Open-Source Ab Initio Electronic Structure Package
                               Psi4 1.1 release

                         Git: Rev {HEAD} add49b9 


    R. M. Parrish, L. A. Burns, D. G. A. Smith, A. C. Simmonett,
    A. E. DePrince III, E. G. Hohenstein, U. Bozkaya, A. Yu. Sokolov,
    R. Di Remigio, R. M. Richard, J. F. Gonthier, A. M. James,
    H. R. McAlexander, A. Kumar, M. Saitow, X. Wang, B. P. Pritchard,
    P. Verma, H. F. Schaefer III, K. Patkowski, R. A. King, E. F. Valeev,
    F. A. Evangelista, J. M. Turney, T. D. Crawford, and C. D. Sherrill,
    J. Chem. Theory Comput. in press (2017).
    (doi: 10.1021/acs.jctc.7b00174)

    -----------------------------------------------------------------------


    Psi4 started on: Sunday, 12 November 2017 02:21PM

    Process ID:  16162
    PSIDATADIR: /cbio/jclab/home/chayas/anaconda/envs/py35/share/psi4
    Memory:     500.0 MiB
    Threads:    8
    
  ==> Input File <==

--------------------------------------------------------------------------

memory 5 Gb

molecule phepyrOH_neutral {
  symmetry C1
  0 1 
  C      1.885   -1.036   -0.112
  C      2.878   -1.652   2.002
  C      0.807   -0.463   0.561
  C      1.800   -1.079   2.676
  C      3.862   -2.773   -1.356
  C      5.298   -2.250   0.501
  C      4.965   -3.329   -1.983
  C      6.337   -2.829   -0.209
  C      2.921   -1.631   0.608
  C      4.040   -2.225   -0.090
  C      0.764   -0.484   1.955
  N      6.202   -3.372   -1.440
  O      -0.288   0.076   2.612
  H      1.904   -1.012   -1.199
  H      3.678   -2.112   2.578
  H      0.003   -0.001   -0.006
  H      1.772   -1.098   3.762
  H      2.895   -2.772   -1.850
  H      5.475   -1.833   1.487
  H      4.879   -3.768   -2.972
  H      7.337   -2.875   0.208
  H      -1.092   0.017   2.071
  units Angstrom
}

dih_string = "3 11 13 22 30"
set optking fixed_dihedral = $dih_string

optimize('MP2/aug-cc-PVTZ')
--------------------------------------------------------------------------

  Memory set to   4.657 GiB by Python driver.
gradient() will perform analytic gradient computation.

*** tstart() called on gpu-2-8.local
*** at Sun Nov 12 14:21:48 2017

    SCF Algorithm Type (re)set to DF.

*** tstart() called on gpu-2-8.local
*** at Sun Nov 12 14:21:48 2017

   => Loading Basis Set <=

    Name: AUG-CC-PVTZ
    Role: ORBITAL
    Keyword: BASIS
    atoms 1-11  entry C          line   221 file /cbio/jclab/home/chayas/anaconda/envs/py35/share/psi4/basis/aug-cc-pvtz.gbs 
    atoms 12    entry N          line   267 file /cbio/jclab/home/chayas/anaconda/envs/py35/share/psi4/basis/aug-cc-pvtz.gbs 
    atoms 13    entry O          line   313 file /cbio/jclab/home/chayas/anaconda/envs/py35/share/psi4/basis/aug-cc-pvtz.gbs 
    atoms 14-22 entry H          line    34 file /cbio/jclab/home/chayas/anaconda/envs/py35/share/psi4/basis/aug-cc-pvtz.gbs 


         ---------------------------------------------------------
                                   SCF
            by Justin Turney, Rob Parrish, and Andy Simmonett
                              RHF Reference
                        8 Threads,   4768 MiB Core
         ---------------------------------------------------------

  ==> Geometry <==

    Molecular point group: c1
    Full point group: C1

    Geometry (in Angstrom), charge = 0, multiplicity = 1:

       Center              X                  Y                   Z               Mass       
    ------------   -----------------  -----------------  -----------------  -----------------
           C         -1.248165423373     0.709440161914    -0.581760646557    12.000000000000
           C         -0.255165423373     0.093440161914     1.532239353443    12.000000000000
           C         -2.326165423373     1.282440161914     0.091239353443    12.000000000000
           C         -1.333165423373     0.666440161914     2.206239353443    12.000000000000
           C          0.728834576627    -1.027559838086    -1.825760646557    12.000000000000
           C          2.164834576627    -0.504559838086     0.031239353443    12.000000000000
           C          1.831834576627    -1.583559838086    -2.452760646557    12.000000000000
           C          3.203834576627    -1.083559838086    -0.678760646557    12.000000000000
           C         -0.212165423373     0.114440161914     0.138239353443    12.000000000000
           C          0.906834576627    -0.479559838086    -0.559760646557    12.000000000000
           C         -2.369165423373     1.261440161914     1.485239353443    12.000000000000
           N          3.068834576627    -1.626559838086    -1.909760646557    14.003074004780
           O         -3.421165423373     1.821440161914     2.142239353443    15.994914619560
           H         -1.229165423373     0.733440161914    -1.668760646557     1.007825032070
           H          0.544834576627    -0.366559838086     2.108239353443     1.007825032070
           H         -3.130165423373     1.744440161914    -0.475760646557     1.007825032070
           H         -1.361165423373     0.647440161914     3.292239353443     1.007825032070
           H         -0.238165423373    -1.026559838086    -2.319760646557     1.007825032070
           H          2.341834576627    -0.087559838086     1.017239353443     1.007825032070
           H          1.745834576627    -2.022559838086    -3.441760646557     1.007825032070
           H          4.203834576627    -1.129559838086    -0.261760646557     1.007825032070
           H         -4.225165423373     1.762440161914     1.601239353443     1.007825032070

  Running in c1 symmetry.

  Rotational constants: A =      0.09693  B =      0.01355  C =      0.01208 [cm^-1]
  Rotational constants: A =   2906.01910  B =    406.13979  C =    362.29742 [MHz]
  Nuclear repulsion =  698.559643538611112

  Charge       = 0
  Multiplicity = 1
  Electrons    = 90
  Nalpha       = 45
  Nbeta        = 45

  ==> Algorithm <==

  SCF Algorithm Type is DF.
  DIIS enabled.
  MOM disabled.
  Fractional occupation disabled.
  Guess Type is SAD.
  Energy threshold   = 1.00e-10
  Density threshold  = 1.00e-10
  Integral threshold = 0.00e+00

  ==> Primary Basis <==

  Basis Set: AUG-CC-PVTZ
    Blend: AUG-CC-PVTZ
    Number of shells: 263
    Number of basis function: 805
    Number of Cartesian functions: 940
    Spherical Harmonics?: true
    Max angular momentum: 3

   => Loading Basis Set <=

    Name: (AUG-CC-PVTZ AUX)
    Role: JKFIT
    Keyword: DF_BASIS_SCF
    atoms 1-11  entry C          line   161 file /cbio/jclab/home/chayas/anaconda/envs/py35/share/psi4/basis/aug-cc-pvtz-jkfit.gbs 
    atoms 12    entry N          line   223 file /cbio/jclab/home/chayas/anaconda/envs/py35/share/psi4/basis/aug-cc-pvtz-jkfit.gbs 
    atoms 13    entry O          line   285 file /cbio/jclab/home/chayas/anaconda/envs/py35/share/psi4/basis/aug-cc-pvtz-jkfit.gbs 
    atoms 14-22 entry H          line    69 file /cbio/jclab/home/chayas/anaconda/envs/py35/share/psi4/basis/aug-cc-pvtz-jkfit.gbs 

  ==> Pre-Iterations <==

   -------------------------------------------------------
    Irrep   Nso     Nmo     Nalpha   Nbeta   Ndocc  Nsocc
   -------------------------------------------------------
     A        805     805       0       0       0       0
   -------------------------------------------------------
    Total     805     805      45      45      45       0
   -------------------------------------------------------

  ==> Integral Setup <==

  ==> DFJK: Density-Fitted J/K Matrices <==

    J tasked:                  Yes
    K tasked:                  Yes
    wK tasked:                  No
    OpenMP threads:              8
    Integrals threads:           8
    Memory (MB):              3576
    Algorithm:                Disk
    Integral Cache:           NONE
    Schwarz Cutoff:          1E-12
    Fitting Condition:       1E-12

   => Auxiliary Basis Set <=

  Basis Set: (AUG-CC-PVTZ AUX)
    Blend: AUG-CC-PVTZ-JKFIT
    Number of shells: 516
    Number of basis function: 1766
    Number of Cartesian functions: 2198
    Spherical Harmonics?: true
    Max angular momentum: 4

  Minimum eigenvalue in the overlap matrix is 6.1614155005E-07.
  Using Symmetric Orthogonalization.

  SCF Guess: Superposition of Atomic Densities via on-the-fly atomic UHF.

  ==> Iterations <==

                           Total Energy        Delta E     RMS |[F,P]|

   @DF-RHF iter   0:  -556.12594347138622   -5.56126e+02   2.25419e-02 
   @DF-RHF iter   1:  -550.92809369590304    5.19785e+00   1.52792e-03 
   @DF-RHF iter   2:  -551.23025263320574   -3.02159e-01   8.69845e-04 DIIS
   @DF-RHF iter   3:  -551.27169109242197   -4.14385e-02   3.79950e-04 DIIS
   @DF-RHF iter   4:  -551.28304925930547   -1.13582e-02   1.03066e-04 DIIS
   @DF-RHF iter   5:  -551.28412870124180   -1.07944e-03   4.36320e-05 DIIS
   @DF-RHF iter   6:  -551.28437164367836   -2.42942e-04   1.62305e-05 DIIS
   @DF-RHF iter   7:  -551.28441204778937   -4.04041e-05   5.98275e-06 DIIS
   @DF-RHF iter   8:  -551.28441665685500   -4.60907e-06   1.84380e-06 DIIS
   @DF-RHF iter   9:  -551.28441740581957   -7.48965e-07   9.35736e-07 DIIS
   @DF-RHF iter  10:  -551.28441763012665   -2.24307e-07   5.20526e-07 DIIS
   @DF-RHF iter  11:  -551.28441771580162   -8.56750e-08   1.73818e-07 DIIS
   @DF-RHF iter  12:  -551.28441772485530   -9.05368e-09   5.64166e-08 DIIS
   @DF-RHF iter  13:  -551.28441772583915   -9.83846e-10   2.51898e-08 DIIS
   @DF-RHF iter  14:  -551.28441772603367   -1.94518e-10   1.09787e-08 DIIS
   @DF-RHF iter  15:  -551.28441772605299   -1.93268e-11   5.85442e-09 DIIS
   @DF-RHF iter  16:  -551.28441772604072    1.22782e-11   1.97632e-09 DIIS
   @DF-RHF iter  17:  -551.28441772605584   -1.51203e-11   1.17717e-09 DIIS
   @DF-RHF iter  18:  -551.28441772604413    1.17097e-11   5.23162e-10 DIIS
   @DF-RHF iter  19:  -551.28441772605322   -9.09495e-12   1.37367e-10 DIIS
   @DF-RHF iter  20:  -551.28441772603765    1.55751e-11   7.43242e-11 DIIS

  ==> Post-Iterations <==

    Orbital Energies (a.u.)
    -----------------------

    Doubly Occupied:                                                      

       1A    -20.598335     2A    -15.561536     3A    -11.314075  
       4A    -11.273997     5A    -11.273892     6A    -11.263162  
       7A    -11.254450     8A    -11.253453     9A    -11.245572  
      10A    -11.245237    11A    -11.243009    12A    -11.236178  
      13A    -11.235862    14A     -1.414215    15A     -1.248390  
      16A     -1.174126    17A     -1.103947    18A     -1.039496  
      19A     -1.028414    20A     -1.009286    21A     -0.881227  
      22A     -0.873297    23A     -0.837988    24A     -0.810554  
      25A     -0.748625    26A     -0.724600    27A     -0.683988  
      28A     -0.665142    29A     -0.649650    30A     -0.632363  
      31A     -0.624262    32A     -0.610353    33A     -0.598607  
      34A     -0.592195    35A     -0.563273    36A     -0.544536  
      37A     -0.529333    38A     -0.521256    39A     -0.505046  
      40A     -0.490835    41A     -0.417390    42A     -0.396490  
      43A     -0.355338    44A     -0.348957    45A     -0.307921  

    Virtual:                                                              

      46A      0.021568    47A      0.029538    48A      0.032146  
      49A      0.039642    50A      0.041704    51A      0.045975  
      52A      0.054630    53A      0.057290    54A      0.061063  
      55A      0.076710    56A      0.078299    57A      0.084335  
      58A      0.088043    59A      0.091943    60A      0.095163  
      61A      0.102269    62A      0.105469    63A      0.108077  
      64A      0.109661    65A      0.112559    66A      0.115517  
      67A      0.117770    68A      0.121743    69A      0.127879  
      70A      0.130325    71A      0.132701    72A      0.134090  
      73A      0.138380    74A      0.143316    75A      0.144924  
      76A      0.149297    77A      0.149551    78A      0.154049  
      79A      0.160543    80A      0.163907    81A      0.167818  
      82A      0.172075    83A      0.176864    84A      0.182292  
      85A      0.185276    86A      0.186986    87A      0.200805  
      88A      0.204803    89A      0.211837    90A      0.215816  
      91A      0.221641    92A      0.224981    93A      0.227870  
      94A      0.236984    95A      0.239687    96A      0.242419  
      97A      0.244767    98A      0.246156    99A      0.251268  
     100A      0.256320   101A      0.262807   102A      0.263595  
     103A      0.266416   104A      0.270257   105A      0.274539  
     106A      0.280094   107A      0.285167   108A      0.289348  
     109A      0.291475   110A      0.296531   111A      0.297413  
     112A      0.302521   113A      0.306603   114A      0.307829  
     115A      0.313663   116A      0.318399   117A      0.322254  
     118A      0.328070   119A      0.329230   120A      0.333916  
     121A      0.340243   122A      0.343355   123A      0.355577  
     124A      0.358309   125A      0.362453   126A      0.367458  
     127A      0.370443   128A      0.373149   129A      0.384425  
     130A      0.392269   131A      0.394252   132A      0.398737  
     133A      0.403710   134A      0.411230   135A      0.415328  
     136A      0.419281   137A      0.425162   138A      0.428799  
     139A      0.433737   140A      0.435689   141A      0.437620  
     142A      0.438209   143A      0.442136   144A      0.447625  
     145A      0.449766   146A      0.453555   147A      0.460931  
     148A      0.462700   149A      0.462884   150A      0.470379  
     151A      0.475396   152A      0.481650   153A      0.483509  
     154A      0.485015   155A      0.490411   156A      0.493209  
     157A      0.499032   158A      0.500564   159A      0.503205  
     160A      0.505672   161A      0.508272   162A      0.511943  
     163A      0.513806   164A      0.517246   165A      0.519769  
     166A      0.526409   167A      0.529309   168A      0.530541  
     169A      0.531678   170A      0.539848   171A      0.545711  
     172A      0.546743   173A      0.550132   174A      0.554311  
     175A      0.555496   176A      0.565647   177A      0.569376  
     178A      0.571624   179A      0.580615   180A      0.588870  
     181A      0.594328   182A      0.596456   183A      0.606617  
     184A      0.611154   185A      0.614872   186A      0.619716  
     187A      0.627877   188A      0.634884   189A      0.638992  
     190A      0.647622   191A      0.652315   192A      0.658314  
     193A      0.659167   194A      0.679884   195A      0.688288  
     196A      0.690264   197A      0.692097   198A      0.698323  
     199A      0.706496   200A      0.709500   201A      0.712297  
     202A      0.720503   203A      0.722492   204A      0.728791  
     205A      0.730645   206A      0.737870   207A      0.741459  
     208A      0.751395   209A      0.755688   210A      0.758478  
     211A      0.768083   212A      0.771599   213A      0.774308  
     214A      0.779875   215A      0.797212   216A      0.799069  
     217A      0.807033   218A      0.809841   219A      0.815299  
     220A      0.820054   221A      0.827942   222A      0.834052  
     223A      0.840139   224A      0.843459   225A      0.852296  
     226A      0.857529   227A      0.863753   228A      0.869676  
     229A      0.875654   230A      0.875840   231A      0.881877  
     232A      0.886437   233A      0.893141   234A      0.896877  
     235A      0.900282   236A      0.904872   237A      0.906392  
     238A      0.908241   239A      0.911701   240A      0.919124  
     241A      0.923777   242A      0.929893   243A      0.935225  
     244A      0.947564   245A      0.950593   246A      0.952086  
     247A      0.960414   248A      0.961125   249A      0.964868  
     250A      0.971988   251A      0.974773   252A      0.975430  
     253A      0.982537   254A      0.984792   255A      0.988649  
     256A      0.996963   257A      1.002406   258A      1.005689  
     259A      1.011382   260A      1.016022   261A      1.016498  
     262A      1.025696   263A      1.028148   264A      1.029284  
     265A      1.033393   266A      1.039950   267A      1.042660  
     268A      1.045594   269A      1.047859   270A      1.051226  
     271A      1.054648   272A      1.062116   273A      1.065196  
     274A      1.075985   275A      1.077450   276A      1.087086  
     277A      1.089362   278A      1.097240   279A      1.100205  
     280A      1.101785   281A      1.102606   282A      1.106191  
     283A      1.111929   284A      1.117192   285A      1.120759  
     286A      1.124324   287A      1.126490   288A      1.141336  
     289A      1.147257   290A      1.155528   291A      1.164751  
     292A      1.166692   293A      1.168688   294A      1.172802  
     295A      1.174799   296A      1.181136   297A      1.187820  
     298A      1.190169   299A      1.190779   300A      1.200051  
     301A      1.205880   302A      1.207160   303A      1.211950  
     304A      1.216162   305A      1.218500   306A      1.221534  
     307A      1.225253   308A      1.229294   309A      1.239814  
     310A      1.255083   311A      1.257904   312A      1.266852  
     313A      1.271175   314A      1.280433   315A      1.282909  
     316A      1.291899   317A      1.294394   318A      1.301579  
     319A      1.305143   320A      1.308895   321A      1.313047  
     322A      1.321897   323A      1.328454   324A      1.334625  
     325A      1.343724   326A      1.354844   327A      1.361143  
     328A      1.371008   329A      1.372213   330A      1.379356  
     331A      1.384688   332A      1.400540   333A      1.404287  
     334A      1.410081   335A      1.426351   336A      1.429860  
     337A      1.433892   338A      1.448148   339A      1.451238  
     340A      1.455856   341A      1.464286   342A      1.478647  
     343A      1.481300   344A      1.493792   345A      1.506312  
     346A      1.511818   347A      1.519966   348A      1.520644  
     349A      1.523224   350A      1.535762   351A      1.536316  
     352A      1.547984   353A      1.559461   354A      1.577617  
     355A      1.584385   356A      1.596215   357A      1.603464  
     358A      1.607980   359A      1.615228   360A      1.620997  
     361A      1.628072   362A      1.640906   363A      1.648399  
     364A      1.658428   365A      1.668064   366A      1.673972  
     367A      1.677918   368A      1.689563   369A      1.697398  
     370A      1.699179   371A      1.705305   372A      1.710939  
     373A      1.715846   374A      1.724058   375A      1.736642  
     376A      1.738550   377A      1.745639   378A      1.749802  
     379A      1.756455   380A      1.768905   381A      1.780278  
     382A      1.782623   383A      1.791650   384A      1.807995  
     385A      1.811590   386A      1.816241   387A      1.825684  
     388A      1.831720   389A      1.844232   390A      1.846626  
     391A      1.852603   392A      1.862913   393A      1.867882  
     394A      1.872030   395A      1.876735   396A      1.896256  
     397A      1.909105   398A      1.911217   399A      1.916523  
     400A      1.931031   401A      1.941141   402A      1.944715  
     403A      1.948049   404A      1.954826   405A      1.967338  
     406A      1.970786   407A      1.978156   408A      1.985363  
     409A      1.998981   410A      2.003461   411A      2.012041  
     412A      2.016460   413A      2.028921   414A      2.034431  
     415A      2.035674   416A      2.042938   417A      2.046238  
     418A      2.057536   419A      2.060693   420A      2.078004  
     421A      2.083397   422A      2.087441   423A      2.096726  
     424A      2.102729   425A      2.108738   426A      2.119021  
     427A      2.121937   428A      2.124906   429A      2.131765  
     430A      2.140412   431A      2.148694   432A      2.152714  
     433A      2.169397   434A      2.184644   435A      2.190995  
     436A      2.198385   437A      2.204209   438A      2.219326  
     439A      2.224902   440A      2.227821   441A      2.235354  
     442A      2.245566   443A      2.256976   444A      2.262957  
     445A      2.274515   446A      2.291965   447A      2.308135  
     448A      2.311300   449A      2.316151   450A      2.327491  
     451A      2.341496   452A      2.355821   453A      2.365357  
     454A      2.369039   455A      2.375025   456A      2.383677  
     457A      2.399661   458A      2.406003   459A      2.408910  
     460A      2.416033   461A      2.421508   462A      2.424623  
     463A      2.441100   464A      2.456571   465A      2.465619  
     466A      2.488816   467A      2.495683   468A      2.517492  
     469A      2.518308   470A      2.548036   471A      2.549544  
     472A      2.557724   473A      2.562825   474A      2.574729  
     475A      2.579817   476A      2.590171   477A      2.606622  
     478A      2.611109   479A      2.629130   480A      2.635141  
     481A      2.652133   482A      2.678253   483A      2.699801  
     484A      2.712258   485A      2.728046   486A      2.735351  
     487A      2.752324   488A      2.777778   489A      2.793167  
     490A      2.806896   491A      2.816080   492A      2.825480  
     493A      2.839774   494A      2.841511   495A      2.864546  
     496A      2.878619   497A      2.884355   498A      2.900060  
     499A      2.932502   500A      2.976762   501A      2.993776  
     502A      2.999006   503A      3.030773   504A      3.053477  
     505A      3.060309   506A      3.073974   507A      3.082459  
     508A      3.107588   509A      3.144007   510A      3.166176  
     511A      3.190785   512A      3.210270   513A      3.214667  
     514A      3.227896   515A      3.241479   516A      3.245753  
     517A      3.284344   518A      3.289551   519A      3.302139  
     520A      3.315370   521A      3.334142   522A      3.341965  
     523A      3.346272   524A      3.356867   525A      3.368676  
     526A      3.371838   527A      3.396827   528A      3.400437  
     529A      3.417276   530A      3.421926   531A      3.424235  
     532A      3.433684   533A      3.442864   534A      3.454888  
     535A      3.460271   536A      3.468899   537A      3.479071  
     538A      3.490436   539A      3.499587   540A      3.511898  
     541A      3.521402   542A      3.528593   543A      3.539096  
     544A      3.544200   545A      3.554381   546A      3.559653  
     547A      3.562090   548A      3.573636   549A      3.574405  
     550A      3.583234   551A      3.595798   552A      3.602857  
     553A      3.608931   554A      3.627984   555A      3.634267  
     556A      3.638754   557A      3.652472   558A      3.660566  
     559A      3.676833   560A      3.689176   561A      3.702343  
     562A      3.711619   563A      3.718606   564A      3.734696  
     565A      3.741190   566A      3.754421   567A      3.768316  
     568A      3.776231   569A      3.782061   570A      3.786900  
     571A      3.790155   572A      3.811831   573A      3.815008  
     574A      3.830682   575A      3.836391   576A      3.846014  
     577A      3.858426   578A      3.863570   579A      3.869941  
     580A      3.876501   581A      3.887036   582A      3.891201  
     583A      3.901615   584A      3.911652   585A      3.921807  
     586A      3.935145   587A      3.936980   588A      3.941526  
     589A      3.945370   590A      3.949471   591A      3.966174  
     592A      3.972258   593A      3.982724   594A      4.000670  
     595A      4.005495   596A      4.013481   597A      4.027499  
     598A      4.028085   599A      4.030237   600A      4.037933  
     601A      4.040059   602A      4.050802   603A      4.074177  
     604A      4.079722   605A      4.093274   606A      4.109144  
     607A      4.123977   608A      4.135080   609A      4.138273  
     610A      4.143960   611A      4.154525   612A      4.165585  
     613A      4.171418   614A      4.174172   615A      4.181477  
     616A      4.204718   617A      4.208349   618A      4.216583  
     619A      4.226201   620A      4.242438   621A      4.252091  
     622A      4.257925   623A      4.262275   624A      4.274556  
     625A      4.285243   626A      4.296930   627A      4.298205  
     628A      4.304483   629A      4.315671   630A      4.332425  
     631A      4.334634   632A      4.344190   633A      4.355528  
     634A      4.365387   635A      4.376505   636A      4.385915  
     637A      4.392607   638A      4.396739   639A      4.408778  
     640A      4.411929   641A      4.424521   642A      4.436707  
     643A      4.441498   644A      4.449364   645A      4.461322  
     646A      4.461949   647A      4.470910   648A      4.486843  
     649A      4.504265   650A      4.506269   651A      4.512682  
     652A      4.517416   653A      4.520327   654A      4.532488  
     655A      4.557415   656A      4.568648   657A      4.584068  
     658A      4.587858   659A      4.604447   660A      4.627237  
     661A      4.632686   662A      4.641073   663A      4.670113  
     664A      4.687231   665A      4.698236   666A      4.700423  
     667A      4.721434   668A      4.736445   669A      4.742422  
     670A      4.750623   671A      4.760767   672A      4.798054  
     673A      4.801329   674A      4.814891   675A      4.826458  
     676A      4.851053   677A      4.862023   678A      4.873186  
     679A      4.877825   680A      4.907507   681A      4.919347  
     682A      4.928665   683A      4.938588   684A      4.953626  
     685A      4.953786   686A      4.971157   687A      4.988303  
     688A      4.997433   689A      5.006239   690A      5.027581  
     691A      5.034597   692A      5.039235   693A      5.048976  
     694A      5.056681   695A      5.081335   696A      5.085319  
     697A      5.092896   698A      5.113662   699A      5.122982  
     700A      5.133738   701A      5.138535   702A      5.146382  
     703A      5.159062   704A      5.164589   705A      5.175142  
     706A      5.179452   707A      5.210431   708A      5.212818  
     709A      5.228701   710A      5.239202   711A      5.266616  
     712A      5.283043   713A      5.295559   714A      5.303610  
     715A      5.313574   716A      5.345944   717A      5.357024  
     718A      5.360427   719A      5.380695   720A      5.406393  
     721A      5.422457   722A      5.429727   723A      5.441797  
     724A      5.450530   725A      5.470673   726A      5.484998  
     727A      5.490300   728A      5.525367   729A      5.553722  
     730A      5.557436   731A      5.565476   732A      5.578143  
     733A      5.619832   734A      5.625920   735A      5.648179  
     736A      5.699252   737A      5.708596   738A      5.729804  
     739A      5.758084   740A      5.767286   741A      5.800786  
     742A      5.809691   743A      5.827275   744A      5.847276  
     745A      5.872983   746A      5.881570   747A      5.915256  
     748A      5.930397   749A      5.985478   750A      6.052265  
     751A      6.086724   752A      6.118090   753A      6.155735  
     754A      6.187712   755A      6.215713   756A      6.258946  
     757A      6.284263   758A      6.293752   759A      6.361032  
     760A      6.404833   761A      6.427574   762A      6.468372  
     763A      6.482918   764A      6.502085   765A      6.523821  
     766A      6.598379   767A      6.624700   768A      6.709006  
     769A      6.714449   770A      6.718823   771A      6.741651  
     772A      6.885545   773A      6.886545   774A      6.907699  
     775A      6.920378   776A      6.943672   777A      6.962366  
     778A      6.976372   779A      7.090218   780A      7.104920  
     781A      7.120730   782A      7.237174   783A      7.291369  
     784A      7.400356   785A      7.435874   786A      7.510628  
     787A      7.666943   788A      7.687702   789A      7.771673  
     790A      7.940300   791A      8.341620   792A      8.590771  
     793A     15.624662   794A     16.379747   795A     16.651953  
     796A     16.767968   797A     16.816314   798A     18.428914  
     799A     18.821357   800A     19.174853   801A     19.573798  
     802A     20.059326   803A     20.080742   804A     20.588961  
     805A     21.777107  

    Final Occupation by Irrep:
              A 
    DOCC [    45 ]

  Energy converged.

  @DF-RHF Final Energy:  -551.28441772603765

   => Energetics <=

    Nuclear Repulsion Energy =            698.5596435386111125
    One-Electron Energy =               -2133.8284103143860193
    Two-Electron Energy =                 883.9843490497373750
    DFT Exchange-Correlation Energy =       0.0000000000000000
    Empirical Dispersion Energy =           0.0000000000000000
    PCM Polarization Energy =               0.0000000000000000
    EFP Energy =                            0.0000000000000000
    Total Energy =                       -551.2844177260376455



Properties will be evaluated at   0.000000,   0.000000,   0.000000 Bohr

Properties computed using the SCF density matrix

  Nuclear Dipole Moment: (a.u.)
     X:    -1.2886      Y:     0.2525      Z:    -0.1237

  Electronic Dipole Moment: (a.u.)
     X:     0.1122      Y:     0.0710      Z:     0.2507

  Dipole Moment: (a.u.)
     X:    -1.1764      Y:     0.3235      Z:     0.1271     Total:     1.2267

  Dipole Moment: (Debye)
     X:    -2.9901      Y:     0.8224      Z:     0.3229     Total:     3.1179


*** tstop() called on gpu-2-8.local at Sun Nov 12 14:28:41 2017
Module time:
	user time   =    1050.49 seconds =      17.51 minutes
	system time =      47.17 seconds =       0.79 minutes
	total time  =        413 seconds =       6.88 minutes
Total time:
	user time   =    1050.50 seconds =      17.51 minutes
	system time =      47.17 seconds =       0.79 minutes
	total time  =        413 seconds =       6.88 minutes

  //>>>>>>>>>>>>>>>>>>>>>>>>>>>>>>>>>>>//
  //               DFMP2               //
  //<<<<<<<<<<<<<<<<<<<<<<<<<<<<<<<<<<<//

   => Loading Basis Set <=

    Name: (AUG-CC-PVTZ AUX)
    Role: RIFIT
    Keyword: DF_BASIS_MP2
    atoms 1-11  entry C          line   147 file /cbio/jclab/home/chayas/anaconda/envs/py35/share/psi4/basis/aug-cc-pvtz-ri.gbs 
    atoms 12    entry N          line   205 file /cbio/jclab/home/chayas/anaconda/envs/py35/share/psi4/basis/aug-cc-pvtz-ri.gbs 
    atoms 13    entry O          line   263 file /cbio/jclab/home/chayas/anaconda/envs/py35/share/psi4/basis/aug-cc-pvtz-ri.gbs 
    atoms 14-22 entry H          line    29 file /cbio/jclab/home/chayas/anaconda/envs/py35/share/psi4/basis/aug-cc-pvtz-ri.gbs 

	 --------------------------------------------------------
	                          DF-MP2                         
	      2nd-Order Density-Fitted Moller-Plesset Theory     
	              RMP2 Wavefunction,   8 Threads             
	                                                         
	        Rob Parrish, Justin Turney, Andy Simmonett,      
	           Ed Hohenstein, and C. David Sherrill          
	 --------------------------------------------------------

   => Auxiliary Basis Set <=

  Basis Set: (AUG-CC-PVTZ AUX)
    Blend: AUG-CC-PVTZ-RI
    Number of shells: 490
    Number of basis function: 1792
    Number of Cartesian functions: 2263
    Spherical Harmonics?: true
    Max angular momentum: 4

	 --------------------------------------------------------
	                 NBF =   805, NAUX =  1792
	 --------------------------------------------------------
	   CLASS    FOCC     OCC    AOCC    AVIR     VIR    FVIR
	   PAIRS       0      45      45     760     760       0
	 --------------------------------------------------------


         ------------------------------------------------------------
                                     CPHF                           
                                  Rob Parrish                       
         ------------------------------------------------------------

  ==> Geometry <==

    Molecular point group: c1
    Full point group: C1

    Geometry (in Angstrom), charge = 0, multiplicity = 1:

       Center              X                  Y                   Z               Mass       
    ------------   -----------------  -----------------  -----------------  -----------------
           C         -1.248165423373     0.709440161914    -0.581760646557    12.000000000000
           C         -0.255165423373     0.093440161914     1.532239353443    12.000000000000
           C         -2.326165423373     1.282440161914     0.091239353443    12.000000000000
           C         -1.333165423373     0.666440161914     2.206239353443    12.000000000000
           C          0.728834576627    -1.027559838086    -1.825760646557    12.000000000000
           C          2.164834576627    -0.504559838086     0.031239353443    12.000000000000
           C          1.831834576627    -1.583559838086    -2.452760646557    12.000000000000
           C          3.203834576627    -1.083559838086    -0.678760646557    12.000000000000
           C         -0.212165423373     0.114440161914     0.138239353443    12.000000000000
           C          0.906834576627    -0.479559838086    -0.559760646557    12.000000000000
           C         -2.369165423373     1.261440161914     1.485239353443    12.000000000000
           N          3.068834576627    -1.626559838086    -1.909760646557    14.003074004780
           O         -3.421165423373     1.821440161914     2.142239353443    15.994914619560
           H         -1.229165423373     0.733440161914    -1.668760646557     1.007825032070
           H          0.544834576627    -0.366559838086     2.108239353443     1.007825032070
           H         -3.130165423373     1.744440161914    -0.475760646557     1.007825032070
           H         -1.361165423373     0.647440161914     3.292239353443     1.007825032070
           H         -0.238165423373    -1.026559838086    -2.319760646557     1.007825032070
           H          2.341834576627    -0.087559838086     1.017239353443     1.007825032070
           H          1.745834576627    -2.022559838086    -3.441760646557     1.007825032070
           H          4.203834576627    -1.129559838086    -0.261760646557     1.007825032070
           H         -4.225165423373     1.762440161914     1.601239353443     1.007825032070

  Nuclear repulsion =  698.559643538611112
  Reference energy  = -551.284417726037645

  ==> Basis Set <==

  Basis Set: AUG-CC-PVTZ
    Blend: AUG-CC-PVTZ
    Number of shells: 263
    Number of basis function: 805
    Number of Cartesian functions: 940
    Spherical Harmonics?: true
    Max angular momentum: 3

  ==> CGRSolver (by Rob Parrish) <==

   Number of roots    =         1
   Preconditioning    =    JACOBI
   Convergence cutoff =     1E-06
   Maximum iterations =       100

  ==> CPHFRHamiltonian (by Rob Parrish) <== 

  ==> DFJK: Density-Fitted J/K Matrices <==

    J tasked:                  Yes
    K tasked:                  Yes
    wK tasked:                  No
    OpenMP threads:              8
    Integrals threads:           8
    Memory (MB):              3576
    Algorithm:                Disk
    Integral Cache:           NONE
    Schwarz Cutoff:          1E-12
    Fitting Condition:       1E-12

   => Auxiliary Basis Set <=

  Basis Set: (AUG-CC-PVTZ AUX)
    Blend: AUG-CC-PVTZ-JKFIT
    Number of shells: 516
    Number of basis function: 1766
    Number of Cartesian functions: 2198
    Spherical Harmonics?: true
    Max angular momentum: 4

  ==> CPHF Iterations <==

  => Iterations <=

             Iter  Converged  Remaining    Residual
  CGR           1          0          1   9.008E-02
  CGR           2          0          1   3.710E-02
  CGR           3          0          1   2.591E-02
  CGR           4          0          1   1.042E-02
  CGR           5          0          1   4.122E-03
  CGR           6          0          1   1.734E-03
  CGR           7          0          1   4.970E-04
  CGR           8          0          1   1.655E-04
  CGR           9          0          1   8.327E-05
  CGR          10          0          1   3.820E-05
  CGR          11          0          1   1.406E-05
  CGR          12          0          1   5.095E-06
  CGR          13          0          1   1.509E-06
  CGR          14          1          0   4.952E-07

    CGRSolver converged.

  ==> DFCorrGrad: Density-Fitted Correlated Gradients <==

    OpenMP threads:              8
    Integrals threads:           8
    Memory (MB):              3576
    Schwarz Cutoff:          0E+00
    Fitting Condition:       1E-12

   => Auxiliary Basis Set <=

  Basis Set: (AUG-CC-PVTZ AUX)
    Blend: AUG-CC-PVTZ-JKFIT
    Number of shells: 516
    Number of basis function: 1766
    Number of Cartesian functions: 2198
    Spherical Harmonics?: true
    Max angular momentum: 4

	-----------------------------------------------------------
	 ==================> DF-MP2 Energies <==================== 
	-----------------------------------------------------------
	 Reference Energy          =    -551.2844177260376455 [Eh]
	 Singles Energy            =      -0.0000000000000003 [Eh]
	 Same-Spin Energy          =      -0.6051336016528756 [Eh]
	 Opposite-Spin Energy      =      -1.8308310682985911 [Eh]
	 Correlation Energy        =      -2.4359646699514670 [Eh]
	 Total Energy              =    -553.7203823959890769 [Eh]
	-----------------------------------------------------------
	 ================> DF-SCS-MP2 Energies <================== 
	-----------------------------------------------------------
	 SCS Same-Spin Scale       =       0.3333333333333333 [-]
	 SCS Opposite-Spin Scale   =       1.2000000000000000 [-]
	 SCS Same-Spin Energy      =      -0.2017112005509585 [Eh]
	 SCS Opposite-Spin Energy  =      -2.1969972819583092 [Eh]
	 SCS Correlation Energy    =      -2.3987084825092682 [Eh]
	 SCS Total Energy          =    -553.6831262085469234 [Eh]
	-----------------------------------------------------------


  -Total Gradient:
     Atom            X                  Y                   Z
    ------   -----------------  -----------------  -----------------
       1        0.009775308492    -0.002048752123    -0.006372507750
       2        0.009709815609    -0.008902519767    -0.003622366281
       3       -0.007333463120     0.004541301359     0.003687436125
       4       -0.002189583901    -0.001105565937    -0.001467023132
       5       -0.010002159784     0.001553282564     0.002173580303
       6       -0.004943893720     0.006250047535     0.007016481168
       7       -0.012675158164     0.002122621912    -0.000202394933
       8       -0.003074643053     0.006999136765     0.011030385785
       9        0.002594740330    -0.001582899903    -0.001606970522
      10        0.004522125552    -0.002013646566    -0.001803234963
      11        0.000326067907     0.004067164927     0.010681256884
      12        0.012455992837    -0.006974428110    -0.008124542374
      13        0.007772763631     0.001431986264    -0.007241100755
      14       -0.001508633571    -0.001051591996    -0.006354605257
      15        0.005647754587    -0.001097391273     0.004081923276
      16       -0.002835233362     0.000843904661    -0.003594012501
      17        0.002715266043    -0.000824074067     0.005287225671
      18       -0.004514193559     0.001219899151    -0.003945258834
      19        0.001103366971     0.000256627395     0.005522622286
      20        0.000488149062    -0.001028912590    -0.002855455778
      21        0.002314951597    -0.000744706637     0.000439180321
      22       -0.010349340385    -0.001911483564    -0.002730618732


*** tstop() called on gpu-2-8.local at Sun Nov 12 15:01:43 2017
Module time:
	user time   =    5105.87 seconds =      85.10 minutes
	system time =     105.54 seconds =       1.76 minutes
	total time  =       2395 seconds =      39.92 minutes
Total time:
	user time   =    5105.88 seconds =      85.10 minutes
	system time =     105.54 seconds =       1.76 minutes
	total time  =       2395 seconds =      39.92 minutes

			-----------------------------------------
			 OPTKING 2.0: for geometry optimizations 
			  - R.A. King,  Bethel University        
			-----------------------------------------

	Internal coordinates to be generated automatically.
	Detected frag 1 with atoms:  1 2 3 4 5 6 7 8 9 10 11 12 13 14 15 16 17 18 19 20
	 21 22
	---Fragment 1 Bond Connectivity---
	 1 : 3 9 14
	 2 : 4 9 15
	 3 : 1 11 16
	 4 : 2 11 17
	 5 : 7 10 18
	 6 : 8 10 19
	 7 : 5 12 20
	 8 : 6 12 21
	 9 : 1 2 10
	 10 : 5 6 9
	 11 : 3 4 13
	 12 : 7 8
	 13 : 11 22
	 14 : 1
	 15 : 2
	 16 : 3
	 17 : 4
	 18 : 5
	 19 : 6
	 20 : 7
	 21 : 8
	 22 : 13

	Assuming in current code that numbering for constraints corresponds to unified fragment.
	Fixed dihedral atom list: 
	     3    11    13    22
	---Fragment 1 Geometry and Gradient---
	 C          -2.3586908187        1.3406476137       -1.0993682969
	 C          -0.4821927688        0.1765763158        2.8955127480
	 C          -4.3958155900        2.4234606878        0.1724173905
	 C          -2.5193175400        1.2593893900        4.1691881616
	 C           1.3772977460       -1.9418066791       -3.4501876062
	 C           4.0909444728       -0.9534799116        0.0590338226
	 C           3.4616656706       -2.9924944090       -4.6350458915
	 C           6.0543699249       -2.0476313426       -1.2826717318
	 C          -0.4009345450        0.2162605646        0.2612345188
	 C           1.7136689977       -0.9062367583       -1.0577943220
	 C          -4.4770738137        2.3837764390        2.8066956198
	 N           5.7992568970       -3.0737526327       -3.6089246014
	 O          -6.4650657055        3.4420230735        4.0482456891
	 H          -2.3227860222        1.3860010409       -3.1535006033
	 H           1.0295881376       -0.6926977053        3.9839950006
	 H          -5.9151554008        3.2965141612       -0.8990573268
	 H          -2.5722298717        1.2234845934        6.2214307419
	 H          -0.4500674245       -1.9399169530       -4.3837123158
	 H           4.4254259983       -0.1654641142        1.9223037896
	 H           3.2991492231       -3.8220841814       -6.5039850369
	 H           7.9440960578       -2.1345587447       -0.4946559344
	 H          -7.9844055163        3.3305292316        3.0259038512
	             0.0097753085       -0.0020487521       -0.0063725078
	             0.0097098156       -0.0089025198       -0.0036223663
	            -0.0073334631        0.0045413014        0.0036874361
	            -0.0021895839       -0.0011055659       -0.0014670231
	            -0.0100021598        0.0015532826        0.0021735803
	            -0.0049438937        0.0062500475        0.0070164812
	            -0.0126751582        0.0021226219       -0.0002023949
	            -0.0030746431        0.0069991368        0.0110303858
	             0.0025947403       -0.0015828999       -0.0016069705
	             0.0045221256       -0.0020136466       -0.0018032350
	             0.0003260679        0.0040671649        0.0106812569
	             0.0124559928       -0.0069744281       -0.0081245424
	             0.0077727636        0.0014319863       -0.0072411008
	            -0.0015086336       -0.0010515920       -0.0063546053
	             0.0056477546       -0.0010973913        0.0040819233
	            -0.0028352334        0.0008439047       -0.0035940125
	             0.0027152660       -0.0008240741        0.0052872257
	            -0.0045141936        0.0012198992       -0.0039452588
	             0.0011033670        0.0002566274        0.0055226223
	             0.0004881491       -0.0010289126       -0.0028554558
	             0.0023149516       -0.0007447066        0.0004391803
	            -0.0103493404       -0.0019114836       -0.0027306187

	Previous optimization step data not found.  Starting new optimization.

	---Fragment 1 Intrafragment Coordinates---
	 - Coordinate -           - BOHR/RAD -       - ANG/DEG -
	 R(1,3)           =         2.634350	       1.394038
	 R(1,9)           =         2.635962	       1.394891
	 R(1,14)          =         2.054947	       1.087431
	 R(2,4)           =         2.635263	       1.394521
	 R(2,9)           =         2.635830	       1.394821
	 R(2,15)          =         2.055702	       1.087831
	 R(3,11)          =         2.635830	       1.394821
	 R(3,16)          =         2.053941	       1.086899
	 R(4,11)          =         2.636938	       1.395407
	 R(4,17)          =         2.053239	       1.086527
	 R(5,7)           =         2.617713	       1.385234
	 R(5,10)          =         2.628516	       1.390951
	 R(5,18)          =         2.052008	       1.085876
	 R(6,8)           =         2.617705	       1.385230
	 R(6,10)          =         2.626971	       1.390133
	 R(6,19)          =         2.050517	       1.085087
	 R(7,12)          =         2.554185	       1.351616
	 R(7,20)          =         2.051235	       1.085467
	 R(8,12)          =         2.555281	       1.352196
	 R(8,21)          =         2.049290	       1.084438
	 R(9,10)          =         2.733384	       1.446444
	 R(11,13)         =         2.571662	       1.360865
	 R(13,22)         =         1.834668	       0.970865
	 B(1,3,11)        =         2.094553	     120.009056
	 B(1,3,16)        =         2.088505	     119.662516
	 B(1,9,2)         =         2.093692	     119.959722
	 B(1,9,10)        =         2.095161	     120.043881
	 B(2,4,11)        =         2.093699	     119.960108
	 B(2,4,17)        =         2.089577	     119.723926
	 B(2,9,10)        =         2.094332	     119.996376
	 B(3,1,9)         =         2.094940	     120.031219
	 B(3,1,14)        =         2.079469	     119.144799
	 B(3,11,4)        =         2.094306	     119.994870
	 B(3,11,13)       =         2.094549	     120.008801
	 B(4,2,9)         =         2.095181	     120.045019
	 B(4,2,15)        =         2.078675	     119.099297
	 B(4,11,13)       =         2.094331	     119.996326
	 B(5,7,12)        =         2.164774	     124.032419
	 B(5,7,20)        =         2.107900	     120.773750
	 B(5,10,6)        =         2.089402	     119.713913
	 B(5,10,9)        =         2.096711	     120.132663
	 B(6,8,12)        =         2.164670	     124.026428
	 B(6,8,21)        =         2.108649	     120.816676
	 B(6,10,9)        =         2.097073	     120.153413
	 B(7,5,10)        =         2.058056	     117.917911
	 B(7,5,18)        =         2.098486	     120.234396
	 B(7,12,8)        =         2.031222	     116.380442
	 B(8,6,10)        =         2.058246	     117.928826
	 B(8,6,19)        =         2.099051	     120.266760
	 B(9,1,14)        =         2.108776	     120.823969
	 B(9,2,15)        =         2.109330	     120.855683
	 B(10,5,18)       =         2.126643	     121.847689
	 B(10,6,19)       =         2.125888	     121.804412
	 B(11,3,16)       =         2.100127	     120.328425
	 B(11,4,17)       =         2.099910	     120.315955
	 B(11,13,22)      =         1.924254	     110.251655
	 B(12,7,20)       =         2.010511	     115.193804
	 B(12,8,21)       =         2.009864	     115.156734
	 D(1,3,11,4)      =        -0.000325	      -0.018609
	 D(1,3,11,13)     =         3.140978	     179.964785
	 D(1,9,2,4)       =         0.000325	       0.018608
	 D(1,9,2,15)      =        -3.141497	    -179.994534
	 D(1,9,10,5)      =        -0.524224	     -30.035797
	 D(1,9,10,6)      =         2.616694	     149.925506
	 D(2,4,11,3)      =         0.000301	       0.017261
	 D(2,4,11,13)     =        -3.141002	    -179.966135
	 D(2,9,1,3)       =        -0.000348	      -0.019945
	 D(2,9,1,14)      =        -3.141221	    -179.978731
	 D(2,9,10,5)      =         2.618285	     150.016707
	 D(2,9,10,6)      =        -0.523983	     -30.021991
	 D(3,1,9,10)      =        -3.141025	    -179.967461
	 D(3,11,4,17)     =         3.141223	     179.978848
	 D(3,11,13,22)    =         0.523581	      29.999006
	 D(4,2,9,10)      =         3.141002	     179.966149
	 D(4,11,3,16)     =         3.141593	     180.000000
	 D(4,11,13,22)    =        -2.618301	    -150.017600
	 D(5,7,12,8)      =        -0.001332	      -0.076323
	 D(5,10,6,8)      =         0.000381	       0.021838
	 D(5,10,6,19)     =        -3.140989	    -179.965395
	 D(6,8,12,7)      =         0.001671	       0.095732
	 D(6,10,5,7)      =        -0.000077	      -0.004437
	 D(6,10,5,18)     =        -3.141299	    -179.983151
	 D(7,5,10,9)      =         3.140843	     179.957036
	 D(7,12,8,21)     =         3.140716	     179.949799
	 D(8,6,10,9)      =        -3.140539	    -179.939628
	 D(8,12,7,20)     =         3.139212	     179.863574
	 D(9,1,3,11)      =         0.000348	       0.019955
	 D(9,1,3,16)      =        -3.141571	    -179.998735
	 D(9,2,4,11)      =        -0.000301	      -0.017270
	 D(9,2,4,17)      =        -3.141228	    -179.979086
	 D(9,10,5,18)     =        -0.000378	      -0.021678
	 D(9,10,6,19)     =         0.001277	       0.073140
	 D(10,5,7,12)     =         0.000580	       0.033223
	 D(10,5,7,20)     =        -3.139908	    -179.903478
	 D(10,6,8,12)     =        -0.001235	      -0.070741
	 D(10,6,8,21)     =        -3.140143	    -179.916933
	 D(10,9,1,14)     =         0.001287	       0.073752
	 D(10,9,2,15)     =        -0.000820	      -0.046992
	 D(11,3,1,14)     =         3.141234	     179.979432
	 D(11,4,2,15)     =         3.141517	     179.995641
	 D(12,7,5,18)     =        -3.141378	    -179.987706
	 D(12,8,6,19)     =         3.140139	     179.916697
	 D(13,11,3,16)    =        -0.000286	      -0.016400
	 D(13,11,4,17)    =        -0.000079	      -0.004548
	 D(14,1,3,16)     =        -0.000685	      -0.039257
	 D(15,2,4,17)     =         0.000590	       0.033826
	 D(18,5,7,20)     =         0.001319	       0.075593
	 D(19,6,8,21)     =         0.001231	       0.070505

	Current energy   :      -553.7203823960

	Generating empirical Hessian (Schlegel '84) for each fragment.
	Adding user-defined constraint: Fragment 1; Coordinate 73:
		Value =     0.523581; Fixed value    =     0.523599
		Force =     0.000009; Force constant =     0.500000
	Removing off-diagonal coupling between coordinate 73 and others.
	Taking RFO optimization step.
	Going to follow RFO solution 1.
	Using RFO vector 1.

	Determining step-restricting scale parameter for RS-RFO.
	Maximum step size allowed    0.10000

	 Iter      |step|        alpha        rfo_root  
	------------------------------------------------
	    0     0.28872       1.00000           1
	    1     0.19876       3.64865           1
	    2     0.14980       9.59285           1
	    3     0.12036      20.99183           1
	    4     0.10497      33.43813           1
	    5     0.10040      38.64349           1
	    6     0.10000      39.13759           1
	------------------------------------------------
	Norm of target step-size    0.10000
	Projected energy change by RFO approximation:        -0.0050635801

	Back-transformation to cartesian coordinates...
	Could not converge backtransformation.
	Using first guess instead.

	--- Internal Coordinate Step in ANG or DEG, aJ/ANG or AJ/DEG ---
	 ---------------------------------------------------------------------------
	   Coordinate                Previous        Force       Change         New 
	   ----------                --------       ------       ------       ------
	    1 R(1,3)          =      1.394038    -0.058273    -0.005691     1.388347
	    2 R(1,9)          =      1.394891    -0.009870    -0.000746     1.394145
	    3 R(1,14)         =      1.087431    -0.051925    -0.006172     1.081259
	    4 R(2,4)          =      1.394521    -0.059718    -0.005935     1.388586
	    5 R(2,9)          =      1.394821    -0.000255     0.000236     1.395058
	    6 R(2,15)         =      1.087831    -0.055849    -0.006649     1.081182
	    7 R(3,11)         =      1.394821    -0.038399    -0.003869     1.390952
	    8 R(3,16)         =      1.086899    -0.035681    -0.004230     1.082669
	    9 R(4,11)         =      1.395407    -0.086877    -0.008743     1.386664
	   10 R(4,17)         =      1.086527    -0.043081    -0.005097     1.081430
	   11 R(5,7)          =      1.385234     0.001623     0.000139     1.385374
	   12 R(5,10)         =      1.390951     0.004087     0.001033     1.391984
	   13 R(5,18)         =      1.085876    -0.047916    -0.005645     1.080231
	   14 R(6,8)          =      1.385230     0.001907     0.000176     1.385406
	   15 R(6,10)         =      1.390133     0.009421     0.001447     1.391580
	   16 R(6,19)         =      1.085087    -0.043640    -0.005149     1.079938
	   17 R(7,12)         =      1.351616    -0.122881    -0.011082     1.340535
	   18 R(7,20)         =      1.085467    -0.024544    -0.002902     1.082565
	   19 R(8,12)         =      1.352196    -0.126460    -0.011406     1.340791
	   20 R(8,21)         =      1.084438    -0.019239    -0.002255     1.082183
	   21 R(9,10)         =      1.446444     0.153935     0.017259     1.463703
	   22 R(11,13)        =      1.360865     0.024878     0.002561     1.363426
	   23 R(13,22)        =      0.970865    -0.084104    -0.007474     0.963391
	   24 B(1,3,11)       =    120.009056     0.000117     0.184446   120.193502
	   25 B(1,3,16)       =    119.662516     0.000062     0.169873   119.832389
	   26 B(1,9,2)        =    119.959722    -0.000798    -1.351914   118.607808
	   27 B(1,9,10)       =    120.043881     0.000381     0.643088   120.686970
	   28 B(2,4,11)       =    119.960108     0.000025    -0.011909   119.948199
	   29 B(2,4,17)       =    119.723926     0.000210     0.492743   120.216669
	   30 B(2,9,10)       =    119.996376     0.000417     0.708804   120.705180
	   31 B(3,1,9)        =    120.031219     0.000304     0.581007   120.612226
	   32 B(3,1,14)       =    119.144799    -0.000086    -0.149108   118.995691
	   33 B(3,11,4)       =    119.994870    -0.000127    -0.284243   119.710628
	   34 B(3,11,13)      =    120.008801     0.000824     1.450897   121.459699
	   35 B(4,2,9)        =    120.045019     0.000480     0.882189   120.927208
	   36 B(4,2,15)       =    119.099297    -0.000199    -0.356277   118.743020
	   37 B(4,11,13)      =    119.996326    -0.000696    -1.168303   118.828023
	   38 B(5,7,12)       =    124.032419     0.000043     0.000373   124.032792
	   39 B(5,7,20)       =    120.773750    -0.000073    -0.113958   120.659791
	   40 B(5,10,6)       =    119.713913    -0.001210    -1.981380   117.732533
	   41 B(5,10,9)       =    120.132663     0.000613     1.005915   121.138578
	   42 B(6,8,12)       =    124.026428     0.000042     0.002081   124.028508
	   43 B(6,8,21)       =    120.816676    -0.000078    -0.125578   120.691098
	   44 B(6,10,9)       =    120.153413     0.000597     0.975468   121.128880
	   45 B(7,5,10)       =    117.917911     0.000533     1.037702   118.955613
	   46 B(7,5,18)       =    120.234396    -0.000210    -0.398971   119.835425
	   47 B(7,12,8)       =    116.380442     0.000062    -0.091623   116.288819
	   48 B(8,6,10)       =    117.928826     0.000530     1.032863   118.961689
	   49 B(8,6,19)       =    120.266760    -0.000214    -0.408866   119.857894
	   50 B(9,1,14)       =    120.823969    -0.000218    -0.432819   120.391150
	   51 B(9,2,15)       =    120.855683    -0.000281    -0.526871   120.328812
	   52 B(10,5,18)      =    121.847689    -0.000323    -0.639151   121.208539
	   53 B(10,6,19)      =    121.804412    -0.000316    -0.624442   121.179970
	   54 B(11,3,16)      =    120.328425    -0.000179    -0.354386   119.974039
	   55 B(11,4,17)      =    120.315955    -0.000235    -0.480823   119.835131
	   56 B(11,13,22)     =    110.251655    -0.000351    -0.764287   109.487368
	   57 B(12,7,20)      =    115.193804     0.000031     0.113577   115.307381
	   58 B(12,8,21)      =    115.156734     0.000036     0.123660   115.280394
	   59 D(1,3,11,4)     =     -0.018609     0.000013     0.222126     0.203517
	   60 D(1,3,11,13)    =    179.964785    -0.000012    -0.234202   179.730584
	   61 D(1,9,2,4)      =      0.018608     0.000006     0.105611     0.124219
	   62 D(1,9,2,15)     =   -179.994534    -0.000016    -0.242178  -180.236712
	   63 D(1,9,10,5)     =    -30.035797    -0.000028    -0.476643   -30.512439
	   64 D(1,9,10,6)     =    149.925506    -0.000028    -0.473047   149.452459
	   65 D(2,4,11,3)     =      0.017261    -0.000002    -0.057723    -0.040462
	   66 D(2,4,11,13)    =   -179.966135     0.000023     0.386156  -179.579979
	   67 D(2,9,1,3)      =     -0.019945     0.000004     0.060030     0.040085
	   68 D(2,9,1,14)     =   -179.978731    -0.000021    -0.335993  -180.314724
	   69 D(2,9,10,5)     =    150.016707    -0.000027    -0.453394   149.563312
	   70 D(2,9,10,6)     =    -30.021991    -0.000027    -0.449799   -30.471790
	   71 D(3,1,9,10)     =   -179.967461     0.000005     0.081735  -179.885727
	   72 D(3,11,4,17)    =    179.978848     0.000000    -0.014781   179.964067
	   73 D(3,11,13,22)   =     29.999006    -0.000013    -0.078513    29.920493
	   74 D(4,2,9,10)     =    179.966149     0.000005     0.083867   180.050016
	   75 D(4,11,3,16)    =    180.000000     0.000018     0.299440   180.299440
	   76 D(4,11,13,22)   =   -150.017600    -0.000038    -0.530775  -150.548375
	   77 D(5,7,12,8)     =     -0.076323     0.000001     0.015931    -0.060391
	   78 D(5,10,6,8)     =      0.021838    -0.000000    -0.001434     0.020404
	   79 D(5,10,6,19)    =   -179.965395    -0.000016    -0.257836  -180.223231
	   80 D(6,8,12,7)     =      0.095732    -0.000001    -0.012333     0.083400
	   81 D(6,10,5,7)     =     -0.004437     0.000000     0.004437     0.000000
	   82 D(6,10,5,18)    =   -179.983151    -0.000016    -0.253408  -180.236559
	   83 D(7,5,10,9)     =    179.957036     0.000001     0.009448   179.966484
	   84 D(7,12,8,21)    =    179.949799     0.000008     0.132097   180.081895
	   85 D(8,6,10,9)     =   -179.939628    -0.000000    -0.006025  -179.945653
	   86 D(8,12,7,20)    =    179.863574     0.000009     0.144904   180.008477
	   87 D(9,1,3,11)     =      0.019955    -0.000013    -0.224014    -0.204060
	   88 D(9,1,3,16)     =   -179.998735    -0.000018    -0.301111  -180.299845
	   89 D(9,2,4,11)     =     -0.017270    -0.000007    -0.107302    -0.124572
	   90 D(9,2,4,17)     =   -179.979086    -0.000010    -0.150033  -180.129119
	   91 D(9,10,5,18)    =     -0.021678    -0.000016    -0.248828    -0.270506
	   92 D(9,10,6,19)    =      0.073140    -0.000017    -0.262427    -0.189288
	   93 D(10,5,7,12)    =      0.033223    -0.000001    -0.012643     0.020579
	   94 D(10,5,7,20)    =   -179.903478    -0.000009    -0.148319  -180.051797
	   95 D(10,6,8,12)    =     -0.070741     0.000000     0.005041    -0.065699
	   96 D(10,6,8,21)    =   -179.916933    -0.000009    -0.147185  -180.064118
	   97 D(10,9,1,14)    =      0.073752    -0.000019    -0.314288    -0.240535
	   98 D(10,9,2,15)    =     -0.046992    -0.000017    -0.263922    -0.310914
	   99 D(11,3,1,14)    =    179.979432     0.000011     0.166423   180.145855
	  100 D(11,4,2,15)    =    179.995641     0.000014     0.235101   180.230742
	  101 D(12,7,5,18)    =   -179.987706     0.000015     0.241950  -179.745755
	  102 D(12,8,6,19)    =    179.916697     0.000016     0.257947   180.174644
	  103 D(13,11,3,16)   =     -0.016400    -0.000007    -0.157095    -0.173494
	  104 D(13,11,4,17)   =     -0.004548     0.000025     0.429098     0.424550
	  105 D(14,1,3,16)    =     -0.039257     0.000006     0.089326     0.050069
	  106 D(15,2,4,17)    =      0.033826     0.000012     0.192370     0.226195
	  107 D(18,5,7,20)    =      0.075593     0.000007     0.106275     0.181868
	  108 D(19,6,8,21)    =      0.070505     0.000007     0.105721     0.176225
	 ---------------------------------------------------------------------------
	Successfully symmetrized geometry.
	 Forces used to impose fixed constraints are not included.
	  Forces zeroed: 73 

  ==> Convergence Check <==

  Measures of convergence in internal coordinates in au.
  Criteria marked as inactive (o), active & met (*), and active & unmet ( ).
  --------------------------------------------------------------------------------------------- ~
   Step     Total Energy     Delta E     MAX Force     RMS Force      MAX Disp      RMS Disp    ~
  --------------------------------------------------------------------------------------------- ~
    Convergence Criteria    1.00e-06 *    3.00e-04 *             o    1.20e-03 *             o  ~
  --------------------------------------------------------------------------------------------- ~
      1    -553.72038240   -5.54e+02      1.87e-02      4.75e-03 o    3.46e-02      9.62e-03 o  ~
  ---------------------------------------------------------------------------------------------

	Writing optimization data to binary file.
	Structure for next step:
	Cartesian Geometry (in Angstrom)
	    C    -1.2624509201   0.7200860563  -0.5694776267
	    C    -0.2855831069   0.1034986944   1.5323951920
	    C    -2.3360394360   1.2918614507   0.0998416447
	    C    -1.3595482909   0.6714606225   2.2048449736
	    C     0.7577496722  -1.0423348675  -1.8302000381
	    C     2.1788104130  -0.5127225007   0.0074639008
	    C     1.8617743005  -1.5985212044  -2.4555374096
	    C     3.2202292895  -1.0919057271  -0.6991783828
	    C    -0.2230249191   0.1188024038   0.1388249821
	    C     0.9108307163  -0.4823036400  -0.5650715628
	    C    -2.3876381844   1.2666962791   1.4896083034
	    N     3.0890448876  -1.6360434543  -1.9175480741
	    O    -3.4267650298   1.8249896734   2.1733142548
	    H    -1.2409116910   0.7527532290  -1.6500279614
	    H     0.5034083677  -0.3587309039   2.1092757805
	    H    -3.1340377095   1.7597667498  -0.4626844802
	    H    -1.3973249019   0.6512729427   3.2854262153
	    H    -0.2022779666  -1.0526638373  -2.3253144531
	    H     2.3612127180  -0.0911804965   0.9848575126
	    H     1.7738782340  -2.0422220624  -3.4390772048
	    H     4.2176506207  -1.1298395178  -0.2810507693
	    H    -4.2266263773   1.7759636725   1.6385809787
			--------------------------
			 OPTKING Finished Execution 
			--------------------------

    Structure for next step:
    Molecular point group: c1
    Full point group: C1

    Geometry (in Angstrom), charge = 0, multiplicity = 1:

    C           -1.262398724037     0.720766944181    -0.569544652995
    C           -0.285530910809     0.104179582240     1.532328165755
    C           -2.335987239939     1.292542338515     0.099774618380
    C           -1.359496094834     0.672141510401     2.204777947286
    C            0.757801868282    -1.041653979668    -1.830267064331
    C            2.178862609100    -0.512041612840     0.007396874566
    C            1.861826496533    -1.597840316521    -2.455604435868
    C            3.220281485577    -1.091224839234    -0.699245409079
    C           -0.222972723042     0.119483291682     0.138757955805
    C            0.910882912334    -0.481622752166    -0.565138589042
    C           -2.387585988324     1.267377166919     1.489541277128
    N            3.089097083621    -1.635362566389    -1.917615100371
    O           -3.426712833758     1.825670561242     2.173247228520
    H           -1.240859494972     0.753434116842    -1.650094987697
    H            0.503460563754    -0.358050016065     2.109208754269
    H           -3.133985513435     1.760447637628    -0.462751506439
    H           -1.397272705880     0.651953830534     3.285359188981
    H           -0.202225770505    -1.051982949406    -2.325381479399
    H            2.361264914025    -0.090499608650     0.984790486372
    H            1.773930430092    -2.041541174550    -3.439144231056
    H            4.217702816756    -1.129158629944    -0.281117795543
    H           -4.226574181254     1.776644560327     1.638513952407

gradient() will perform analytic gradient computation.

*** tstart() called on gpu-2-8.local
*** at Sun Nov 12 15:01:44 2017

    SCF Algorithm Type (re)set to DF.

*** tstart() called on gpu-2-8.local
*** at Sun Nov 12 15:01:44 2017

   => Loading Basis Set <=

    Name: AUG-CC-PVTZ
    Role: ORBITAL
    Keyword: BASIS
    atoms 1-11  entry C          line   221 file /cbio/jclab/home/chayas/anaconda/envs/py35/share/psi4/basis/aug-cc-pvtz.gbs 
    atoms 12    entry N          line   267 file /cbio/jclab/home/chayas/anaconda/envs/py35/share/psi4/basis/aug-cc-pvtz.gbs 
    atoms 13    entry O          line   313 file /cbio/jclab/home/chayas/anaconda/envs/py35/share/psi4/basis/aug-cc-pvtz.gbs 
    atoms 14-22 entry H          line    34 file /cbio/jclab/home/chayas/anaconda/envs/py35/share/psi4/basis/aug-cc-pvtz.gbs 


         ---------------------------------------------------------
                                   SCF
            by Justin Turney, Rob Parrish, and Andy Simmonett
                              RHF Reference
                        8 Threads,   4768 MiB Core
         ---------------------------------------------------------

  ==> Geometry <==

    Molecular point group: c1
    Full point group: C1

    Geometry (in Angstrom), charge = 0, multiplicity = 1:

       Center              X                  Y                   Z               Mass       
    ------------   -----------------  -----------------  -----------------  -----------------
           C         -1.262398724037     0.720766944181    -0.569544652995    12.000000000000
           C         -0.285530910809     0.104179582240     1.532328165755    12.000000000000
           C         -2.335987239939     1.292542338515     0.099774618380    12.000000000000
           C         -1.359496094834     0.672141510401     2.204777947286    12.000000000000
           C          0.757801868282    -1.041653979668    -1.830267064331    12.000000000000
           C          2.178862609100    -0.512041612840     0.007396874566    12.000000000000
           C          1.861826496533    -1.597840316521    -2.455604435868    12.000000000000
           C          3.220281485577    -1.091224839234    -0.699245409079    12.000000000000
           C         -0.222972723042     0.119483291682     0.138757955805    12.000000000000
           C          0.910882912334    -0.481622752166    -0.565138589042    12.000000000000
           C         -2.387585988324     1.267377166919     1.489541277128    12.000000000000
           N          3.089097083621    -1.635362566389    -1.917615100371    14.003074004780
           O         -3.426712833758     1.825670561242     2.173247228520    15.994914619560
           H         -1.240859494972     0.753434116842    -1.650094987697     1.007825032070
           H          0.503460563754    -0.358050016065     2.109208754269     1.007825032070
           H         -3.133985513435     1.760447637628    -0.462751506439     1.007825032070
           H         -1.397272705880     0.651953830534     3.285359188981     1.007825032070
           H         -0.202225770505    -1.051982949406    -2.325381479399     1.007825032070
           H          2.361264914025    -0.090499608650     0.984790486372     1.007825032070
           H          1.773930430092    -2.041541174550    -3.439144231056     1.007825032070
           H          4.217702816756    -1.129158629944    -0.281117795543     1.007825032070
           H         -4.226574181254     1.776644560327     1.638513952407     1.007825032070

  Running in c1 symmetry.

  Rotational constants: A =      0.09839  B =      0.01335  C =      0.01195 [cm^-1]
  Rotational constants: A =   2949.62967  B =    400.09339  C =    358.24843 [MHz]
  Nuclear repulsion =  697.665455906497300

  Charge       = 0
  Multiplicity = 1
  Electrons    = 90
  Nalpha       = 45
  Nbeta        = 45

  ==> Algorithm <==

  SCF Algorithm Type is DF.
  DIIS enabled.
  MOM disabled.
  Fractional occupation disabled.
  Guess Type is READ.
  Energy threshold   = 1.00e-10
  Density threshold  = 1.00e-10
  Integral threshold = 0.00e+00

  ==> Primary Basis <==

  Basis Set: AUG-CC-PVTZ
    Blend: AUG-CC-PVTZ
    Number of shells: 263
    Number of basis function: 805
    Number of Cartesian functions: 940
    Spherical Harmonics?: true
    Max angular momentum: 3

   => Loading Basis Set <=

    Name: (AUG-CC-PVTZ AUX)
    Role: JKFIT
    Keyword: DF_BASIS_SCF
    atoms 1-11  entry C          line   161 file /cbio/jclab/home/chayas/anaconda/envs/py35/share/psi4/basis/aug-cc-pvtz-jkfit.gbs 
    atoms 12    entry N          line   223 file /cbio/jclab/home/chayas/anaconda/envs/py35/share/psi4/basis/aug-cc-pvtz-jkfit.gbs 
    atoms 13    entry O          line   285 file /cbio/jclab/home/chayas/anaconda/envs/py35/share/psi4/basis/aug-cc-pvtz-jkfit.gbs 
    atoms 14-22 entry H          line    69 file /cbio/jclab/home/chayas/anaconda/envs/py35/share/psi4/basis/aug-cc-pvtz-jkfit.gbs 

  Reading orbitals from file 180, no projection.

  ==> Pre-Iterations <==

   -------------------------------------------------------
    Irrep   Nso     Nmo     Nalpha   Nbeta   Ndocc  Nsocc
   -------------------------------------------------------
     A        805     805       0       0       0       0
   -------------------------------------------------------
    Total     805     805      45      45      45       0
   -------------------------------------------------------

  ==> Integral Setup <==

  ==> DFJK: Density-Fitted J/K Matrices <==

    J tasked:                  Yes
    K tasked:                  Yes
    wK tasked:                  No
    OpenMP threads:              8
    Integrals threads:           8
    Memory (MB):              3576
    Algorithm:                Disk
    Integral Cache:           NONE
    Schwarz Cutoff:          1E-12
    Fitting Condition:       1E-12

   => Auxiliary Basis Set <=

  Basis Set: (AUG-CC-PVTZ AUX)
    Blend: AUG-CC-PVTZ-JKFIT
    Number of shells: 516
    Number of basis function: 1766
    Number of Cartesian functions: 2198
    Spherical Harmonics?: true
    Max angular momentum: 4

  Minimum eigenvalue in the overlap matrix is 6.0055455841E-07.
  Using Symmetric Orthogonalization.

  SCF Guess: Orbitals guess was supplied from a previous computation.

  ==> Iterations <==

                           Total Energy        Delta E     RMS |[F,P]|

   @DF-RHF iter   0:  -551.43586938618228   -5.51436e+02   5.19897e-04 
   @DF-RHF iter   1:  -551.28863977670380    1.47230e-01   1.41256e-04 
   @DF-RHF iter   2:  -551.28956114513949   -9.21368e-04   9.92769e-05 DIIS
   @DF-RHF iter   3:  -551.29040379329354   -8.42648e-04   1.49904e-05 DIIS
   @DF-RHF iter   4:  -551.29041837187629   -1.45786e-05   5.27693e-06 DIIS
   @DF-RHF iter   5:  -551.29042084438856   -2.47251e-06   1.22283e-06 DIIS
   @DF-RHF iter   6:  -551.29042116662094   -3.22232e-07   7.95974e-07 DIIS
   @DF-RHF iter   7:  -551.29042127720516   -1.10584e-07   3.13860e-07 DIIS
   @DF-RHF iter   8:  -551.29042131012363   -3.29185e-08   1.46424e-07 DIIS
   @DF-RHF iter   9:  -551.29042131622975   -6.10612e-09   5.55974e-08 DIIS
   @DF-RHF iter  10:  -551.29042131700862   -7.78869e-10   2.02736e-08 DIIS
   @DF-RHF iter  11:  -551.29042131710150   -9.28821e-11   6.28333e-09 DIIS
   @DF-RHF iter  12:  -551.29042131710935   -7.84439e-12   2.92680e-09 DIIS
   @DF-RHF iter  13:  -551.29042131713243   -2.30784e-11   1.84447e-09 DIIS
   @DF-RHF iter  14:  -551.29042131714391   -1.14824e-11   8.71899e-10 DIIS
   @DF-RHF iter  15:  -551.29042131715880   -1.48930e-11   3.09858e-10 DIIS
   @DF-RHF iter  16:  -551.29042131713800    2.08047e-11   1.01460e-10 DIIS
   @DF-RHF iter  17:  -551.29042131713140    6.59384e-12   4.37678e-11 DIIS

  ==> Post-Iterations <==

    Orbital Energies (a.u.)
    -----------------------

    Doubly Occupied:                                                      

       1A    -20.598424     2A    -15.560371     3A    -11.312223  
       4A    -11.272197     5A    -11.272086     6A    -11.265706  
       7A    -11.253442     8A    -11.251880     9A    -11.247778  
      10A    -11.244306    11A    -11.239733    12A    -11.235911  
      13A    -11.235625    14A     -1.415526    15A     -1.254612  
      16A     -1.174837    17A     -1.104963    18A     -1.039440  
      19A     -1.029640    20A     -1.012202    21A     -0.881238  
      22A     -0.873029    23A     -0.841308    24A     -0.812370  
      25A     -0.749706    26A     -0.725368    27A     -0.684658  
      28A     -0.664142    29A     -0.652500    30A     -0.634938  
      31A     -0.625621    32A     -0.608339    33A     -0.600572  
      34A     -0.592434    35A     -0.565077    36A     -0.546284  
      37A     -0.531513    38A     -0.521755    39A     -0.506474  
      40A     -0.491410    41A     -0.417711    42A     -0.398086  
      43A     -0.355917    44A     -0.348250    45A     -0.310679  

    Virtual:                                                              

      46A      0.021701    47A      0.029743    48A      0.032152  
      49A      0.039666    50A      0.041743    51A      0.046154  
      52A      0.054741    53A      0.057215    54A      0.061123  
      55A      0.077528    56A      0.078512    57A      0.084406  
      58A      0.088930    59A      0.091782    60A      0.095201  
      61A      0.102256    62A      0.105663    63A      0.108120  
      64A      0.109646    65A      0.112661    66A      0.115577  
      67A      0.117807    68A      0.121889    69A      0.127908  
      70A      0.130189    71A      0.132566    72A      0.134014  
      73A      0.138271    74A      0.143450    75A      0.144973  
      76A      0.149009    77A      0.149410    78A      0.153853  
      79A      0.160422    80A      0.163309    81A      0.167689  
      82A      0.172212    83A      0.176623    84A      0.181724  
      85A      0.185140    86A      0.186921    87A      0.201017  
      88A      0.204967    89A      0.211844    90A      0.215774  
      91A      0.221405    92A      0.225134    93A      0.227440  
      94A      0.236896    95A      0.239880    96A      0.242570  
      97A      0.244711    98A      0.246015    99A      0.251743  
     100A      0.256393   101A      0.262602   102A      0.263769  
     103A      0.266244   104A      0.270383   105A      0.275092  
     106A      0.279937   107A      0.284589   108A      0.289399  
     109A      0.292702   110A      0.297075   111A      0.298245  
     112A      0.303843   113A      0.306899   114A      0.307263  
     115A      0.313711   116A      0.318882   117A      0.322554  
     118A      0.327412   119A      0.328357   120A      0.333777  
     121A      0.340079   122A      0.342835   123A      0.355492  
     124A      0.358061   125A      0.362696   126A      0.366945  
     127A      0.370495   128A      0.373526   129A      0.384756  
     130A      0.391817   131A      0.393621   132A      0.398960  
     133A      0.403347   134A      0.411115   135A      0.414341  
     136A      0.419522   137A      0.424276   138A      0.428721  
     139A      0.433701   140A      0.436326   141A      0.437657  
     142A      0.438594   143A      0.442729   144A      0.447101  
     145A      0.450032   146A      0.453785   147A      0.461002  
     148A      0.463065   149A      0.463734   150A      0.470435  
     151A      0.475225   152A      0.481029   153A      0.484015  
     154A      0.485879   155A      0.490884   156A      0.493285  
     157A      0.499170   158A      0.500279   159A      0.503581  
     160A      0.506102   161A      0.508993   162A      0.511512  
     163A      0.513451   164A      0.518196   165A      0.519755  
     166A      0.526828   167A      0.529635   168A      0.530776  
     169A      0.532028   170A      0.539613   171A      0.544196  
     172A      0.546937   173A      0.549066   174A      0.553134  
     175A      0.554259   176A      0.564091   177A      0.568151  
     178A      0.570363   179A      0.580668   180A      0.587810  
     181A      0.593394   182A      0.595790   183A      0.606664  
     184A      0.611786   185A      0.613491   186A      0.619778  
     187A      0.627109   188A      0.634666   189A      0.636947  
     190A      0.646831   191A      0.653707   192A      0.657964  
     193A      0.660058   194A      0.680557   195A      0.689369  
     196A      0.690804   197A      0.692136   198A      0.698044  
     199A      0.706456   200A      0.711322   201A      0.712087  
     202A      0.720750   203A      0.723466   204A      0.727799  
     205A      0.730275   206A      0.738945   207A      0.741385  
     208A      0.751005   209A      0.753379   210A      0.757688  
     211A      0.768110   212A      0.772075   213A      0.773318  
     214A      0.779296   215A      0.797139   216A      0.798926  
     217A      0.806305   218A      0.808793   219A      0.814945  
     220A      0.819061   221A      0.828463   222A      0.835618  
     223A      0.840511   224A      0.843290   225A      0.853526  
     226A      0.857889   227A      0.863933   228A      0.870414  
     229A      0.875495   230A      0.877026   231A      0.882266  
     232A      0.886201   233A      0.893581   234A      0.898865  
     235A      0.900784   236A      0.904119   237A      0.905896  
     238A      0.907875   239A      0.912380   240A      0.918031  
     241A      0.922178   242A      0.931467   243A      0.935510  
     244A      0.947019   245A      0.949573   246A      0.950070  
     247A      0.960729   248A      0.961022   249A      0.963862  
     250A      0.970819   251A      0.972260   252A      0.975927  
     253A      0.981308   254A      0.982102   255A      0.988387  
     256A      0.997871   257A      1.003266   258A      1.005358  
     259A      1.011184   260A      1.014468   261A      1.016813  
     262A      1.024121   263A      1.027705   264A      1.029838  
     265A      1.032583   266A      1.038896   267A      1.042406  
     268A      1.045393   269A      1.047341   270A      1.050678  
     271A      1.053914   272A      1.060347   273A      1.064147  
     274A      1.075745   275A      1.077792   276A      1.086193  
     277A      1.086977   278A      1.095381   279A      1.099459  
     280A      1.101026   281A      1.102784   282A      1.103966  
     283A      1.110422   284A      1.116804   285A      1.118850  
     286A      1.122901   287A      1.125759   288A      1.140180  
     289A      1.146734   290A      1.155523   291A      1.163964  
     292A      1.165446   293A      1.168427   294A      1.172091  
     295A      1.175784   296A      1.181518   297A      1.186722  
     298A      1.188842   299A      1.190520   300A      1.197908  
     301A      1.204747   302A      1.205720   303A      1.213293  
     304A      1.216694   305A      1.217425   306A      1.218711  
     307A      1.225198   308A      1.230561   309A      1.239305  
     310A      1.255573   311A      1.260170   312A      1.268977  
     313A      1.271196   314A      1.279126   315A      1.283675  
     316A      1.291510   317A      1.294388   318A      1.301489  
     319A      1.305417   320A      1.308779   321A      1.314549  
     322A      1.319126   323A      1.328258   324A      1.332787  
     325A      1.342548   326A      1.353998   327A      1.362223  
     328A      1.370160   329A      1.370761   330A      1.379166  
     331A      1.383679   332A      1.398816   333A      1.404913  
     334A      1.413383   335A      1.424342   336A      1.426303  
     337A      1.432806   338A      1.445361   339A      1.452774  
     340A      1.454680   341A      1.461787   342A      1.475118  
[...]
	 R(11,13)         =         2.581387	       1.366011
	 R(13,22)         =         1.817171	       0.961605
	 B(1,3,11)        =         2.094126	     119.984585
	 B(1,3,16)        =         2.097004	     120.149474
	 B(1,9,2)         =         2.062352	     118.164060
	 B(1,9,10)        =         2.109590	     120.870575
	 B(2,4,11)        =         2.092692	     119.902423
	 B(2,4,17)        =         2.114966	     121.178652
	 B(2,9,10)        =         2.111241	     120.965182
	 B(3,1,9)         =         2.112176	     121.018783
	 B(3,1,14)        =         2.081728	     119.274211
	 B(3,11,4)        =         2.089732	     119.732851
	 B(3,11,13)       =         2.140259	     122.627796
	 B(4,2,9)         =         2.114921	     121.176048
	 B(4,2,15)        =         2.080966	     119.230582
	 B(4,11,13)       =         2.051486	     117.541513
	 B(5,7,12)        =         2.159279	     123.717552
	 B(5,7,20)        =         2.095123	     120.041710
	 B(5,10,6)        =         2.035266	     116.612165
	 B(5,10,9)        =         2.123960	     121.693961
	 B(6,8,12)        =         2.159445	     123.727083
	 B(6,8,21)        =         2.094979	     120.033458
	 B(6,10,9)        =         2.123959	     121.693870
	 B(7,5,10)        =         2.088926	     119.686622
	 B(7,5,18)        =         2.091014	     119.806301
	 B(7,12,8)        =         2.034738	     116.581880
	 B(8,6,10)        =         2.088716	     119.674595
	 B(8,6,19)        =         2.091071	     119.809538
	 B(9,1,14)        =         2.088365	     119.654494
	 B(9,2,15)        =         2.086733	     119.560991
	 B(10,5,18)       =         2.102910	     120.487858
	 B(10,6,19)       =         2.103064	     120.496675
	 B(11,3,16)       =         2.092017	     119.863723
	 B(11,4,17)       =         2.075456	     118.914862
	 B(11,13,22)      =         1.903910	     109.086012
	 B(12,7,20)       =         2.028758	     116.239292
	 B(12,8,21)       =         2.028738	     116.238106
	 D(1,3,11,4)      =         0.029812	       1.708075
	 D(1,3,11,13)     =         3.107058	     178.021310
	 D(1,9,2,4)       =         0.009275	       0.531404
	 D(1,9,2,15)      =         3.114463	     178.445614
	 D(1,9,10,5)      =        -0.620062	     -35.526915
	 D(1,9,10,6)      =         2.521128	     144.450018
	 D(2,4,11,3)      =        -0.014235	      -0.815611
	 D(2,4,11,13)     =        -3.094714	    -177.314050
	 D(2,9,1,3)       =         0.006528	       0.374045
	 D(2,9,1,14)      =         3.101788	     177.719347
	 D(2,9,10,5)      =         2.524297	     144.631563
	 D(2,9,10,6)      =        -0.617698	     -35.391504
	 D(3,1,9,10)      =        -3.132374	    -179.471813
	 D(3,11,4,17)     =         3.140002	     179.908852
	 D(3,11,13,22)    =         0.520295	      29.810701
	 D(4,2,9,10)      =        -3.135011	    -179.622890
	 D(4,11,3,16)     =        -3.102340	    -177.750968
	 D(4,11,13,22)    =        -2.684312	    -153.799752
	 D(5,7,12,8)      =        -0.000928	      -0.053155
	 D(5,10,6,8)      =        -0.000543	      -0.031093
	 D(5,10,6,19)     =         3.113186	     178.372397
	 D(6,8,12,7)      =        -0.000787	      -0.045095
	 D(6,10,5,7)      =        -0.001032	      -0.059104
	 D(6,10,5,18)     =         3.112676	     178.343225
	 D(7,5,10,9)      =         3.140178	     179.918943
	 D(7,12,8,21)     =        -3.134977	    -179.620965
	 D(8,6,10,9)      =         3.141433	     179.990860
	 D(8,12,7,20)     =        -3.134867	    -179.614670
	 D(9,1,3,11)      =        -0.026113	      -1.496136
	 D(9,1,3,16)      =         3.106011	     177.961346
	 D(9,2,4,11)      =        -0.005421	      -0.310611
	 D(9,2,4,17)      =         3.123235	     178.948175
	 D(9,10,5,18)     =        -0.029299	      -1.678728
	 D(9,10,6,19)     =        -0.028024	      -1.605650
	 D(10,5,7,12)     =         0.001865	       0.106852
	 D(10,5,7,20)     =         3.135528	     179.652514
	 D(10,6,8,12)     =         0.001534	       0.087886
	 D(10,6,8,21)     =         3.135457	     179.648455
	 D(10,9,1,14)     =        -0.037115	      -2.126511
	 D(10,9,2,15)     =        -0.029822	      -1.708681
	 D(11,3,1,14)     =        -3.121545	    -178.851382
	 D(11,4,2,15)     =        -3.110728	    -178.231588
	 D(12,7,5,18)     =        -3.112035	    -178.306479
	 D(12,8,6,19)     =        -3.112388	    -178.326691
	 D(13,11,3,16)    =        -0.025093	      -1.437733
	 D(13,11,4,17)    =         0.059523	       3.410413
	 D(14,1,3,16)     =         0.010578	       0.606101
	 D(15,2,4,17)     =         0.017928	       1.027197
	 D(18,5,7,20)     =         0.021628	       1.239183
	 D(19,6,8,21)     =         0.021535	       1.233878

	Current energy   :      -553.7244125974

	Energy change for the previous step:
		Projected    :        -0.0000012605
		Actual       :         0.0000012226

	Performing BFGS update.
	Previous computed or guess Hessian on step 1.
	Steps to be used in Hessian update: 6 5
	Adding user-defined constraint: Fragment 1; Coordinate 73:
		Value =     0.520295; Fixed value    =     0.523600
		Force =     0.002148; Force constant =     0.650000
	Removing off-diagonal coupling between coordinate 73 and others.
	Taking RFO optimization step.
	Going to follow RFO solution 1.
	Rejecting RFO root 1 because normalization gives large value.
	Using RFO vector 2.
	Norm of target step-size    0.00300
	Projected energy change by RFO approximation:        -0.0000001981

	Back-transformation to cartesian coordinates...
	Successfully converged to displaced geometry.

	--- Internal Coordinate Step in ANG or DEG, aJ/ANG or AJ/DEG ---
	 ---------------------------------------------------------------------------
	   Coordinate                Previous        Force       Change         New 
	   ----------                --------       ------       ------       ------
	    1 R(1,3)          =      1.385337    -0.000080    -0.000010     1.385327
	    2 R(1,9)          =      1.393469    -0.000127    -0.000017     1.393453
	    3 R(1,14)         =      1.079871     0.000004    -0.000003     1.079868
	    4 R(2,4)          =      1.383877     0.000043     0.000003     1.383880
	    5 R(2,9)          =      1.394762    -0.000294    -0.000041     1.394721
	    6 R(2,15)         =      1.079859     0.000039     0.000010     1.079870
	    7 R(3,11)         =      1.388581    -0.000005    -0.000004     1.388576
	    8 R(3,16)         =      1.080728    -0.000036    -0.000014     1.080714
	    9 R(4,11)         =      1.387389    -0.000141    -0.000009     1.387380
	   10 R(4,17)         =      1.078817    -0.000039    -0.000009     1.078807
	   11 R(5,7)          =      1.385522     0.000042     0.000008     1.385529
	   12 R(5,10)         =      1.392085    -0.000158    -0.000019     1.392066
	   13 R(5,18)         =      1.079606     0.000043     0.000006     1.079612
	   14 R(6,8)          =      1.385530     0.000030     0.000006     1.385535
	   15 R(6,10)         =      1.392125    -0.000234    -0.000033     1.392091
	   16 R(6,19)         =      1.079544     0.000067     0.000013     1.079557
	   17 R(7,12)         =      1.335087    -0.000202    -0.000022     1.335065
	   18 R(7,20)         =      1.081156    -0.000042    -0.000011     1.081146
	   19 R(8,12)         =      1.335146    -0.000191    -0.000020     1.335126
	   20 R(8,21)         =      1.081143    -0.000045    -0.000012     1.081131
	   21 R(9,10)         =      1.461203     0.000232    -0.000019     1.461185
	   22 R(11,13)        =      1.366011     0.000264     0.000022     1.366033
	   23 R(13,22)        =      0.961605    -0.000037    -0.000013     0.961592
	   24 B(1,3,11)       =    119.984585    -0.000000    -0.000379   119.984206
	   25 B(1,3,16)       =    120.149474     0.000001     0.003134   120.152608
	   26 B(1,9,2)        =    118.164060     0.000002     0.004872   118.168932
	   27 B(1,9,10)       =    120.870575    -0.000000    -0.000138   120.870438
	   28 B(2,4,11)       =    119.902423    -0.000000    -0.000808   119.901615
	   29 B(2,4,17)       =    121.178652     0.000000     0.000718   121.179371
	   30 B(2,9,10)       =    120.965182    -0.000002    -0.004789   120.960393
	   31 B(3,1,9)        =    121.018783    -0.000001    -0.002537   121.016246
	   32 B(3,1,14)       =    119.274211     0.000000    -0.000170   119.274041
	   33 B(3,11,4)       =    119.732851     0.000000     0.001533   119.734383
	   34 B(3,11,13)      =    122.627796    -0.000001    -0.001273   122.626523
	   35 B(4,2,9)        =    121.176048    -0.000001    -0.002366   121.173682
	   36 B(4,2,15)       =    119.230582     0.000000     0.000631   119.231213
	   37 B(4,11,13)      =    117.541513     0.000000    -0.001012   117.540501
	   38 B(5,7,12)       =    123.717552    -0.000000     0.000886   123.718437
	   39 B(5,7,20)       =    120.041710     0.000001     0.001134   120.042844
	   40 B(5,10,6)       =    116.612165     0.000002     0.002948   116.615113
	   41 B(5,10,9)       =    121.693961     0.000000     0.001451   121.695412
	   42 B(6,8,12)       =    123.727083     0.000000     0.001494   123.728577
	   43 B(6,8,21)       =    120.033458     0.000001     0.000415   120.033874
	   44 B(6,10,9)       =    121.693870    -0.000002    -0.004398   121.689473
	   45 B(7,5,10)       =    119.686622    -0.000001    -0.002236   119.684386
	   46 B(7,5,18)       =    119.806301     0.000001     0.003805   119.810106
	   47 B(7,12,8)       =    116.581880     0.000001    -0.000857   116.581023
	   48 B(8,6,10)       =    119.674595    -0.000001    -0.002405   119.672191
	   49 B(8,6,19)       =    119.809538     0.000002     0.005530   119.815068
	   50 B(9,1,14)       =    119.654494     0.000001     0.003787   119.658281
	   51 B(9,2,15)       =    119.560991     0.000000     0.001888   119.562879
	   52 B(10,5,18)      =    120.487858    -0.000000    -0.000922   120.486937
	   53 B(10,6,19)      =    120.496675    -0.000001    -0.002271   120.494404
	   54 B(11,3,16)      =    119.863723    -0.000001    -0.002838   119.860885
	   55 B(11,4,17)      =    118.914862     0.000000     0.000056   118.914918
	   56 B(11,13,22)     =    109.086012    -0.000001    -0.005778   109.080235
	   57 B(12,7,20)      =    116.239292    -0.000001    -0.002512   116.236780
	   58 B(12,8,21)      =    116.238106    -0.000001    -0.002411   116.235694
	   59 D(1,3,11,4)     =      1.708075     0.000000    -0.008471     1.699604
	   60 D(1,3,11,13)    =    178.021310    -0.000001    -0.022621   177.998689
	   61 D(1,9,2,4)      =      0.531404     0.000000     0.017617     0.549021
	   62 D(1,9,2,15)     =    178.445614     0.000000     0.022562   178.468176
	   63 D(1,9,10,5)     =    -35.526915    -0.000000    -0.031733   -35.558648
	   64 D(1,9,10,6)     =    144.450018    -0.000000    -0.027930   144.422087
	   65 D(2,4,11,3)     =     -0.815611    -0.000000    -0.009299    -0.824910
	   66 D(2,4,11,13)    =   -177.314050     0.000000     0.004155  -177.309895
	   67 D(2,9,1,3)      =      0.374045    -0.000000    -0.035646     0.338399
	   68 D(2,9,1,14)     =    177.719347    -0.000000    -0.008234   177.711114
	   69 D(2,9,10,5)     =    144.631563     0.000000    -0.009452   144.622111
	   70 D(2,9,10,6)     =    -35.391504     0.000000    -0.005649   -35.397153
	   71 D(3,1,9,10)     =   -179.471813    -0.000000    -0.013957  -179.485770
	   72 D(3,11,4,17)    =    179.908852    -0.000000    -0.006216   179.902635
	   73 D(3,11,13,22)   =     29.810701     0.000002     0.013080    29.823780
	   74 D(4,2,9,10)     =   -179.622890    -0.000000    -0.004085  -179.626975
	   75 D(4,11,3,16)    =   -177.750968     0.000000     0.001632  -177.749336
	   76 D(4,11,13,22)   =   -153.799752     0.000002    -0.000687  -153.800440
	   77 D(5,7,12,8)     =     -0.053155    -0.000000    -0.023324    -0.076479
	   78 D(5,10,6,8)     =     -0.031093    -0.000000    -0.026159    -0.057251
	   79 D(5,10,6,19)    =    178.372397     0.000000     0.009870   178.382267
	   80 D(6,8,12,7)     =     -0.045095    -0.000000    -0.039005    -0.084100
	   81 D(6,10,5,7)     =     -0.059104    -0.000000    -0.031051    -0.090155
	   82 D(6,10,5,18)    =    178.343225     0.000000    -0.003850   178.339375
	   83 D(7,5,10,9)     =    179.918943    -0.000000    -0.027433   179.891510
	   84 D(7,12,8,21)    =   -179.620965     0.000000     0.033474  -179.587491
	   85 D(8,6,10,9)     =    179.990860    -0.000000    -0.029778   179.961083
	   86 D(8,12,7,20)    =   -179.614670     0.000000     0.045822  -179.568848
	   87 D(9,1,3,11)     =     -1.496136    -0.000000     0.031517    -1.464619
	   88 D(9,1,3,16)     =    177.961346    -0.000000     0.021351   177.982697
	   89 D(9,2,4,11)     =     -0.310611     0.000000     0.004554    -0.306057
	   90 D(9,2,4,17)     =    178.948175     0.000000     0.001395   178.949569
	   91 D(9,10,5,18)    =     -1.678728     0.000000    -0.000232    -1.678961
	   92 D(9,10,6,19)    =     -1.605650     0.000000     0.006251    -1.599399
	   93 D(10,5,7,12)    =      0.106852     0.000000     0.058927     0.165778
	   94 D(10,5,7,20)    =    179.652514    -0.000000    -0.012737   179.639778
	   95 D(10,6,8,12)    =      0.087886     0.000000     0.064603     0.152489
	   96 D(10,6,8,21)    =    179.648455    -0.000000    -0.010504   179.637950
	   97 D(10,9,1,14)    =     -2.126511     0.000000     0.013455    -2.113056
	   98 D(10,9,2,15)    =     -1.708681     0.000000     0.000860    -1.707820
	   99 D(11,3,1,14)    =   -178.851382    -0.000000     0.004105  -178.847277
	  100 D(11,4,2,15)    =   -178.231588     0.000000    -0.000401  -178.231990
	  101 D(12,7,5,18)    =   -178.306479     0.000000     0.031987  -178.274492
	  102 D(12,8,6,19)    =   -178.326691     0.000000     0.028946  -178.297745
	  103 D(13,11,3,16)   =     -1.437733    -0.000001    -0.012518    -1.450251
	  104 D(13,11,4,17)   =      3.410413     0.000001     0.007238     3.417651
	  105 D(14,1,3,16)    =      0.606101    -0.000000    -0.006061     0.600040
	  106 D(15,2,4,17)    =      1.027197     0.000000    -0.003560     1.023636
	  107 D(18,5,7,20)    =      1.239183    -0.000000    -0.039676     1.199507
	  108 D(19,6,8,21)    =      1.233878    -0.000000    -0.046161     1.187717
	 ---------------------------------------------------------------------------
	Successfully symmetrized geometry.
	 Forces used to impose fixed constraints are not included.
	  Forces zeroed: 73 

  ==> Convergence Check <==

  Measures of convergence in internal coordinates in au.
  Criteria marked as inactive (o), active & met (*), and active & unmet ( ).
  ---------------------------------------------------------------------------------------------
   Step     Total Energy     Delta E     MAX Force     RMS Force      MAX Disp      RMS Disp   
  ---------------------------------------------------------------------------------------------
    Convergence Criteria    1.00e-06 *    3.00e-04 *             o    1.20e-03 *             o
  ---------------------------------------------------------------------------------------------
      7    -553.72441260    1.22e-06      9.33e-05 *    1.61e-05 o    1.13e-03 *    2.89e-04 o  ~
  ---------------------------------------------------------------------------------------------


  **** Optimization is complete! (in 7 steps) ****

  ==> Optimization Summary <==

  Measures of convergence in internal coordinates in au.
  --------------------------------------------------------------------------------------------------------------- ~
   Step         Total Energy             Delta E       MAX Force       RMS Force        MAX Disp        RMS Disp  ~
  --------------------------------------------------------------------------------------------------------------- ~
      1    -553.720382395989   -553.720382395989      0.01868427      0.00474916      0.03458160      0.00961528  ~
      2    -553.723500019497     -0.003117623508      0.00536147      0.00155203      0.03315094      0.00960527  ~
      3    -553.724232177245     -0.000732157748      0.00103088      0.00036660      0.03239742      0.00962424  ~
      4    -553.724381237200     -0.000149059955      0.00072324      0.00017972      0.02811960      0.00560523  ~
      5    -553.724408990148     -0.000027752948      0.00030091      0.00009044      0.01178806      0.00249497  ~
      6    -553.724413820051     -0.000004829903      0.00025117      0.00004368      0.00226613      0.00061186  ~
      7    -553.724412597402      0.000001222649      0.00014266      0.00002117      0.00112753      0.00028912  ~
  --------------------------------------------------------------------------------------------------------------- ~

	Writing optimization data to binary file.
	Final energy is   -553.7244125974023
	Final (previous) structure:
	Cartesian Geometry (in Angstrom)
	    C    -1.2463647276   0.7556353596  -0.5659797088
	    C    -0.3205394996   0.0644281986   1.5285153894
	    C    -2.3193527523   1.3302564740   0.0955830809
	    C    -1.3983013207   0.6197106480   2.1957532757
	    C     0.7629281270  -1.0917468283  -1.8035077822
	    C     2.1918018753  -0.4596836301  -0.0227944353
	    C     1.8690348310  -1.6411631989  -2.4314723442
	    C     3.2388526145  -1.0367290109  -0.7230768084
	    C    -0.2273507477   0.1169038770   0.1378595686
	    C     0.9086845591  -0.4781045851  -0.5625003667
	    C    -2.4065657447   1.2477757432   1.4789656258
	    N     3.0995624638  -1.6244164391  -1.9138062110
	    O    -3.4190345456   1.8280408403   2.1890256676
	    H    -1.1803352022   0.8427537762  -1.6403031621
	    H     0.4436432437  -0.4469432782   2.0947489635
	    H    -3.0851181938   1.8507154557  -0.4618207513
	    H    -1.4787663176   0.5644513727   3.2701447037
	    H    -0.2091189646  -1.1650736113  -2.2675083576
	    H     2.3809639102   0.0229243310   0.9241603370
	    H     1.7613987789  -2.1240661667  -3.3927830689
	    H     4.2386646417  -1.0207091805  -0.3119933307
	    H    -4.2110123524   1.8530662172   1.6442045836
	Saving final (previous) structure.
			--------------------------
			 OPTKING Finished Execution 
			--------------------------

    Final optimized geometry and variables:
    Molecular point group: c1
    Full point group: C1

    Geometry (in Angstrom), charge = 0, multiplicity = 1:

    C           -1.246364727567     0.755635359606    -0.565979708795
    C           -0.320539499554     0.064428198557     1.528515389359
    C           -2.319352752282     1.330256474013     0.095583080914
    C           -1.398301320656     0.619710648000     2.195753275683
    C            0.762928126959    -1.091746828341    -1.803507782248
    C            2.191801875265    -0.459683630063    -0.022794435339
    C            1.869034830967    -1.641163198870    -2.431472344175
    C            3.238852614524    -1.036729010914    -0.723076808412
    C           -0.227350747669     0.116903877043     0.137859568607
    C            0.908684559115    -0.478104585069    -0.562500366692
    C           -2.406565744653     1.247775743233     1.478965625777
    N            3.099562463839    -1.624416439098    -1.913806211006
    O           -3.419034545609     1.828040840283     2.189025667647
    H           -1.180335202196     0.842753776230    -1.640303162144
    H            0.443643243739    -0.446943278204     2.094748963511
    H           -3.085118193788     1.850715455665    -0.461820751274
    H           -1.478766317606     0.564451372666     3.270144703724
    H           -0.209118964644    -1.165073611321    -2.267508357560
    H            2.380963910193     0.022924330970     0.924160337010
    H            1.761398778915    -2.124066166724    -3.392783068905
    H            4.238664641675    -1.020709180482    -0.311993330723
    H           -4.211012352384     1.853066217153     1.644204583634

	Cleaning optimization helper files.

*** Psi4 exiting successfully. Buy a developer a beer!
