
    -----------------------------------------------------------------------
          Psi4: An Open-Source Ab Initio Electronic Structure Package
                               Psi4 1.1 release

                         Git: Rev {HEAD} add49b9 


    R. M. Parrish, L. A. Burns, D. G. A. Smith, A. C. Simmonett,
    A. E. DePrince III, E. G. Hohenstein, U. Bozkaya, A. Yu. Sokolov,
    R. Di Remigio, R. M. Richard, J. F. Gonthier, A. M. James,
    H. R. McAlexander, A. Kumar, M. Saitow, X. Wang, B. P. Pritchard,
    P. Verma, H. F. Schaefer III, K. Patkowski, R. A. King, E. F. Valeev,
    F. A. Evangelista, J. M. Turney, T. D. Crawford, and C. D. Sherrill,
    J. Chem. Theory Comput. in press (2017).
    (doi: 10.1021/acs.jctc.7b00174)

    -----------------------------------------------------------------------


    Psi4 started on: Saturday, 11 November 2017 06:12PM

    Process ID:  23852
    PSIDATADIR: /cbio/jclab/home/chayas/anaconda/envs/py35/share/psi4
    Memory:     500.0 MiB
    Threads:    8
    
  ==> Input File <==

--------------------------------------------------------------------------

memory 5 Gb

molecule phepyrF {
  symmetry C1
  0 1 
  C      1.885   -1.036   -0.112
  C      0.807   -0.463   0.561
  C      2.921   -1.631   0.608
  C      0.764   -0.484   1.955
  C      3.789   -2.577   4.091
  C      5.160   -2.560   2.115
  C      4.850   -3.169   4.757
  C      6.160   -3.153   2.870
  C      2.878   -1.652   2.002
  C      3.955   -2.270   2.745
  C      1.800   -1.079   2.676
  N      6.035   -3.466   4.179
  F      1.744   -1.089   4.016
  H      1.918   -1.020   -1.198
  H      0.000   -0.000   -0.000
  H      3.755   -2.073   0.068
  H      -0.076   -0.038   2.480
  H      2.863   -2.366   4.617
  H      5.327   -2.335   1.067
  H      4.770   -3.430   5.807
  H      7.119   -3.399   2.426
  units Angstrom
}

dih_string = "3 9 10 5 195"
set optking fixed_dihedral = $dih_string

optimize('MP2/aug-cc-PVTZ')
--------------------------------------------------------------------------

  Memory set to   4.657 GiB by Python driver.
gradient() will perform analytic gradient computation.

*** tstart() called on gpu-1-16.local
*** at Sat Nov 11 18:12:59 2017

    SCF Algorithm Type (re)set to DF.

*** tstart() called on gpu-1-16.local
*** at Sat Nov 11 18:12:59 2017

   => Loading Basis Set <=

    Name: AUG-CC-PVTZ
    Role: ORBITAL
    Keyword: BASIS
    atoms 1-11  entry C          line   221 file /cbio/jclab/home/chayas/anaconda/envs/py35/share/psi4/basis/aug-cc-pvtz.gbs 
    atoms 12    entry N          line   267 file /cbio/jclab/home/chayas/anaconda/envs/py35/share/psi4/basis/aug-cc-pvtz.gbs 
    atoms 13    entry F          line   359 file /cbio/jclab/home/chayas/anaconda/envs/py35/share/psi4/basis/aug-cc-pvtz.gbs 
    atoms 14-21 entry H          line    34 file /cbio/jclab/home/chayas/anaconda/envs/py35/share/psi4/basis/aug-cc-pvtz.gbs 


         ---------------------------------------------------------
                                   SCF
            by Justin Turney, Rob Parrish, and Andy Simmonett
                              RHF Reference
                        8 Threads,   4768 MiB Core
         ---------------------------------------------------------

  ==> Geometry <==

    Molecular point group: c1
    Full point group: C1

    Geometry (in Angstrom), charge = 0, multiplicity = 1:

       Center              X                  Y                   Z               Mass       
    ------------   -----------------  -----------------  -----------------  -----------------
           C         -1.368977893897     0.841267906358    -2.662609605367    12.000000000000
           C         -2.446977893897     1.414267906358    -1.989609605367    12.000000000000
           C         -0.332977893897     0.246267906358    -1.942609605367    12.000000000000
           C         -2.489977893897     1.393267906358    -0.595609605367    12.000000000000
           C          0.535022106103    -0.699732093642     1.540390394633    12.000000000000
           C          1.906022106103    -0.682732093642    -0.435609605367    12.000000000000
           C          1.596022106103    -1.291732093642     2.206390394633    12.000000000000
           C          2.906022106103    -1.275732093642     0.319390394633    12.000000000000
           C         -0.375977893897     0.225267906358    -0.548609605367    12.000000000000
           C          0.701022106103    -0.392732093642     0.194390394633    12.000000000000
           C         -1.453977893897     0.798267906358     0.125390394633    12.000000000000
           N          2.781022106103    -1.588732093642     1.628390394633    14.003074004780
           F         -1.509977893897     0.788267906358     1.465390394633    18.998403224000
           H         -1.335977893897     0.857267906358    -3.748609605367     1.007825032070
           H         -3.253977893897     1.877267906358    -2.550609605367     1.007825032070
           H          0.501022106103    -0.195732093642    -2.482609605367     1.007825032070
           H         -3.329977893897     1.839267906358    -0.070609605367     1.007825032070
           H         -0.390977893897    -0.488732093642     2.066390394633     1.007825032070
           H          2.073022106103    -0.457732093642    -1.483609605367     1.007825032070
           H          1.516022106103    -1.552732093642     3.256390394633     1.007825032070
           H          3.865022106103    -1.521732093642    -0.124609605367     1.007825032070

  Running in c1 symmetry.

  Rotational constants: A =      0.06386  B =      0.01882  C =      0.01463 [cm^-1]
  Rotational constants: A =   1914.43468  B =    564.12115  C =    438.68130 [MHz]
  Nuclear repulsion =  718.980529344948764

  Charge       = 0
  Multiplicity = 1
  Electrons    = 90
  Nalpha       = 45
  Nbeta        = 45

  ==> Algorithm <==

  SCF Algorithm Type is DF.
  DIIS enabled.
  MOM disabled.
  Fractional occupation disabled.
  Guess Type is SAD.
  Energy threshold   = 1.00e-10
  Density threshold  = 1.00e-10
  Integral threshold = 0.00e+00

  ==> Primary Basis <==

  Basis Set: AUG-CC-PVTZ
    Blend: AUG-CC-PVTZ
    Number of shells: 254
    Number of basis function: 782
    Number of Cartesian functions: 915
    Spherical Harmonics?: true
    Max angular momentum: 3

   => Loading Basis Set <=

    Name: (AUG-CC-PVTZ AUX)
    Role: JKFIT
    Keyword: DF_BASIS_SCF
    atoms 1-11  entry C          line   161 file /cbio/jclab/home/chayas/anaconda/envs/py35/share/psi4/basis/aug-cc-pvtz-jkfit.gbs 
    atoms 12    entry N          line   223 file /cbio/jclab/home/chayas/anaconda/envs/py35/share/psi4/basis/aug-cc-pvtz-jkfit.gbs 
    atoms 13    entry F          line   347 file /cbio/jclab/home/chayas/anaconda/envs/py35/share/psi4/basis/aug-cc-pvtz-jkfit.gbs 
    atoms 14-21 entry H          line    69 file /cbio/jclab/home/chayas/anaconda/envs/py35/share/psi4/basis/aug-cc-pvtz-jkfit.gbs 

  ==> Pre-Iterations <==

   -------------------------------------------------------
    Irrep   Nso     Nmo     Nalpha   Nbeta   Ndocc  Nsocc
   -------------------------------------------------------
     A        782     782       0       0       0       0
   -------------------------------------------------------
    Total     782     782      45      45      45       0
   -------------------------------------------------------

  ==> Integral Setup <==

  ==> DFJK: Density-Fitted J/K Matrices <==

    J tasked:                  Yes
    K tasked:                  Yes
    wK tasked:                  No
    OpenMP threads:              8
    Integrals threads:           8
    Memory (MB):              3576
    Algorithm:                Disk
    Integral Cache:           NONE
    Schwarz Cutoff:          1E-12
    Fitting Condition:       1E-12

   => Auxiliary Basis Set <=

  Basis Set: (AUG-CC-PVTZ AUX)
    Blend: AUG-CC-PVTZ-JKFIT
    Number of shells: 502
    Number of basis function: 1720
    Number of Cartesian functions: 2143
    Spherical Harmonics?: true
    Max angular momentum: 4

  Minimum eigenvalue in the overlap matrix is 5.9335256229E-07.
  Using Symmetric Orthogonalization.

  SCF Guess: Superposition of Atomic Densities via on-the-fly atomic UHF.

  ==> Iterations <==

                           Total Energy        Delta E     RMS |[F,P]|

   @DF-RHF iter   0:  -580.71642303334590   -5.80716e+02   1.45745e-02 
   @DF-RHF iter   1:  -574.91316799469109    5.80326e+00   1.65477e-03 
   @DF-RHF iter   2:  -575.21723135580658   -3.04063e-01   5.68095e-04 DIIS
   @DF-RHF iter   3:  -575.25922027354568   -4.19889e-02   3.71772e-04 DIIS
   @DF-RHF iter   4:  -575.26921533779239   -9.99506e-03   9.63916e-05 DIIS
   @DF-RHF iter   5:  -575.27058592699382   -1.37059e-03   4.90814e-05 DIIS
   @DF-RHF iter   6:  -575.27080766920426   -2.21742e-04   1.60262e-05 DIIS
   @DF-RHF iter   7:  -575.27083332108612   -2.56519e-05   4.91666e-06 DIIS
   @DF-RHF iter   8:  -575.27083514718674   -1.82610e-06   1.67893e-06 DIIS
   @DF-RHF iter   9:  -575.27083543793947   -2.90753e-07   4.37649e-07 DIIS
   @DF-RHF iter  10:  -575.27083550328302   -6.53436e-08   3.03815e-07 DIIS
   @DF-RHF iter  11:  -575.27083552972908   -2.64461e-08   1.31566e-07 DIIS
   @DF-RHF iter  12:  -575.27083553555110   -5.82202e-09   5.27136e-08 DIIS
   @DF-RHF iter  13:  -575.27083553628290   -7.31802e-10   2.13120e-08 DIIS
   @DF-RHF iter  14:  -575.27083553641762   -1.34719e-10   6.53728e-09 DIIS
   @DF-RHF iter  15:  -575.27083553643786   -2.02363e-11   5.29293e-09 DIIS
   @DF-RHF iter  16:  -575.27083553645866   -2.08047e-11   2.50211e-09 DIIS
   @DF-RHF iter  17:  -575.27083553644763    1.10276e-11   7.74404e-10 DIIS
   @DF-RHF iter  18:  -575.27083553645127   -3.63798e-12   2.57648e-10 DIIS
   @DF-RHF iter  19:  -575.27083553645912   -7.84439e-12   2.06406e-10 DIIS
   @DF-RHF iter  20:  -575.27083553643320    2.59206e-11   7.67392e-11 DIIS

  ==> Post-Iterations <==

    Orbital Energies (a.u.)
    -----------------------

    Doubly Occupied:                                                      

       1A    -26.330030     2A    -15.562459     3A    -11.344979  
       4A    -11.273207     5A    -11.270399     6A    -11.265205  
       7A    -11.263185     8A    -11.260498     9A    -11.259851  
      10A    -11.258148    11A    -11.252675    12A    -11.238857  
      13A    -11.229258    14A     -1.654039    15A     -1.248251  
      16A     -1.185709    17A     -1.114181    18A     -1.039797  
      19A     -1.031337    20A     -1.026375    21A     -0.894028  
      22A     -0.878183    23A     -0.844710    24A     -0.824716  
      25A     -0.761217    26A     -0.734432    27A     -0.720986  
      28A     -0.716792    29A     -0.672164    30A     -0.661540  
      31A     -0.650168    32A     -0.625887    33A     -0.609106  
      34A     -0.591993    35A     -0.583856    36A     -0.551713  
      37A     -0.542028    38A     -0.523359    39A     -0.517301  
      40A     -0.500592    41A     -0.416103    42A     -0.415622  
      43A     -0.355347    44A     -0.346506    45A     -0.323153  

    Virtual:                                                              

      46A      0.022937    47A      0.028774    48A      0.033853  
      49A      0.040396    50A      0.043596    51A      0.047971  
      52A      0.057636    53A      0.059364    54A      0.063152  
      55A      0.078499    56A      0.084415    57A      0.085409  
      58A      0.090102    59A      0.092103    60A      0.100551  
      61A      0.104699    62A      0.106075    63A      0.109590  
      64A      0.114805    65A      0.115457    66A      0.116854  
      67A      0.117971    68A      0.126248    69A      0.131041  
      70A      0.134630    71A      0.135335    72A      0.139220  
      73A      0.140880    74A      0.142425    75A      0.147393  
      76A      0.149954    77A      0.153233    78A      0.157334  
      79A      0.164475    80A      0.167705    81A      0.174436  
      82A      0.181514    83A      0.185865    84A      0.186734  
      85A      0.189311    86A      0.196772    87A      0.206230  
      88A      0.211534    89A      0.216989    90A      0.222508  
      91A      0.229039    92A      0.231501    93A      0.234696  
      94A      0.238953    95A      0.245032    96A      0.249745  
      97A      0.252142    98A      0.256179    99A      0.260509  
     100A      0.261953   101A      0.266808   102A      0.269052  
     103A      0.278525   104A      0.284180   105A      0.286583  
     106A      0.290233   107A      0.294184   108A      0.297900  
     109A      0.301107   110A      0.303601   111A      0.306981  
     112A      0.314147   113A      0.317218   114A      0.321464  
     115A      0.323980   116A      0.332785   117A      0.336564  
     118A      0.340771   119A      0.344717   120A      0.350596  
     121A      0.352027   122A      0.359161   123A      0.367576  
     124A      0.370607   125A      0.378350   126A      0.385973  
     127A      0.390303   128A      0.394356   129A      0.402669  
     130A      0.407215   131A      0.412969   132A      0.413915  
     133A      0.418016   134A      0.424242   135A      0.429633  
     136A      0.434248   137A      0.436951   138A      0.439332  
     139A      0.442765   140A      0.443556   141A      0.451364  
     142A      0.454120   143A      0.458002   144A      0.462443  
     145A      0.466108   146A      0.471263   147A      0.472796  
     148A      0.473776   149A      0.477923   150A      0.484106  
     151A      0.491756   152A      0.493245   153A      0.494606  
     154A      0.498278   155A      0.500833   156A      0.502747  
     157A      0.505823   158A      0.509163   159A      0.513662  
     160A      0.518949   161A      0.523249   162A      0.524827  
     163A      0.531220   164A      0.533782   165A      0.537556  
     166A      0.544014   167A      0.547232   168A      0.548811  
     169A      0.555895   170A      0.558898   171A      0.561208  
     172A      0.566041   173A      0.577508   174A      0.579051  
     175A      0.584306   176A      0.590190   177A      0.596578  
     178A      0.598763   179A      0.612291   180A      0.617267  
     181A      0.622826   182A      0.629537   183A      0.636029  
     184A      0.644317   185A      0.649905   186A      0.656323  
     187A      0.658319   188A      0.665546   189A      0.678762  
     190A      0.684370   191A      0.690111   192A      0.696362  
     193A      0.699797   194A      0.703935   195A      0.709724  
     196A      0.713279   197A      0.717118   198A      0.721027  
     199A      0.732494   200A      0.738122   201A      0.738674  
     202A      0.745385   203A      0.747833   204A      0.754653  
     205A      0.757423   206A      0.765993   207A      0.772970  
     208A      0.788286   209A      0.790509   210A      0.801168  
     211A      0.806808   212A      0.808274   213A      0.812704  
     214A      0.819070   215A      0.828977   216A      0.833921  
     217A      0.841128   218A      0.850984   219A      0.858309  
     220A      0.863311   221A      0.868588   222A      0.870202  
     223A      0.875184   224A      0.881975   225A      0.886348  
     226A      0.889495   227A      0.894895   228A      0.896274  
     229A      0.899893   230A      0.905040   231A      0.908351  
     232A      0.914865   233A      0.917221   234A      0.917976  
     235A      0.923279   236A      0.931448   237A      0.938629  
     238A      0.948661   239A      0.952993   240A      0.959767  
     241A      0.962642   242A      0.969319   243A      0.971213  
     244A      0.974414   245A      0.980456   246A      0.981265  
     247A      0.984984   248A      0.988038   249A      0.992504  
     250A      1.000360   251A      1.004010   252A      1.009401  
     253A      1.015713   254A      1.017264   255A      1.024412  
     256A      1.026804   257A      1.028434   258A      1.035850  
     259A      1.044015   260A      1.045434   261A      1.048004  
     262A      1.060098   263A      1.061414   264A      1.068264  
     265A      1.073569   266A      1.080715   267A      1.084753  
     268A      1.089994   269A      1.090349   270A      1.092601  
     271A      1.097545   272A      1.102292   273A      1.110732  
     274A      1.116153   275A      1.120042   276A      1.126149  
     277A      1.129699   278A      1.135165   279A      1.136871  
     280A      1.144204   281A      1.158635   282A      1.167993  
     283A      1.168963   284A      1.175020   285A      1.177728  
     286A      1.180712   287A      1.188770   288A      1.188954  
     289A      1.197201   290A      1.197923   291A      1.206113  
     292A      1.210352   293A      1.212127   294A      1.213986  
     295A      1.226650   296A      1.228209   297A      1.232963  
     298A      1.243568   299A      1.248139   300A      1.257804  
     301A      1.261352   302A      1.271191   303A      1.275646  
     304A      1.280148   305A      1.283168   306A      1.292963  
     307A      1.296448   308A      1.307398   309A      1.307584  
     310A      1.310772   311A      1.317688   312A      1.325503  
     313A      1.332299   314A      1.336425   315A      1.353211  
     316A      1.355121   317A      1.363858   318A      1.369440  
     319A      1.379812   320A      1.386893   321A      1.390238  
     322A      1.393853   323A      1.399215   324A      1.414841  
     325A      1.426342   326A      1.431878   327A      1.440018  
     328A      1.441241   329A      1.453492   330A      1.468553  
     331A      1.477563   332A      1.485455   333A      1.498969  
     334A      1.509229   335A      1.519972   336A      1.522883  
     337A      1.528535   338A      1.532826   339A      1.545182  
     340A      1.548505   341A      1.566607   342A      1.576127  
     343A      1.580015   344A      1.584794   345A      1.598266  
     346A      1.606806   347A      1.610900   348A      1.625543  
     349A      1.636257   350A      1.643180   351A      1.656059  
     352A      1.659584   353A      1.664169   354A      1.670878  
     355A      1.678296   356A      1.687485   357A      1.696399  
     358A      1.704663   359A      1.706853   360A      1.715382  
     361A      1.719533   362A      1.733405   363A      1.737103  
     364A      1.743675   365A      1.751440   366A      1.763456  
     367A      1.769188   368A      1.785695   369A      1.790400  
     370A      1.798925   371A      1.805727   372A      1.809023  
     373A      1.821171   374A      1.823419   375A      1.824831  
     376A      1.845604   377A      1.849464   378A      1.859425  
     379A      1.872340   380A      1.879647   381A      1.889139  
     382A      1.893106   383A      1.906722   384A      1.913180  
     385A      1.917258   386A      1.930249   387A      1.937840  
     388A      1.943627   389A      1.955757   390A      1.966821  
     391A      1.973350   392A      1.976755   393A      1.983441  
     394A      1.991799   395A      1.999678   396A      2.002758  
     397A      2.014747   398A      2.015750   399A      2.025108  
     400A      2.028444   401A      2.033458   402A      2.039253  
     403A      2.044173   404A      2.057620   405A      2.062724  
     406A      2.077061   407A      2.082905   408A      2.092388  
     409A      2.097148   410A      2.104801   411A      2.107021  
     412A      2.112770   413A      2.120100   414A      2.127873  
     415A      2.136019   416A      2.158196   417A      2.167728  
     418A      2.169713   419A      2.177487   420A      2.179510  
     421A      2.183848   422A      2.192628   423A      2.202410  
     424A      2.208785   425A      2.218832   426A      2.227923  
     427A      2.232635   428A      2.252091   429A      2.257343  
     430A      2.267785   431A      2.279267   432A      2.285523  
     433A      2.295376   434A      2.303996   435A      2.313638  
     436A      2.325928   437A      2.334621   438A      2.338142  
     439A      2.356197   440A      2.360300   441A      2.370229  
     442A      2.387125   443A      2.397230   444A      2.399978  
     445A      2.414022   446A      2.426935   447A      2.446828  
     448A      2.457928   449A      2.464289   450A      2.480406  
     451A      2.490204   452A      2.500197   453A      2.509724  
     454A      2.526372   455A      2.539147   456A      2.554986  
     457A      2.559394   458A      2.579372   459A      2.592560  
     460A      2.609339   461A      2.615992   462A      2.649267  
     463A      2.654665   464A      2.660144   465A      2.680866  
     466A      2.709807   467A      2.725015   468A      2.747467  
     469A      2.752739   470A      2.777614   471A      2.789777  
     472A      2.806934   473A      2.807702   474A      2.844807  
     475A      2.846541   476A      2.891032   477A      2.907961  
     478A      2.912486   479A      2.979831   480A      3.002278  
     481A      3.012153   482A      3.040289   483A      3.058491  
     484A      3.069062   485A      3.073159   486A      3.096124  
     487A      3.119883   488A      3.132146   489A      3.151240  
     490A      3.170211   491A      3.188115   492A      3.189178  
     493A      3.203684   494A      3.220324   495A      3.230820  
     496A      3.232721   497A      3.247565   498A      3.287107  
     499A      3.293952   500A      3.297575   501A      3.311867  
     502A      3.325473   503A      3.339461   504A      3.347617  
     505A      3.357640   506A      3.359078   507A      3.370738  
     508A      3.383734   509A      3.403523   510A      3.405088  
     511A      3.416631   512A      3.423386   513A      3.441853  
     514A      3.446983   515A      3.460793   516A      3.463468  
     517A      3.468623   518A      3.482717   519A      3.493266  
     520A      3.506399   521A      3.511322   522A      3.519420  
     523A      3.521153   524A      3.528064   525A      3.538725  
     526A      3.545266   527A      3.548728   528A      3.555008  
     529A      3.568751   530A      3.574807   531A      3.580133  
     532A      3.589678   533A      3.603218   534A      3.611572  
     535A      3.622790   536A      3.632890   537A      3.656230  
     538A      3.661147   539A      3.665079   540A      3.677888  
     541A      3.682336   542A      3.694347   543A      3.702661  
     544A      3.706798   545A      3.713537   546A      3.723435  
     547A      3.729396   548A      3.739572   549A      3.757879  
     550A      3.767070   551A      3.777119   552A      3.782962  
     553A      3.791048   554A      3.800086   555A      3.807506  
     556A      3.817692   557A      3.827229   558A      3.833603  
     559A      3.850600   560A      3.856723   561A      3.864440  
     562A      3.868740   563A      3.875486   564A      3.885055  
     565A      3.889941   566A      3.893852   567A      3.904984  
     568A      3.921977   569A      3.929204   570A      3.936659  
     571A      3.939073   572A      3.950545   573A      3.962568  
     574A      3.967585   575A      3.972128   576A      3.978676  
     577A      3.992565   578A      3.995262   579A      4.004617  
     580A      4.015418   581A      4.021177   582A      4.021850  
     583A      4.027881   584A      4.053047   585A      4.058405  
     586A      4.061993   587A      4.071790   588A      4.098213  
     589A      4.106016   590A      4.111176   591A      4.114870  
     592A      4.128648   593A      4.144382   594A      4.153916  
     595A      4.171572   596A      4.173075   597A      4.187266  
     598A      4.191111   599A      4.194861   600A      4.204565  
     601A      4.216167   602A      4.227598   603A      4.232724  
     604A      4.241940   605A      4.250981   606A      4.258813  
     607A      4.277771   608A      4.286017   609A      4.291588  
     610A      4.301426   611A      4.309698   612A      4.318448  
     613A      4.332279   614A      4.338547   615A      4.347954  
     616A      4.351767   617A      4.356079   618A      4.370926  
     619A      4.380126   620A      4.387561   621A      4.401265  
     622A      4.413233   623A      4.422552   624A      4.425985  
     625A      4.440069   626A      4.449498   627A      4.460778  
     628A      4.477464   629A      4.479885   630A      4.492765  
     631A      4.505992   632A      4.509249   633A      4.522870  
     634A      4.530042   635A      4.537271   636A      4.559540  
     637A      4.564660   638A      4.591806   639A      4.606144  
     640A      4.620125   641A      4.626595   642A      4.633928  
     643A      4.638203   644A      4.667026   645A      4.676060  
     646A      4.698511   647A      4.711017   648A      4.716136  
     649A      4.726240   650A      4.740989   651A      4.759726  
     652A      4.771569   653A      4.789196   654A      4.800367  
     655A      4.809617   656A      4.827883   657A      4.830177  
     658A      4.858687   659A      4.879020   660A      4.883109  
     661A      4.919085   662A      4.925347   663A      4.941056  
     664A      4.949569   665A      4.961901   666A      4.986920  
     667A      4.994282   668A      5.008883   669A      5.011360  
     670A      5.030709   671A      5.038270   672A      5.047629  
     673A      5.060234   674A      5.070800   675A      5.093514  
     676A      5.109069   677A      5.120800   678A      5.125239  
     679A      5.128742   680A      5.140324   681A      5.143788  
     682A      5.152559   683A      5.168277   684A      5.172505  
     685A      5.188202   686A      5.198076   687A      5.207203  
     688A      5.219800   689A      5.239059   690A      5.243484  
     691A      5.258765   692A      5.312118   693A      5.320509  
     694A      5.326758   695A      5.342509   696A      5.355618  
     697A      5.377634   698A      5.380026   699A      5.419791  
     700A      5.426052   701A      5.463646   702A      5.464987  
     703A      5.471083   704A      5.491545   705A      5.545831  
     706A      5.562137   707A      5.574079   708A      5.583577  
     709A      5.600083   710A      5.652710   711A      5.669323  
     712A      5.677332   713A      5.701150   714A      5.722847  
     715A      5.753103   716A      5.767400   717A      5.800743  
     718A      5.820107   719A      5.846957   720A      5.855179  
     721A      5.868183   722A      5.888344   723A      5.895262  
     724A      5.917476   725A      5.987922   726A      6.000126  
     727A      6.084152   728A      6.085968   729A      6.173312  
     730A      6.195420   731A      6.207044   732A      6.227605  
     733A      6.233895   734A      6.298005   735A      6.307742  
     736A      6.382151   737A      6.397895   738A      6.450370  
     739A      6.476557   740A      6.493369   741A      6.577386  
     742A      6.587265   743A      6.639130   744A      6.685979  
     745A      6.725135   746A      6.739530   747A      6.754559  
     748A      6.822677   749A      6.891671   750A      6.963107  
     751A      6.995646   752A      7.017620   753A      7.084365  
     754A      7.100345   755A      7.299272   756A      7.463778  
     757A      7.506152   758A      9.142335   759A      9.204925  
     760A      9.297057   761A      9.349017   762A      9.432793  
     763A      9.544089   764A      9.556129   765A      9.626819  
     766A      9.711414   767A      9.741164   768A     10.084874  
     769A     10.105239   770A     15.578045   771A     16.252773  
     772A     16.670267   773A     16.828544   774A     17.265361  
     775A     18.530877   776A     18.890537   777A     19.241528  
     778A     19.749812   779A     20.251301   780A     20.470626  
     781A     20.871260   782A     21.462373  

    Final Occupation by Irrep:
              A 
    DOCC [    45 ]

  Energy converged.

  @DF-RHF Final Energy:  -575.27083553643320

   => Energetics <=

    Nuclear Repulsion Energy =            718.9805293449487635
    One-Electron Energy =               -2209.7628439923619226
    Two-Electron Energy =                 915.5114791109799626
    DFT Exchange-Correlation Energy =       0.0000000000000000
    Empirical Dispersion Energy =           0.0000000000000000
    PCM Polarization Energy =               0.0000000000000000
    EFP Energy =                            0.0000000000000000
    Total Energy =                       -575.2708355364331965



Properties will be evaluated at   0.000000,   0.000000,   0.000000 Bohr

Properties computed using the SCF density matrix

  Nuclear Dipole Moment: (a.u.)
     X:     1.0828      Y:    -0.4042      Z:    -6.2037

  Electronic Dipole Moment: (a.u.)
     X:    -1.9933      Y:     0.9352      Z:     5.0553

  Dipole Moment: (a.u.)
     X:    -0.9105      Y:     0.5310      Z:    -1.1485     Total:     1.5589

  Dipole Moment: (Debye)
     X:    -2.3144      Y:     1.3498      Z:    -2.9191     Total:     3.9622


*** tstop() called on gpu-1-16.local at Sat Nov 11 18:20:06 2017
Module time:
	user time   =     999.96 seconds =      16.67 minutes
	system time =      47.44 seconds =       0.79 minutes
	total time  =        427 seconds =       7.12 minutes
Total time:
	user time   =     999.97 seconds =      16.67 minutes
	system time =      47.44 seconds =       0.79 minutes
	total time  =        427 seconds =       7.12 minutes

  //>>>>>>>>>>>>>>>>>>>>>>>>>>>>>>>>>>>//
  //               DFMP2               //
  //<<<<<<<<<<<<<<<<<<<<<<<<<<<<<<<<<<<//

   => Loading Basis Set <=

    Name: (AUG-CC-PVTZ AUX)
    Role: RIFIT
    Keyword: DF_BASIS_MP2
    atoms 1-11  entry C          line   147 file /cbio/jclab/home/chayas/anaconda/envs/py35/share/psi4/basis/aug-cc-pvtz-ri.gbs 
    atoms 12    entry N          line   205 file /cbio/jclab/home/chayas/anaconda/envs/py35/share/psi4/basis/aug-cc-pvtz-ri.gbs 
    atoms 13    entry F          line   321 file /cbio/jclab/home/chayas/anaconda/envs/py35/share/psi4/basis/aug-cc-pvtz-ri.gbs 
    atoms 14-21 entry H          line    29 file /cbio/jclab/home/chayas/anaconda/envs/py35/share/psi4/basis/aug-cc-pvtz-ri.gbs 

	 --------------------------------------------------------
	                          DF-MP2                         
	      2nd-Order Density-Fitted Moller-Plesset Theory     
	              RMP2 Wavefunction,   8 Threads             
	                                                         
	        Rob Parrish, Justin Turney, Andy Simmonett,      
	           Ed Hohenstein, and C. David Sherrill          
	 --------------------------------------------------------

   => Auxiliary Basis Set <=

  Basis Set: (AUG-CC-PVTZ AUX)
    Blend: AUG-CC-PVTZ-RI
    Number of shells: 476
    Number of basis function: 1746
    Number of Cartesian functions: 2208
    Spherical Harmonics?: true
    Max angular momentum: 4

	 --------------------------------------------------------
	                 NBF =   782, NAUX =  1746
	 --------------------------------------------------------
	   CLASS    FOCC     OCC    AOCC    AVIR     VIR    FVIR
	   PAIRS       0      45      45     737     737       0
	 --------------------------------------------------------


         ------------------------------------------------------------
                                     CPHF                           
                                  Rob Parrish                       
         ------------------------------------------------------------

  ==> Geometry <==

    Molecular point group: c1
    Full point group: C1

    Geometry (in Angstrom), charge = 0, multiplicity = 1:

       Center              X                  Y                   Z               Mass       
    ------------   -----------------  -----------------  -----------------  -----------------
           C         -1.368977893897     0.841267906358    -2.662609605367    12.000000000000
           C         -2.446977893897     1.414267906358    -1.989609605367    12.000000000000
           C         -0.332977893897     0.246267906358    -1.942609605367    12.000000000000
           C         -2.489977893897     1.393267906358    -0.595609605367    12.000000000000
           C          0.535022106103    -0.699732093642     1.540390394633    12.000000000000
           C          1.906022106103    -0.682732093642    -0.435609605367    12.000000000000
           C          1.596022106103    -1.291732093642     2.206390394633    12.000000000000
           C          2.906022106103    -1.275732093642     0.319390394633    12.000000000000
           C         -0.375977893897     0.225267906358    -0.548609605367    12.000000000000
           C          0.701022106103    -0.392732093642     0.194390394633    12.000000000000
           C         -1.453977893897     0.798267906358     0.125390394633    12.000000000000
           N          2.781022106103    -1.588732093642     1.628390394633    14.003074004780
           F         -1.509977893897     0.788267906358     1.465390394633    18.998403224000
           H         -1.335977893897     0.857267906358    -3.748609605367     1.007825032070
           H         -3.253977893897     1.877267906358    -2.550609605367     1.007825032070
           H          0.501022106103    -0.195732093642    -2.482609605367     1.007825032070
           H         -3.329977893897     1.839267906358    -0.070609605367     1.007825032070
           H         -0.390977893897    -0.488732093642     2.066390394633     1.007825032070
           H          2.073022106103    -0.457732093642    -1.483609605367     1.007825032070
           H          1.516022106103    -1.552732093642     3.256390394633     1.007825032070
           H          3.865022106103    -1.521732093642    -0.124609605367     1.007825032070

  Nuclear repulsion =  718.980529344948764
  Reference energy  = -575.270835536433196

  ==> Basis Set <==

  Basis Set: AUG-CC-PVTZ
    Blend: AUG-CC-PVTZ
    Number of shells: 254
    Number of basis function: 782
    Number of Cartesian functions: 915
    Spherical Harmonics?: true
    Max angular momentum: 3

  ==> CGRSolver (by Rob Parrish) <==

   Number of roots    =         1
   Preconditioning    =    JACOBI
   Convergence cutoff =     1E-06
   Maximum iterations =       100

  ==> CPHFRHamiltonian (by Rob Parrish) <== 

  ==> DFJK: Density-Fitted J/K Matrices <==

    J tasked:                  Yes
    K tasked:                  Yes
    wK tasked:                  No
    OpenMP threads:              8
    Integrals threads:           8
    Memory (MB):              3576
    Algorithm:                Disk
    Integral Cache:           NONE
    Schwarz Cutoff:          1E-12
    Fitting Condition:       1E-12

   => Auxiliary Basis Set <=

  Basis Set: (AUG-CC-PVTZ AUX)
    Blend: AUG-CC-PVTZ-JKFIT
    Number of shells: 502
    Number of basis function: 1720
    Number of Cartesian functions: 2143
    Spherical Harmonics?: true
    Max angular momentum: 4

  ==> CPHF Iterations <==

  => Iterations <=

             Iter  Converged  Remaining    Residual
  CGR           1          0          1   9.806E-02
  CGR           2          0          1   2.979E-02
  CGR           3          0          1   1.994E-02
  CGR           4          0          1   9.778E-03
  CGR           5          0          1   3.932E-03
  CGR           6          0          1   1.532E-03
  CGR           7          0          1   4.877E-04
  CGR           8          0          1   2.044E-04
  CGR           9          0          1   1.033E-04
  CGR          10          0          1   4.169E-05
  CGR          11          0          1   1.556E-05
  CGR          12          0          1   5.110E-06
  CGR          13          0          1   1.638E-06
  CGR          14          1          0   5.727E-07

    CGRSolver converged.

  ==> DFCorrGrad: Density-Fitted Correlated Gradients <==

    OpenMP threads:              8
    Integrals threads:           8
    Memory (MB):              3576
    Schwarz Cutoff:          0E+00
    Fitting Condition:       1E-12

   => Auxiliary Basis Set <=

  Basis Set: (AUG-CC-PVTZ AUX)
    Blend: AUG-CC-PVTZ-JKFIT
    Number of shells: 502
    Number of basis function: 1720
    Number of Cartesian functions: 2143
    Spherical Harmonics?: true
    Max angular momentum: 4

	-----------------------------------------------------------
	 ==================> DF-MP2 Energies <==================== 
	-----------------------------------------------------------
	 Reference Energy          =    -575.2708355364331965 [Eh]
	 Singles Energy            =      -0.0000000000000002 [Eh]
	 Same-Spin Energy          =      -0.6099018469629320 [Eh]
	 Opposite-Spin Energy      =      -1.8346553883312946 [Eh]
	 Correlation Energy        =      -2.4445572352942264 [Eh]
	 Total Energy              =    -577.7153927717274655 [Eh]
	-----------------------------------------------------------
	 ================> DF-SCS-MP2 Energies <================== 
	-----------------------------------------------------------
	 SCS Same-Spin Scale       =       0.3333333333333333 [-]
	 SCS Opposite-Spin Scale   =       1.2000000000000000 [-]
	 SCS Same-Spin Energy      =      -0.2033006156543107 [Eh]
	 SCS Opposite-Spin Energy  =      -2.2015864659975533 [Eh]
	 SCS Correlation Energy    =      -2.4048870816518639 [Eh]
	 SCS Total Energy          =    -577.6757226180850466 [Eh]
	-----------------------------------------------------------


  -Total Gradient:
     Atom            X                  Y                   Z
    ------   -----------------  -----------------  -----------------
       1       -0.003321035721     0.001562929788     0.000407273713
       2       -0.003149555823     0.001688649470    -0.002632613838
       3        0.015512648423    -0.009774319569     0.008145471602
       4        0.000697988339    -0.000329620351    -0.005139255875
       5       -0.010432539326     0.009384436078    -0.010180156786
       6       -0.006924170350     0.005468619449    -0.008458102817
       7       -0.013720852093     0.005208122717     0.004086155252
       8       -0.002026299612     0.003900361615    -0.010071293339
       9       -0.003996076597     0.002733307237    -0.005200089854
      10        0.003812540484    -0.002887125405     0.001754972619
      11        0.012593674701    -0.006350082182     0.029426753366
      12        0.011079790686    -0.006898932271     0.007005851668
      13        0.013955182723    -0.014112093291     0.004761862886
      14        0.000312182393     0.000177383111    -0.005292563548
      15       -0.003430499749     0.002083805318    -0.003837428100
      16        0.007152781443    -0.001935566098    -0.005028228870
      17       -0.004850668373     0.002543653379     0.000912409002
      18       -0.015430252762     0.008780770567     0.004024812063
      19       -0.001068792438     0.000616696956    -0.007018710237
      20        0.000543723525    -0.000911999396     0.002698600140
      21        0.002690230120    -0.000948997127    -0.000365719053


*** tstop() called on gpu-1-16.local at Sat Nov 11 18:47:51 2017
Module time:
	user time   =    4593.25 seconds =      76.55 minutes
	system time =     103.25 seconds =       1.72 minutes
	total time  =       2092 seconds =      34.87 minutes
Total time:
	user time   =    4593.26 seconds =      76.55 minutes
	system time =     103.25 seconds =       1.72 minutes
	total time  =       2092 seconds =      34.87 minutes

			-----------------------------------------
			 OPTKING 2.0: for geometry optimizations 
			  - R.A. King,  Bethel University        
			-----------------------------------------

	Internal coordinates to be generated automatically.
	Detected frag 1 with atoms:  1 2 3 4 5 6 7 8 9 10 11 12 13 14 15 16 17 18 19 20
	 21
	---Fragment 1 Bond Connectivity---
	 1 : 2 3 14
	 2 : 1 4 15
	 3 : 1 9 16
	 4 : 2 11 17
	 5 : 7 10 18
	 6 : 8 10 19
	 7 : 5 12 20
	 8 : 6 12 21
	 9 : 3 10 11
	 10 : 5 6 9
	 11 : 4 9 13
	 12 : 7 8
	 13 : 11
	 14 : 1
	 15 : 2
	 16 : 3
	 17 : 4
	 18 : 5
	 19 : 6
	 20 : 7
	 21 : 8

	Assuming in current code that numbering for constraints corresponds to unified fragment.
	Fixed dihedral atom list: 
	     3     9    10     5
	---Fragment 1 Geometry and Gradient---
	 C          -2.5869933014        1.5897659474       -5.0316029529
	 C          -4.6241180727        2.6725790215       -3.7598172655
	 C          -0.6292370278        0.4653788983       -3.6710001373
	 C          -4.7053762964        2.6328947728       -1.1255390363
	 C           1.0110452556       -1.3223020234        2.9109159836
	 C           3.6018597838       -1.2901766791       -0.8231828550
	 C           3.0160446826       -2.4410198940        4.1694735881
	 C           5.4915859166       -2.4107842759        0.6035603753
	 C          -0.7104952515        0.4256946495       -1.0367219080
	 C           1.3247397936       -0.7421561006        0.3673446087
	 C          -2.7476200227        1.5085077237        0.2369535055
	 N           5.2553701500       -3.0022685555        3.0772118833
	 F          -2.8534446862        1.4896104624        2.7691865236
	 H          -2.5246323391        1.6200015655       -7.0838455332
	 H          -6.1491270619        3.5475222211       -4.8199536261
	 H           0.9467945671       -0.3698800524       -4.6914522490
	 H          -6.2927462480        3.4757126280       -0.1334328165
	 H          -0.7388411435       -0.9235698093        3.9049119295
	 H           3.9174440480       -0.8649882992       -2.8036158423
	 H           2.8648665919       -2.9342384147        6.1536860276
	 H           7.3038332781       -2.8756569046       -0.2354780277
	            -0.0033210357        0.0015629298        0.0004072737
	            -0.0031495558        0.0016886495       -0.0026326138
	             0.0155126484       -0.0097743196        0.0081454716
	             0.0006979883       -0.0003296204       -0.0051392559
	            -0.0104325393        0.0093844361       -0.0101801568
	            -0.0069241704        0.0054686194       -0.0084581028
	            -0.0137208521        0.0052081227        0.0040861553
	            -0.0020262996        0.0039003616       -0.0100712933
	            -0.0039960766        0.0027333072       -0.0052000899
	             0.0038125405       -0.0028871254        0.0017549726
	             0.0125936747       -0.0063500822        0.0294267534
	             0.0110797907       -0.0068989323        0.0070058517
	             0.0139551827       -0.0141120933        0.0047618629
	             0.0003121824        0.0001773831       -0.0052925635
	            -0.0034304997        0.0020838053       -0.0038374281
	             0.0071527814       -0.0019355661       -0.0050282289
	            -0.0048506684        0.0025436534        0.0009124090
	            -0.0154302528        0.0087807706        0.0040248121
	            -0.0010687924        0.0006166970       -0.0070187102
	             0.0005437235       -0.0009119994        0.0026986001
	             0.0026902301       -0.0009489971       -0.0003657191

	Previous optimization step data not found.  Starting new optimization.

	---Fragment 1 Intrafragment Coordinates---
	 - Coordinate -           - BOHR/RAD -       - ANG/DEG -
	 R(1,2)           =         2.634350	       1.394038
	 R(1,3)           =         2.635962	       1.394891
	 R(1,14)          =         2.053412	       1.086619
	 R(2,4)           =         2.635830	       1.394821
	 R(2,15)          =         2.053063	       1.086434
	 R(3,9)           =         2.635830	       1.394821
	 R(3,16)          =         2.054959	       1.087437
	 R(4,11)          =         2.636938	       1.395407
	 R(4,17)          =         2.052891	       1.086343
	 R(5,7)           =         2.618305	       1.385547
	 R(5,10)          =         2.627685	       1.390511
	 R(5,18)          =         2.051613	       1.085667
	 R(6,8)           =         2.619623	       1.386245
	 R(6,10)          =         2.627348	       1.390333
	 R(6,19)          =         2.049998	       1.084812
	 R(7,12)          =         2.553941	       1.351487
	 R(7,20)          =         2.050175	       1.084906
	 R(8,12)          =         2.554330	       1.351693
	 R(8,21)          =         2.050447	       1.085050
	 R(9,10)          =         2.734494	       1.447032
	 R(9,11)          =         2.635263	       1.394521
	 R(11,13)         =         2.534514	       1.341207
	 B(1,2,4)         =         2.094553	     120.009056
	 B(1,2,15)        =         2.094721	     120.018646
	 B(1,3,9)         =         2.093692	     119.959722
	 B(1,3,16)        =         2.079074	     119.122177
	 B(2,1,3)         =         2.094940	     120.031219
	 B(2,1,14)        =         2.094311	     119.995189
	 B(2,4,11)        =         2.094306	     119.994870
	 B(2,4,17)        =         2.095140	     120.042665
	 B(3,1,14)        =         2.093934	     119.973570
	 B(3,9,10)        =         2.090528	     119.778448
	 B(3,9,11)        =         2.095181	     120.045019
	 B(4,2,15)        =         2.093912	     119.972298
	 B(4,11,9)        =         2.093699	     119.960108
	 B(4,11,13)       =         2.081063	     119.236128
	 B(5,7,12)        =         2.164881	     124.038563
	 B(5,7,20)        =         2.107765	     120.766063
	 B(5,10,6)        =         2.089828	     119.738328
	 B(5,10,9)        =         2.097247	     120.163384
	 B(6,8,12)        =         2.164917	     124.040613
	 B(6,8,21)        =         2.107949	     120.776571
	 B(6,10,9)        =         2.096110	     120.098274
	 B(7,5,10)        =         2.058055	     117.917893
	 B(7,5,18)        =         2.098207	     120.218414
	 B(7,12,8)        =         2.031263	     116.382774
	 B(8,6,10)        =         2.057426	     117.881824
	 B(8,6,19)        =         2.098822	     120.253615
	 B(9,3,16)        =         2.110419	     120.918077
	 B(9,11,13)       =         2.108422	     120.803676
	 B(10,5,18)       =         2.126923	     121.863686
	 B(10,6,19)       =         2.126938	     121.864558
	 B(10,9,11)       =         2.097476	     120.176533
	 B(11,4,17)       =         2.093740	     119.962450
	 B(12,7,20)       =         2.010536	     115.195240
	 B(12,8,21)       =         2.010319	     115.182811
	 D(1,2,4,11)      =        -0.000325	      -0.018609
	 D(1,2,4,17)      =        -3.141151	    -179.974682
	 D(1,3,9,10)      =        -3.141334	    -179.985190
	 D(1,3,9,11)      =         0.000325	       0.018608
	 D(2,1,3,9)       =        -0.000348	      -0.019945
	 D(2,1,3,16)      =        -3.140969	    -179.964243
	 D(2,4,11,9)      =         0.000301	       0.017261
	 D(2,4,11,13)     =         3.140029	     179.910408
	 D(3,1,2,4)       =         0.000348	       0.019955
	 D(3,1,2,15)      =        -3.141142	    -179.974167
	 D(3,9,10,5)      =        -2.879879	    -165.004924
	 D(3,9,10,6)      =         0.260946	      14.951099
	 D(3,9,11,4)      =        -0.000301	      -0.017270
	 D(3,9,11,13)     =        -3.139999	    -179.908714
	 D(4,2,1,14)      =         3.141002	     179.966134
	 D(4,11,9,10)     =         3.141358	     179.986543
	 D(5,7,12,8)      =         0.000356	       0.020376
	 D(5,10,6,8)      =         0.000191	       0.010917
	 D(5,10,6,19)     =        -3.141109	    -179.972312
	 D(5,10,9,11)     =         0.261647	      14.991274
	 D(6,8,12,7)      =        -0.000401	      -0.022952
	 D(6,10,5,7)      =        -0.000231	      -0.013228
	 D(6,10,5,18)     =        -3.141280	    -179.982076
	 D(6,10,9,11)     =        -2.880713	    -165.052704
	 D(7,5,10,9)      =         3.140597	     179.942953
	 D(7,12,8,21)     =         3.140752	     179.951815
	 D(8,6,10,9)      =        -3.140638	    -179.945293
	 D(8,12,7,20)     =         3.139638	     179.888007
	 D(9,3,1,14)      =        -3.141002	    -179.966136
	 D(9,10,5,18)     =        -0.000452	      -0.025895
	 D(9,10,6,19)     =         0.001248	       0.071478
	 D(9,11,4,17)     =         3.141128	     179.973370
	 D(10,5,7,12)     =        -0.000050	      -0.002873
	 D(10,5,7,20)     =        -3.139210	    -179.863479
	 D(10,6,8,12)     =         0.000137	       0.007852
	 D(10,6,8,21)     =        -3.140992	    -179.965570
	 D(10,9,3,16)     =        -0.000731	      -0.041910
	 D(10,9,11,13)    =         0.001660	       0.095099
	 D(11,4,2,15)     =         3.141165	     179.975516
	 D(11,9,3,16)     =         3.140927	     179.961888
	 D(12,7,5,18)     =         3.141008	     179.966509
	 D(12,8,6,19)     =         3.141442	     179.991362
	 D(13,11,4,17)    =        -0.002330	      -0.133484
	 D(14,1,2,15)     =        -0.000488	      -0.027988
	 D(14,1,3,16)     =         0.001563	       0.089566
	 D(15,2,4,17)     =         0.000339	       0.019443
	 D(18,5,7,20)     =         0.001848	       0.105903
	 D(19,6,8,21)     =         0.000313	       0.017940
	 R(5,13)          =         4.781341	       2.530177

	Current energy   :      -577.7153927717

	Generating empirical Hessian (Schlegel '84) for each fragment.
	Adding user-defined constraint: Fragment 1; Coordinate 67:
		Value =    -2.879879; Fixed value    =    -2.879793
		Force =     0.000043; Force constant =     0.500000
	Removing off-diagonal coupling between coordinate 67 and others.
	Taking RFO optimization step.
	Going to follow RFO solution 1.
	Using RFO vector 1.

	Determining step-restricting scale parameter for RS-RFO.
	Maximum step size allowed    0.10000

	 Iter      |step|        alpha        rfo_root  
	------------------------------------------------
	    0     0.44331       1.00000           1
	    1     0.28946       3.83994           1
	    2     0.19724      11.00388           1
	    3     0.14321      25.49416           1
	    4     0.11416      45.30434           1
	    5     0.10238      59.32613           1
	    6     0.10009      62.70763           1
	    7     0.10000      62.84152           1
	------------------------------------------------
	Norm of target step-size    0.10000
	Projected energy change by RFO approximation:        -0.0062018627

	Back-transformation to cartesian coordinates...
	Could not converge backtransformation.
	Using first guess instead.

	--- Internal Coordinate Step in ANG or DEG, aJ/ANG or AJ/DEG ---
	 ---------------------------------------------------------------------------
	   Coordinate                Previous        Force       Change         New 
	   ----------                --------       ------       ------       ------
	    1 R(1,2)          =      1.394038    -0.052232    -0.003984     1.390054
	    2 R(1,3)          =      1.394891    -0.064096    -0.004707     1.390185
	    3 R(1,14)         =      1.086619    -0.043678    -0.003697     1.082922
	    4 R(2,4)          =      1.394821    -0.085542    -0.006462     1.388359
	    5 R(2,15)         =      1.086434    -0.044635    -0.003765     1.082669
	    6 R(3,9)          =      1.394821     0.015164     0.001439     1.396260
	    7 R(3,16)         =      1.087437    -0.072248    -0.006096     1.081341
	    8 R(4,11)         =      1.395407    -0.113452    -0.008324     1.387083
	    9 R(4,17)         =      1.086343    -0.043139    -0.003581     1.082762
	   10 R(5,7)          =      1.385547     0.013870     0.001069     1.386617
	   11 R(5,10)         =      1.390511     0.062164     0.005027     1.395538
	   12 R(5,18)         =      1.085667    -0.138554    -0.011541     1.074126
	   13 R(6,8)          =      1.386245    -0.020047    -0.001533     1.384711
	   14 R(6,10)         =      1.390333     0.035663     0.003114     1.393447
	   15 R(6,19)         =      1.084812    -0.055562    -0.004619     1.080193
	   16 R(7,12)         =      1.351487    -0.128897    -0.008955     1.342532
	   17 R(7,20)         =      1.084906    -0.022994    -0.001941     1.082965
	   18 R(8,12)         =      1.351693    -0.133713    -0.009370     1.342324
	   19 R(8,21)         =      1.085050    -0.022596    -0.001898     1.083152
	   20 R(9,10)         =      1.447032     0.178926     0.014986     1.462018
	   21 R(9,11)         =      1.394521    -0.049035    -0.002953     1.391568
	   22 R(11,13)        =      1.341207    -0.035217    -0.002293     1.338914
	   23 B(1,2,4)        =    120.009056    -0.000068    -0.108034   119.901023
	   24 B(1,2,15)       =    120.018646     0.000129     0.181155   120.199800
	   25 B(1,3,9)        =    119.959722     0.000524     0.680572   120.640294
	   26 B(1,3,16)       =    119.122177    -0.000197    -0.256448   118.865729
	   27 B(2,1,3)        =    120.031219     0.000002     0.005279   120.036498
	   28 B(2,1,14)       =    119.995189    -0.000008    -0.011245   119.983944
	   29 B(2,4,11)       =    119.994870    -0.000274    -0.339191   119.655679
	   30 B(2,4,17)       =    120.042665     0.000281     0.361466   120.404131
	   31 B(3,1,14)       =    119.973570     0.000006     0.005956   119.979526
	   32 B(3,9,10)       =    119.778448     0.001180     1.233452   121.011899
	   33 B(3,9,11)       =    120.045019    -0.001381    -1.605123   118.439896
	   34 B(4,2,15)       =    119.972298    -0.000061    -0.073126   119.899172
	   35 B(4,11,9)       =    119.960108     0.001197     1.366446   121.326554
	   36 B(4,11,13)      =    119.236128    -0.000303    -0.427144   118.808983
	   37 B(5,7,12)       =    124.038563     0.000324     0.358682   124.397246
	   38 B(5,7,20)       =    120.766063    -0.000223    -0.260943   120.505120
	   39 B(5,10,6)       =    119.738328    -0.001335    -1.477969   118.260358
	   40 B(5,10,9)       =    120.163384     0.000766     0.930949   121.094333
	   41 B(6,8,12)       =    124.040613     0.000079     0.031450   124.072063
	   42 B(6,8,21)       =    120.776571    -0.000107    -0.105803   120.670768
	   43 B(6,10,9)       =    120.098274     0.000569     0.547019   120.645293
	   44 B(7,5,10)       =    117.917893     0.000244     0.366361   118.284254
	   45 B(7,5,18)       =    120.218414    -0.000589    -0.817020   119.401394
	   46 B(7,12,8)       =    116.382774     0.000008    -0.138496   116.244279
	   47 B(8,6,10)       =    117.881824     0.000680     0.859918   118.741743
	   48 B(8,6,19)       =    120.253615    -0.000472    -0.610138   119.643477
	   49 B(9,3,16)       =    120.918077    -0.000327    -0.424151   120.493926
	   50 B(9,11,13)      =    120.803676    -0.000895    -0.940054   119.863623
	   51 B(10,5,18)      =    121.863686     0.000345     0.449952   122.313638
	   52 B(10,6,19)      =    121.864558    -0.000208    -0.249935   121.614624
	   53 B(10,9,11)      =    120.176533     0.000202     0.371501   120.548034
	   54 B(11,4,17)      =    119.962450    -0.000007    -0.022260   119.940190
	   55 B(12,7,20)      =    115.195240    -0.000101    -0.097754   115.097486
	   56 B(12,8,21)      =    115.182811     0.000028     0.074333   115.257144
	   57 D(1,2,4,11)     =     -0.018609    -0.000005    -0.044497    -0.063106
	   58 D(1,2,4,17)     =   -179.974682    -0.000010    -0.088874  -180.063555
	   59 D(1,3,9,10)     =   -179.985190     0.000005     0.058535  -179.926655
	   60 D(1,3,9,11)     =      0.018608    -0.000010    -0.094529    -0.075922
	   61 D(2,1,3,9)      =     -0.019945     0.000007     0.059309     0.039365
	   62 D(2,1,3,16)     =   -179.964243    -0.000011    -0.078312  -180.042555
	   63 D(2,4,11,9)     =      0.017261     0.000002     0.008161     0.025422
	   64 D(2,4,11,13)    =    179.910408    -0.000027    -0.218911   179.691496
	   65 D(3,1,2,4)      =      0.019955     0.000001     0.011172     0.031126
	   66 D(3,1,2,15)     =   -179.974167    -0.000003    -0.021244  -179.995411
	   67 D(3,9,10,5)     =   -165.004924     0.000037     0.210822  -164.794102
	   68 D(3,9,10,6)     =     14.951099     0.000045     0.302044    15.253143
	   69 D(3,9,11,4)     =     -0.017270     0.000005     0.060948     0.043678
	   70 D(3,9,11,13)    =   -179.908714     0.000035     0.289789  -179.618924
	   71 D(4,2,1,14)     =    179.966134    -0.000001    -0.000142   179.965992
	   72 D(4,11,9,10)    =    179.986543    -0.000009    -0.091414   179.895129
	   73 D(5,7,12,8)     =      0.020376    -0.000008    -0.065303    -0.044927
	   74 D(5,10,6,8)     =      0.010917    -0.000000     0.008416     0.019333
	   75 D(5,10,6,19)    =   -179.972312     0.000017     0.136160  -179.836152
	   76 D(5,10,9,11)    =     14.991274     0.000051     0.367031    15.358304
	   77 D(6,8,12,7)     =     -0.022952     0.000001     0.005963    -0.016989
	   78 D(6,10,5,7)     =     -0.013228    -0.000007    -0.061323    -0.074552
	   79 D(6,10,5,18)    =   -179.982076     0.000028     0.217153  -179.764924
	   80 D(6,10,9,11)    =   -165.052704     0.000060     0.458253  -164.594451
	   81 D(7,5,10,9)     =    179.942953     0.000002     0.028642   179.971595
	   82 D(7,12,8,21)    =    179.951815    -0.000003    -0.025736   179.926078
	   83 D(8,6,10,9)     =   -179.945293    -0.000008    -0.081305  -180.026598
	   84 D(8,12,7,20)    =    179.888007    -0.000010    -0.072584   179.815422
	   85 D(9,3,1,14)     =   -179.966136     0.000008     0.070632  -179.895503
	   86 D(9,10,5,18)    =     -0.025895     0.000037     0.307118     0.281223
	   87 D(9,10,6,19)    =      0.071478     0.000008     0.046439     0.117917
	   88 D(9,11,4,17)    =    179.973370     0.000007     0.052499   180.025869
	   89 D(10,5,7,12)    =     -0.002873     0.000011     0.094499     0.091627
	   90 D(10,5,7,20)    =   -179.863479     0.000013     0.101889  -179.761590
	   91 D(10,6,8,12)    =      0.007852     0.000003     0.020836     0.028688
	   92 D(10,6,8,21)    =   -179.965570     0.000007     0.054123  -179.911447
	   93 D(10,9,3,16)    =     -0.041910     0.000023     0.198512     0.156602
	   94 D(10,9,11,13)   =      0.095099     0.000020     0.137428     0.232527
	   95 D(11,4,2,15)    =    179.975516    -0.000002    -0.012165   179.963350
	   96 D(11,9,3,16)    =    179.961888     0.000008     0.045448   180.007336
	   97 D(12,7,5,18)    =    179.966509    -0.000023    -0.175246   179.791263
	   98 D(12,8,6,19)    =    179.991362    -0.000013    -0.104275   179.887088
	   99 D(13,11,4,17)   =     -0.133484    -0.000022    -0.174573    -0.308057
	  100 D(14,1,2,15)    =     -0.027988    -0.000004    -0.032558    -0.060546
	  101 D(14,1,3,16)    =      0.089566    -0.000009    -0.066989     0.022577
	  102 D(15,2,4,17)    =      0.019443    -0.000007    -0.056541    -0.037098
	  103 D(18,5,7,20)    =      0.105903    -0.000021    -0.167857    -0.061954
	  104 D(19,6,8,21)    =      0.017940    -0.000009    -0.070988    -0.053048
	  105 R(5,13)         =      2.530177     0.184783     0.026441     2.556617
	 ---------------------------------------------------------------------------
	Successfully symmetrized geometry.
	 Forces used to impose fixed constraints are not included.
	  Forces zeroed: 67 

  ==> Convergence Check <==

  Measures of convergence in internal coordinates in au.
  Criteria marked as inactive (o), active & met (*), and active & unmet ( ).
  --------------------------------------------------------------------------------------------- ~
   Step     Total Energy     Delta E     MAX Force     RMS Force      MAX Disp      RMS Disp    ~
  --------------------------------------------------------------------------------------------- ~
    Convergence Criteria    1.00e-06 *    3.00e-04 *             o    1.20e-03 *             o  ~
  --------------------------------------------------------------------------------------------- ~
      1    -577.71539277   -5.78e+02      2.24e-02      6.46e-03 o    5.00e-02      9.78e-03 o  ~
  ---------------------------------------------------------------------------------------------

	Writing optimization data to binary file.
	Structure for next step:
	Cartesian Geometry (in Angstrom)
	    C    -1.3906008362   0.8497356881  -2.6714863117
	    C    -2.4618212503   1.4238755028  -1.9968754574
	    C    -0.3569184902   0.2545798221  -1.9574111854
	    C    -2.4974044787   1.4025511812  -0.6091362333
	    C     0.5478367791  -0.7117407755   1.5483033818
	    C     1.9199245378  -0.6910941388  -0.4132340130
	    C     1.6131686525  -1.3013704601   2.2117114586
	    C     2.9192233391  -1.2800024277   0.3430821282
	    C    -0.3811136148   0.2250024212  -0.5616741193
	    C     0.7023672366  -0.3973190230   0.1974575408
	    C    -1.4618508737   0.8058847968   0.0948646998
	    N     2.7937468231  -1.5923210038   1.6425224834
	    F    -1.5103727597   0.8004579259   1.4328880259
	    H    -1.3617456258   0.8651213276  -3.7539143715
	    H    -3.2683016977   1.8880212072  -2.5503472985
	    H     0.4667504228  -0.1869227873  -2.5014176798
	    H    -3.3273485811   1.8482302744  -0.0753424669
	    H    -0.3635157765  -0.5172525233   2.0824918880
	    H     2.0991721155  -0.4685406299  -1.4549428055
	    H     1.5311197729  -1.5638741029   3.2591717216
	    H     3.8781485337  -1.5203962414  -0.0995130989
			--------------------------
			 OPTKING Finished Execution 
			--------------------------

    Structure for next step:
    Molecular point group: c1
    Full point group: C1

    Geometry (in Angstrom), charge = 0, multiplicity = 1:

    C           -1.390090497546     0.848474039899    -2.667536894100
    C           -2.461310911667     1.422613854554    -1.992926039756
    C           -0.356408151485     0.253318173895    -1.953461767788
    C           -2.496894140005     1.401289532923    -0.605186815638
    C            0.548347117751    -0.713002423774     1.552252799472
    C            1.920434876470    -0.692355787092    -0.409284595360
    C            1.613678991221    -1.302632108371     2.215660876244
    C            2.919733677755    -1.281264075951     0.347031545838
    C           -0.380603276118     0.223740772989    -0.557724701672
    C            0.702877575277    -0.398580671215     0.201406958475
    C           -1.461340535051     0.804623148521     0.098814117410
    N            2.794257161771    -1.593582652021     1.646471901036
    F           -1.509862421035     0.799196277654     1.436837443553
    H           -1.361235287093     0.863859679395    -3.749964953838
    H           -3.267791359060     1.886759558943    -2.546397880824
    H            0.467260761466    -0.188184435555    -2.497468262126
    H           -3.326838242466     1.846968626152    -0.071393049224
    H           -0.363005437872    -0.518514171564     2.086441305647
    H            2.099682454168    -0.469802278189    -1.450993387840
    H            1.531630111544    -1.565135751119     3.263121139206
    H            3.878658872338    -1.521657889693    -0.095563681256

gradient() will perform analytic gradient computation.

*** tstart() called on gpu-1-16.local
*** at Sat Nov 11 18:47:52 2017

    SCF Algorithm Type (re)set to DF.

*** tstart() called on gpu-1-16.local
*** at Sat Nov 11 18:47:52 2017

   => Loading Basis Set <=

    Name: AUG-CC-PVTZ
    Role: ORBITAL
    Keyword: BASIS
    atoms 1-11  entry C          line   221 file /cbio/jclab/home/chayas/anaconda/envs/py35/share/psi4/basis/aug-cc-pvtz.gbs 
    atoms 12    entry N          line   267 file /cbio/jclab/home/chayas/anaconda/envs/py35/share/psi4/basis/aug-cc-pvtz.gbs 
    atoms 13    entry F          line   359 file /cbio/jclab/home/chayas/anaconda/envs/py35/share/psi4/basis/aug-cc-pvtz.gbs 
    atoms 14-21 entry H          line    34 file /cbio/jclab/home/chayas/anaconda/envs/py35/share/psi4/basis/aug-cc-pvtz.gbs 


         ---------------------------------------------------------
                                   SCF
            by Justin Turney, Rob Parrish, and Andy Simmonett
                              RHF Reference
                        8 Threads,   4768 MiB Core
         ---------------------------------------------------------

  ==> Geometry <==

    Molecular point group: c1
    Full point group: C1

    Geometry (in Angstrom), charge = 0, multiplicity = 1:

       Center              X                  Y                   Z               Mass       
    ------------   -----------------  -----------------  -----------------  -----------------
           C         -1.390090497546     0.848474039899    -2.667536894100    12.000000000000
           C         -2.461310911667     1.422613854554    -1.992926039756    12.000000000000
           C         -0.356408151485     0.253318173895    -1.953461767788    12.000000000000
           C         -2.496894140005     1.401289532923    -0.605186815638    12.000000000000
           C          0.548347117751    -0.713002423774     1.552252799472    12.000000000000
           C          1.920434876470    -0.692355787092    -0.409284595360    12.000000000000
           C          1.613678991221    -1.302632108371     2.215660876244    12.000000000000
           C          2.919733677755    -1.281264075951     0.347031545838    12.000000000000
           C         -0.380603276118     0.223740772989    -0.557724701672    12.000000000000
           C          0.702877575277    -0.398580671215     0.201406958475    12.000000000000
           C         -1.461340535051     0.804623148521     0.098814117410    12.000000000000
           N          2.794257161771    -1.593582652021     1.646471901036    14.003074004780
           F         -1.509862421035     0.799196277654     1.436837443553    18.998403224000
           H         -1.361235287093     0.863859679395    -3.749964953838     1.007825032070
           H         -3.267791359060     1.886759558943    -2.546397880824     1.007825032070
           H          0.467260761466    -0.188184435555    -2.497468262126     1.007825032070
           H         -3.326838242466     1.846968626152    -0.071393049224     1.007825032070
           H         -0.363005437872    -0.518514171564     2.086441305647     1.007825032070
           H          2.099682454168    -0.469802278189    -1.450993387840     1.007825032070
           H          1.531630111544    -1.565135751119     3.263121139206     1.007825032070
           H          3.878658872338    -1.521657889693    -0.095563681256     1.007825032070

  Running in c1 symmetry.

  Rotational constants: A =      0.06479  B =      0.01852  C =      0.01451 [cm^-1]
  Rotational constants: A =   1942.28419  B =    555.30933  C =    434.86733 [MHz]
  Nuclear repulsion =  718.191366309286082

  Charge       = 0
  Multiplicity = 1
  Electrons    = 90
  Nalpha       = 45
  Nbeta        = 45

  ==> Algorithm <==

  SCF Algorithm Type is DF.
  DIIS enabled.
  MOM disabled.
  Fractional occupation disabled.
  Guess Type is READ.
  Energy threshold   = 1.00e-10
  Density threshold  = 1.00e-10
  Integral threshold = 0.00e+00

  ==> Primary Basis <==

  Basis Set: AUG-CC-PVTZ
    Blend: AUG-CC-PVTZ
    Number of shells: 254
    Number of basis function: 782
    Number of Cartesian functions: 915
    Spherical Harmonics?: true
    Max angular momentum: 3

   => Loading Basis Set <=

    Name: (AUG-CC-PVTZ AUX)
    Role: JKFIT
    Keyword: DF_BASIS_SCF
    atoms 1-11  entry C          line   161 file /cbio/jclab/home/chayas/anaconda/envs/py35/share/psi4/basis/aug-cc-pvtz-jkfit.gbs 
    atoms 12    entry N          line   223 file /cbio/jclab/home/chayas/anaconda/envs/py35/share/psi4/basis/aug-cc-pvtz-jkfit.gbs 
    atoms 13    entry F          line   347 file /cbio/jclab/home/chayas/anaconda/envs/py35/share/psi4/basis/aug-cc-pvtz-jkfit.gbs 
    atoms 14-21 entry H          line    69 file /cbio/jclab/home/chayas/anaconda/envs/py35/share/psi4/basis/aug-cc-pvtz-jkfit.gbs 

  Reading orbitals from file 180, no projection.

  ==> Pre-Iterations <==

   -------------------------------------------------------
    Irrep   Nso     Nmo     Nalpha   Nbeta   Ndocc  Nsocc
   -------------------------------------------------------
     A        782     782       0       0       0       0
   -------------------------------------------------------
    Total     782     782      45      45      45       0
   -------------------------------------------------------

  ==> Integral Setup <==

  ==> DFJK: Density-Fitted J/K Matrices <==

    J tasked:                  Yes
    K tasked:                  Yes
    wK tasked:                  No
    OpenMP threads:              8
    Integrals threads:           8
    Memory (MB):              3576
    Algorithm:                Disk
    Integral Cache:           NONE
    Schwarz Cutoff:          1E-12
    Fitting Condition:       1E-12

   => Auxiliary Basis Set <=

  Basis Set: (AUG-CC-PVTZ AUX)
    Blend: AUG-CC-PVTZ-JKFIT
    Number of shells: 502
    Number of basis function: 1720
    Number of Cartesian functions: 2143
    Spherical Harmonics?: true
    Max angular momentum: 4

  Minimum eigenvalue in the overlap matrix is 5.8219082371E-07.
  Using Symmetric Orthogonalization.

  SCF Guess: Orbitals guess was supplied from a previous computation.

  ==> Iterations <==

                           Total Energy        Delta E     RMS |[F,P]|

   @DF-RHF iter   0:  -575.40646532722201   -5.75406e+02   4.96062e-04 
   @DF-RHF iter   1:  -575.27739123398192    1.29074e-01   1.69553e-04 
   @DF-RHF iter   2:  -575.27819424911695   -8.03015e-04   1.13173e-04 DIIS
   @DF-RHF iter   3:  -575.27892769642926   -7.33447e-04   1.26789e-05 DIIS
   @DF-RHF iter   4:  -575.27893922579153   -1.15294e-05   3.56661e-06 DIIS
   @DF-RHF iter   5:  -575.27894090242125   -1.67663e-06   1.28900e-06 DIIS
   @DF-RHF iter   6:  -575.27894115881406   -2.56393e-07   8.48931e-07 DIIS
   @DF-RHF iter   7:  -575.27894125605826   -9.72442e-08   3.12428e-07 DIIS
   @DF-RHF iter   8:  -575.27894128738092   -3.13227e-08   8.68103e-08 DIIS
   @DF-RHF iter   9:  -575.27894129112678   -3.74587e-09   4.18159e-08 DIIS
   @DF-RHF iter  10:  -575.27894129152946   -4.02679e-10   1.87694e-08 DIIS
   @DF-RHF iter  11:  -575.27894129158199   -5.25233e-11   5.62473e-09 DIIS
   @DF-RHF iter  12:  -575.27894129157107    1.09139e-11   2.29901e-09 DIIS
   @DF-RHF iter  13:  -575.27894129159961   -2.85354e-11   1.58010e-09 DIIS
   @DF-RHF iter  14:  -575.27894129158904    1.05729e-11   7.13406e-10 DIIS
   @DF-RHF iter  15:  -575.27894129159074   -1.70530e-12   3.37990e-10 DIIS
   @DF-RHF iter  16:  -575.27894129158767    3.06954e-12   7.75056e-11 DIIS

  ==> Post-Iterations <==

    Orbital Energies (a.u.)
    -----------------------

    Doubly Occupied:                                                      

       1A    -26.327099     2A    -15.561396     3A    -11.342634  
       4A    -11.271744     5A    -11.269231     6A    -11.269023  
       7A    -11.264382     8A    -11.259142     9A    -11.258855  
      10A    -11.254985    11A    -11.250470    12A    -11.238875  
      13A    -11.230433    14A     -1.652059    15A     -1.253184  
      16A     -1.186414    17A     -1.113900    18A     -1.040081  
      19A     -1.032252    20A     -1.028750    21A     -0.894192  
      22A     -0.877101    23A     -0.846132    24A     -0.826827  
      25A     -0.761010    26A     -0.731574    27A     -0.721193  
      28A     -0.715455    29A     -0.673433    30A     -0.662305  
      31A     -0.649718    32A     -0.626124    33A     -0.610742  
      34A     -0.593892    35A     -0.586282    36A     -0.551896  
      37A     -0.542325    38A     -0.524934    39A     -0.519479  
      40A     -0.502372    41A     -0.416766    42A     -0.416207  
      43A     -0.355651    44A     -0.346437    45A     -0.325122  

    Virtual:                                                              

      46A      0.022988    47A      0.028864    48A      0.033849  
      49A      0.040376    50A      0.043553    51A      0.048528  
      52A      0.057556    53A      0.059314    54A      0.063363  
      55A      0.078657    56A      0.084468    57A      0.085658  
      58A      0.090193    59A      0.093156    60A      0.100458  
      61A      0.104697    62A      0.106010    63A      0.109658  
      64A      0.114566    65A      0.115310    66A      0.116844  
      67A      0.117984    68A      0.126026    69A      0.130964  
      70A      0.134662    71A      0.135323    72A      0.139172  
      73A      0.140899    74A      0.142408    75A      0.147337  
      76A      0.149631    77A      0.153127    78A      0.157231  
      79A      0.164311    80A      0.167643    81A      0.174546  
      82A      0.181082    83A      0.185440    84A      0.186281  
      85A      0.189194    86A      0.196665    87A      0.206531  
      88A      0.211703    89A      0.217061    90A      0.222447  
      91A      0.228262    92A      0.231339    93A      0.234801  
      94A      0.238545    95A      0.244943    96A      0.250055  
      97A      0.252356    98A      0.256404    99A      0.261082  
     100A      0.261858   101A      0.267255   102A      0.269067  
     103A      0.278267   104A      0.284059   105A      0.287740  
     106A      0.291362   107A      0.293955   108A      0.297523  
     109A      0.301590   110A      0.303867   111A      0.307090  
     112A      0.314391   113A      0.317519   114A      0.320575  
     115A      0.323831   116A      0.333409   117A      0.337074  
     118A      0.340624   119A      0.344011   120A      0.350572  
     121A      0.352251   122A      0.359051   123A      0.367592  
     124A      0.370172   125A      0.378398   126A      0.386606  
     127A      0.390521   128A      0.395086   129A      0.403383  
     130A      0.407406   131A      0.412622   132A      0.414308  
     133A      0.417972   134A      0.424566   135A      0.429035  
     136A      0.433013   137A      0.436418   138A      0.439580  
     139A      0.442135   140A      0.444255   141A      0.451303  
     142A      0.453516   143A      0.458091   144A      0.462311  
     145A      0.466206   146A      0.471051   147A      0.472661  
     148A      0.473898   149A      0.477742   150A      0.483562  
     151A      0.490480   152A      0.493798   153A      0.494734  
     154A      0.498668   155A      0.501562   156A      0.502351  
     157A      0.506604   158A      0.508650   159A      0.515054  
     160A      0.519333   161A      0.523135   162A      0.524733  
     163A      0.530071   164A      0.533579   165A      0.537137  
     166A      0.544447   167A      0.546516   168A      0.549151  
     169A      0.555052   170A      0.557777   171A      0.561297  
     172A      0.564513   173A      0.577458   174A      0.578174  
     175A      0.584462   176A      0.588741   177A      0.596530  
     178A      0.598401   179A      0.610249   180A      0.615934  
     181A      0.622288   182A      0.628716   183A      0.635073  
     184A      0.642961   185A      0.650660   186A      0.655621  
     187A      0.659147   188A      0.666238   189A      0.678540  
     190A      0.684954   191A      0.690833   192A      0.695791  
     193A      0.699627   194A      0.703913   195A      0.709576  
     196A      0.713064   197A      0.716813   198A      0.720590  
     199A      0.730787   200A      0.737580   201A      0.739843  
     202A      0.744995   203A      0.746621   204A      0.753991  
     205A      0.757564   206A      0.764419   207A      0.771862  
     208A      0.788274   209A      0.789154   210A      0.799525  
     211A      0.807832   212A      0.808440   213A      0.811808  
     214A      0.819140   215A      0.828689   216A      0.834416  
     217A      0.840895   218A      0.851296   219A      0.858611  
     220A      0.863208   221A      0.868751   222A      0.870711  
     223A      0.875018   224A      0.881301   225A      0.885312  
     226A      0.890909   227A      0.893788   228A      0.894974  
     229A      0.900688   230A      0.903819   231A      0.908480  
     232A      0.913820   233A      0.915150   234A      0.918917  
     235A      0.922473   236A      0.932380   237A      0.939575  
     238A      0.947376   239A      0.953424   240A      0.958377  
     241A      0.961895   242A      0.967237   243A      0.971789  
     244A      0.972501   245A      0.980056   246A      0.981263  
     247A      0.984025   248A      0.986558   249A      0.991959  
     250A      0.998542   251A      1.003986   252A      1.008277  
     253A      1.014715   254A      1.016975   255A      1.024651  
     256A      1.026525   257A      1.028017   258A      1.036159  
     259A      1.042850   260A      1.043986   261A      1.047104  
     262A      1.058834   263A      1.059964   264A      1.068744  
     265A      1.072775   266A      1.079659   267A      1.083050  
     268A      1.089257   269A      1.089797   270A      1.091488  
     271A      1.096822   272A      1.103607   273A      1.109497  
     274A      1.115280   275A      1.119980   276A      1.126211  
     277A      1.129671   278A      1.133817   279A      1.135485  
     280A      1.144113   281A      1.159388   282A      1.166656  
     283A      1.168761   284A      1.175131   285A      1.176826  
     286A      1.179772   287A      1.188428   288A      1.189399  
     289A      1.195275   290A      1.197409   291A      1.206526  
     292A      1.208559   293A      1.209491   294A      1.211992  
     295A      1.224571   296A      1.228578   297A      1.231529  
     298A      1.240692   299A      1.247261   300A      1.259267  
     301A      1.263406   302A      1.268805   303A      1.275440  
     304A      1.280144   305A      1.281118   306A      1.290688  
     307A      1.293847   308A      1.304555   309A      1.307725  
     310A      1.312050   311A      1.317299   312A      1.323656  
     313A      1.332932   314A      1.335707   315A      1.352096  
     316A      1.354838   317A      1.361832   318A      1.369780  
     319A      1.376955   320A      1.386333   321A      1.388147  
     322A      1.394040   323A      1.399665   324A      1.414169  
     325A      1.426435   326A      1.431554   327A      1.438909  
     328A      1.441994   329A      1.451611   330A      1.467986  
     331A      1.475851   332A      1.483376   333A      1.497057  
     334A      1.508303   335A      1.519026   336A      1.520760  
     337A      1.524797   338A      1.533805   339A      1.541195  
     340A      1.546772   341A      1.560874   342A      1.573070  
     343A      1.577657   344A      1.583100   345A      1.594441  
     346A      1.605469   347A      1.610804   348A      1.622227  
     349A      1.636334   350A      1.642144   351A      1.651328  
     352A      1.657836   353A      1.663238   354A      1.670925  
     355A      1.678878   356A      1.685337   357A      1.697375  
     358A      1.702029   359A      1.706393   360A      1.713985  
     361A      1.722150   362A      1.734986   363A      1.738536  
     364A      1.748106   365A      1.754901   366A      1.763035  
     367A      1.768399   368A      1.784050   369A      1.788886  
     370A      1.796913   371A      1.803606   372A      1.809840  
     373A      1.820900   374A      1.821583   375A      1.824265  
     376A      1.845171   377A      1.851327   378A      1.860640  
     379A      1.870561   380A      1.882139   381A      1.889446  
     382A      1.894374   383A      1.904969   384A      1.912348  
     385A      1.913771   386A      1.931981   387A      1.937757  
     388A      1.944744   389A      1.953833   390A      1.963701  
     391A      1.974773   392A      1.977111   393A      1.982928  
     394A      1.991308   395A      1.999084   396A      2.004538  
     397A      2.011384   398A      2.016111   399A      2.026382  
     400A      2.030802   401A      2.033122   402A      2.040586  
     403A      2.044159   404A      2.054385   405A      2.062447  
     406A      2.075476   407A      2.087531   408A      2.088572  
     409A      2.094304   410A      2.101094   411A      2.107242  
     412A      2.111966   413A      2.123483   414A      2.127395  
[...]
	 R(11,13)         =         2.547474	       1.348065
	 B(1,2,4)         =         2.080730	     119.217050
	 B(1,2,15)        =         2.108609	     120.814400
	 B(1,3,9)         =         2.139627	     122.591600
	 B(1,3,16)        =         2.069539	     118.575857
	 B(2,1,3)         =         2.093801	     119.965985
	 B(2,1,14)        =         2.100892	     120.372229
	 B(2,4,11)        =         2.086654	     119.556477
	 B(2,4,17)        =         2.128103	     121.931335
	 B(3,1,14)        =         2.088462	     119.660049
	 B(3,9,10)        =         2.103804	     120.539096
	 B(3,9,11)        =         2.011859	     115.271040
	 B(4,2,15)        =         2.093844	     119.968430
	 B(4,11,9)        =         2.153578	     123.390947
	 B(4,11,13)       =         2.030878	     116.360740
	 B(5,7,12)        =         2.168490	     124.245337
	 B(5,7,20)        =         2.085989	     119.518380
	 B(5,10,6)        =         2.020265	     115.752632
	 B(5,10,9)        =         2.158698	     123.684269
	 B(6,8,12)        =         2.161519	     123.845927
	 B(6,8,21)        =         2.090794	     119.793653
	 B(6,10,9)        =         2.103536	     120.523745
	 B(7,5,10)        =         2.091020	     119.806640
	 B(7,5,18)        =         2.075574	     118.921613
	 B(7,12,8)        =         2.025717	     116.065035
	 B(8,6,10)        =         2.098996	     120.263606
	 B(8,6,19)        =         2.067965	     118.485690
	 B(9,3,16)        =         2.073306	     118.791669
	 B(9,11,13)       =         2.098430	     120.231162
	 B(10,5,18)       =         2.116184	     121.248426
	 B(10,6,19)       =         2.115850	     121.229249
	 B(10,9,11)       =         2.166041	     124.105000
	 B(11,4,17)       =         2.068402	     118.510700
	 B(12,7,20)       =         2.028697	     116.235759
	 B(12,8,21)       =         2.030849	     116.359093
	 D(1,2,4,11)      =        -0.004559	      -0.261202
	 D(1,2,4,17)      =         3.129169	     179.288205
	 D(1,3,9,10)      =        -3.100965	    -177.672204
	 D(1,3,9,11)      =        -0.015484	      -0.887171
	 D(2,1,3,9)       =         0.005679	       0.325372
	 D(2,1,3,16)      =         3.106164	     177.970094
	 D(2,4,11,9)      =        -0.006368	      -0.364842
	 D(2,4,11,13)     =         3.108931	     178.128618
	 D(3,1,2,4)       =         0.004854	       0.278128
	 D(3,1,2,15)      =        -3.138933	    -179.847626
	 D(3,9,10,5)      =        -2.871868	    -164.545940
	 D(3,9,10,6)      =         0.311271	      17.834495
	 D(3,9,11,4)      =         0.015913	       0.911769
	 D(3,9,11,13)     =        -3.098411	    -177.525854
	 D(4,2,1,14)      =         3.138051	     179.797101
	 D(4,11,9,10)     =         3.099137	     177.567473
	 D(5,7,12,8)      =         0.001441	       0.082553
	 D(5,10,6,8)      =         0.025422	       1.456599
	 D(5,10,6,19)     =        -3.086317	    -176.832914
	 D(5,10,9,11)     =         0.331012	      18.965588
	 D(6,8,12,7)      =        -0.005874	      -0.336549
	 D(6,10,5,7)      =        -0.029366	      -1.682552
	 D(6,10,5,18)     =        -3.139967	    -179.906875
	 D(6,10,9,11)     =        -2.769034	    -158.653978
	 D(7,5,10,9)      =        -3.131224	    -179.405934
	 D(7,12,8,21)     =         3.128370	     179.242376
	 D(8,6,10,9)      =         3.128633	     179.257489
	 D(8,12,7,20)     =        -3.135518	    -179.651929
	 D(9,3,1,14)      =        -3.127578	    -179.197043
	 D(9,10,5,18)     =         0.041360	       2.369743
	 D(9,10,6,19)     =         0.016894	       0.967975
	 D(9,11,4,17)     =        -3.140365	    -179.929656
	 D(10,5,7,12)     =         0.017025	       0.975456
	 D(10,5,7,20)     =        -3.129345	    -179.298234
	 D(10,6,8,12)     =        -0.008250	      -0.472677
	 D(10,6,8,21)     =         3.140931	     179.962086
	 D(10,9,3,16)     =         0.081820	       4.687936
	 D(10,9,11,13)    =        -0.015187	      -0.870150
	 D(11,4,2,15)     =         3.139210	     179.863468
	 D(11,9,3,16)     =        -3.115885	    -178.527031
	 D(12,7,5,18)     =         3.128347	     179.241088
	 D(12,8,6,19)     =         3.104299	     177.863238
	 D(13,11,4,17)    =        -0.025066	      -1.436196
	 D(14,1,2,15)     =        -0.005736	      -0.328653
	 D(14,1,3,16)     =        -0.027093	      -1.552322
	 D(15,2,4,17)     =        -0.010247	      -0.587125
	 D(18,5,7,20)     =        -0.018022	      -1.032603
	 D(19,6,8,21)     =        -0.029705	      -1.702000
	 R(5,13)          =         5.243921	       2.774963

	Current energy   :      -577.7255551456

	Energy change for the previous step:
		Projected    :        -0.0000008464
		Actual       :        -0.0000001703

	Performing BFGS update.
	Previous computed or guess Hessian on step 1.
	Steps to be used in Hessian update: 10 9
	Adding user-defined constraint: Fragment 1; Coordinate 67:
		Value =    -2.871868; Fixed value    =    -2.879790
		Force =    -0.005941; Force constant =     0.750000
	Removing off-diagonal coupling between coordinate 67 and others.
	Taking RFO optimization step.
	Going to follow RFO solution 1.
	Rejecting RFO root 1 because normalization gives large value.
	Using RFO vector 2.
	Norm of target step-size    0.01238
	Projected energy change by RFO approximation:        -0.0000017739

	Back-transformation to cartesian coordinates...
	Could not converge backtransformation.
	Using first guess instead.

	--- Internal Coordinate Step in ANG or DEG, aJ/ANG or AJ/DEG ---
	 ---------------------------------------------------------------------------
	   Coordinate                Previous        Force       Change         New 
	   ----------                --------       ------       ------       ------
	    1 R(1,2)          =      1.387484     0.000254     0.000049     1.387533
	    2 R(1,3)          =      1.383448     0.000275     0.000110     1.383558
	    3 R(1,14)         =      1.078424     0.000214     0.000090     1.078515
	    4 R(2,4)          =      1.384030     0.000403     0.000127     1.384157
	    5 R(2,15)         =      1.078648     0.000230     0.000084     1.078732
	    6 R(3,9)          =      1.400054    -0.000352    -0.000114     1.399940
	    7 R(3,16)         =      1.077618     0.000524     0.000148     1.077766
	    8 R(4,11)         =      1.380335     0.000619     0.000148     1.380483
	    9 R(4,17)         =      1.077929     0.000224     0.000083     1.078012
	   10 R(5,7)          =      1.386284    -0.000025     0.000033     1.386317
	   11 R(5,10)         =      1.395624     0.000259    -0.000022     1.395602
	   12 R(5,18)         =      1.074509    -0.000219    -0.000027     1.074482
	   13 R(6,8)          =      1.383940     0.000020    -0.000020     1.383919
	   14 R(6,10)         =      1.396006    -0.000311    -0.000043     1.395963
	   15 R(6,19)         =      1.077601     0.000493     0.000137     1.077738
	   16 R(7,12)         =      1.333597     0.000787     0.000169     1.333766
	   17 R(7,20)         =      1.081023     0.000078     0.000038     1.081061
	   18 R(8,12)         =      1.334832     0.000622     0.000222     1.335054
	   19 R(8,21)         =      1.081045     0.000088     0.000032     1.081076
	   20 R(9,10)         =      1.468138    -0.001145    -0.000420     1.467718
	   21 R(9,11)         =      1.394331    -0.000249    -0.000057     1.394274
	   22 R(11,13)        =      1.348065    -0.000348     0.000048     1.348113
	   23 B(1,2,4)        =    119.217050    -0.000000     0.001467   119.218518
	   24 B(1,2,15)       =    120.814400     0.000000    -0.005603   120.808797
	   25 B(1,3,9)        =    122.591600    -0.000002    -0.024816   122.566785
	   26 B(1,3,16)       =    118.575857     0.000002     0.003385   118.579243
	   27 B(2,1,3)        =    119.965985    -0.000000     0.005913   119.971899
	   28 B(2,1,14)       =    120.372229     0.000000    -0.002591   120.369639
	   29 B(2,4,11)       =    119.556477     0.000001     0.001908   119.558384
	   30 B(2,4,17)       =    121.931335    -0.000002    -0.007694   121.923641
	   31 B(3,1,14)       =    119.660049     0.000000    -0.002700   119.657349
	   32 B(3,9,10)       =    120.539096    -0.000011    -0.018970   120.520126
	   33 B(3,9,11)       =    115.271040     0.000008     0.041154   115.312194
	   34 B(4,2,15)       =    119.968430     0.000000     0.004028   119.972459
	   35 B(4,11,9)       =    123.390947    -0.000006    -0.025788   123.365159
	   36 B(4,11,13)      =    116.360740     0.000004     0.022980   116.383721
	   37 B(5,7,12)       =    124.245337    -0.000000     0.005345   124.250682
	   38 B(5,7,20)       =    119.518380     0.000001     0.001433   119.519813
	   39 B(5,10,6)       =    115.752632     0.000008     0.039725   115.792357
	   40 B(5,10,9)       =    123.684269     0.000003    -0.012121   123.672148
	   41 B(6,8,12)       =    123.845927     0.000000     0.005397   123.851323
	   42 B(6,8,21)       =    119.793653    -0.000000     0.003183   119.796836
	   43 B(6,10,9)       =    120.523745    -0.000011    -0.024442   120.499303
	   44 B(7,5,10)       =    119.806640    -0.000004    -0.023570   119.783070
	   45 B(7,5,18)       =    118.921613     0.000000    -0.005537   118.916076
	   46 B(7,12,8)       =    116.065035    -0.000000    -0.003508   116.061527
	   47 B(8,6,10)       =    120.263606    -0.000003    -0.022411   120.241195
	   48 B(8,6,19)       =    118.485690     0.000002     0.007360   118.493050
	   49 B(9,3,16)       =    118.791669     0.000001     0.024258   118.815927
	   50 B(9,11,13)      =    120.231162     0.000002    -0.005020   120.226142
	   51 B(10,5,18)      =    121.248426     0.000004     0.028000   121.276426
	   52 B(10,6,19)      =    121.229249     0.000001     0.017060   121.246309
	   53 B(10,9,11)      =    124.105000     0.000003    -0.027707   124.077293
	   54 B(11,4,17)      =    118.510700     0.000000     0.005656   118.516356
	   55 B(12,7,20)      =    116.235759    -0.000000    -0.006291   116.229469
	   56 B(12,8,21)      =    116.359093     0.000000    -0.008738   116.350355
	   57 D(1,2,4,11)     =     -0.261202    -0.000001    -0.051918    -0.313120
	   58 D(1,2,4,17)     =    179.288205    -0.000001    -0.071140   179.217065
	   59 D(1,3,9,10)     =   -177.672204     0.000002     0.057689  -177.614515
	   60 D(1,3,9,11)     =     -0.887171    -0.000001    -0.046033    -0.933204
	   61 D(2,1,3,9)      =      0.325372     0.000001     0.077872     0.403244
	   62 D(2,1,3,16)     =    177.970094     0.000001     0.161332   178.131425
	   63 D(2,4,11,9)     =     -0.364842    -0.000000     0.086266    -0.278576
	   64 D(2,4,11,13)    =    178.128618    -0.000002    -0.225276   177.903342
	   65 D(3,1,2,4)      =      0.278128     0.000000    -0.026823     0.251304
	   66 D(3,1,2,15)     =   -179.847626    -0.000001    -0.074394  -179.922021
	   67 D(3,9,10,5)     =   -164.545940    -0.000007    -0.042032  -164.587972
	   68 D(3,9,10,6)     =     17.834495    -0.000004    -0.140511    17.693984
	   69 D(3,9,11,4)     =      0.911769     0.000001    -0.036531     0.875238
	   70 D(3,9,11,13)    =   -177.525854     0.000003     0.286095  -177.239759
	   71 D(4,2,1,14)     =    179.797101     0.000001     0.068978   179.866079
	   72 D(4,11,9,10)    =    177.567473    -0.000003    -0.143978   177.423495
	   73 D(5,7,12,8)     =      0.082553     0.000000    -0.002072     0.080481
	   74 D(5,10,6,8)     =      1.456599     0.000001    -0.001953     1.454646
	   75 D(5,10,6,19)    =   -176.832914     0.000001    -0.084109  -176.917024
	   76 D(5,10,9,11)    =     18.965588    -0.000004     0.068862    19.034450
	   77 D(6,8,12,7)     =     -0.336549    -0.000000     0.053591    -0.282958
	   78 D(6,10,5,7)     =     -1.682552    -0.000001     0.049241    -1.633311
	   79 D(6,10,5,18)    =   -179.906875    -0.000001     0.090987  -179.815887
	   80 D(6,10,9,11)    =   -158.653978    -0.000001    -0.029616  -158.683594
	   81 D(7,5,10,9)     =   -179.405934     0.000002    -0.043658  -179.449592
	   82 D(7,12,8,21)    =    179.242376    -0.000000     0.029131   179.271507
	   83 D(8,6,10,9)     =    179.257489    -0.000001     0.088013   179.345502
	   84 D(8,12,7,20)    =   -179.651929    -0.000000    -0.197624  -179.849553
	   85 D(9,3,1,14)     =   -179.197043     0.000000    -0.017244  -179.214287
	   86 D(9,10,5,18)    =      2.369743     0.000002    -0.001911     2.367832
	   87 D(9,10,6,19)    =      0.967975    -0.000002     0.005857     0.973832
	   88 D(9,11,4,17)    =   -179.929656     0.000000     0.104893  -179.824763
	   89 D(10,5,7,12)    =      0.975456     0.000000    -0.050688     0.924768
	   90 D(10,5,7,20)    =   -179.298234     0.000001     0.150878  -179.147356
	   91 D(10,6,8,12)    =     -0.472677    -0.000001    -0.052035    -0.524711
	   92 D(10,6,8,21)    =    179.962086    -0.000001    -0.026730   179.935355
	   93 D(10,9,3,16)    =      4.687936     0.000002    -0.025486     4.662450
	   94 D(10,9,11,13)   =     -0.870150    -0.000001     0.178647    -0.691503
	   95 D(11,4,2,15)    =    179.863468     0.000000    -0.004740   179.858728
	   96 D(11,9,3,16)    =   -178.527031    -0.000002    -0.129208  -178.656240
	   97 D(12,7,5,18)    =    179.241088    -0.000000    -0.090840   179.150247
	   98 D(12,8,6,19)    =    177.863238    -0.000000     0.028067   177.891305
	   99 D(13,11,4,17)   =     -1.436196    -0.000001    -0.206649    -1.642845
	  100 D(14,1,2,15)    =     -0.328653     0.000000     0.021407    -0.307246
	  101 D(14,1,3,16)    =     -1.552322     0.000000     0.066216    -1.486106
	  102 D(15,2,4,17)    =     -0.587125    -0.000000    -0.023962    -0.611087
	  103 D(18,5,7,20)    =     -1.032603     0.000001     0.110725    -0.921877
	  104 D(19,6,8,21)    =     -1.702000     0.000000     0.053371    -1.648628
	  105 R(5,13)         =      2.774963     0.000086    -0.000951     2.774013
	 ---------------------------------------------------------------------------
	Successfully symmetrized geometry.
	 Forces used to impose fixed constraints are not included.
	  Forces zeroed: 67 

  ==> Convergence Check <==

  Measures of convergence in internal coordinates in au.
  Criteria marked as inactive (o), active & met (*), and active & unmet ( ).
  ---------------------------------------------------------------------------------------------
   Step     Total Energy     Delta E     MAX Force     RMS Force      MAX Disp      RMS Disp   
  ---------------------------------------------------------------------------------------------
    Convergence Criteria    1.00e-06 *    3.00e-04 *             o    1.20e-03 *             o
  ---------------------------------------------------------------------------------------------
     11    -577.72555515   -1.70e-07 *    2.55e-04 *    6.44e-05 o    4.99e-03      1.21e-03 o  ~
  ---------------------------------------------------------------------------------------------


  **** Optimization is complete! (in 11 steps) ****

  ==> Optimization Summary <==

  Measures of convergence in internal coordinates in au.
  --------------------------------------------------------------------------------------------------------------- ~
   Step         Total Energy             Delta E       MAX Force       RMS Force        MAX Disp        RMS Disp  ~
  --------------------------------------------------------------------------------------------------------------- ~
      1    -577.715392771727   -577.715392771727      0.02242859      0.00646066      0.04996558      0.00978252  ~
      2    -577.720345258263     -0.004952486535      0.01786139      0.00342683      0.07480981      0.00977826  ~
      3    -577.722866483679     -0.002521225416      0.01267990      0.00179431      0.08610384      0.00976550  ~
      4    -577.724214755820     -0.001348272141      0.00843437      0.00102412      0.08703969      0.00976591  ~
      5    -577.724996904016     -0.000782148196      0.00508336      0.00058500      0.08401628      0.00977104  ~
      6    -577.725416099628     -0.000419195612      0.00231145      0.00030838      0.06721636      0.00953209  ~
      7    -577.725564913210     -0.000148813582      0.00060648      0.00014230      0.01136205      0.00176894  ~
      8    -577.725562861782      0.000002051428      0.00038373      0.00007676      0.00208893      0.00070246  ~
      9    -577.725558222805      0.000004638978      0.00030413      0.00005602      0.00223611      0.00067585  ~
     10    -577.725554975289      0.000003247516      0.00026992      0.00005356      0.00415538      0.00103695  ~
     11    -577.725555145582     -0.000000170293      0.00041385      0.00007602      0.00499330      0.00120778  ~
  --------------------------------------------------------------------------------------------------------------- ~

	Writing optimization data to binary file.
	Final energy is   -577.7255551455822
	Final (previous) structure:
	Cartesian Geometry (in Angstrom)
	    C    -1.4223040493   0.8457351507  -2.6375020793
	    C    -2.4782465004   1.4607630263  -1.9803581232
	    C    -0.4221470801   0.2262488596  -1.9095935692
	    C    -2.5113832933   1.4496058097  -0.5967696929
	    C     0.6216052022  -0.8052323165   1.5649409991
	    C     1.9106981865  -0.6674439173  -0.4121467037
	    C     1.7243854819  -1.3805506027   2.1770425253
	    C     2.9587545692  -1.2433759707   0.2843943328
	    C    -0.4249540779   0.1818278652  -0.5102469037
	    C     0.6855443170  -0.4435879109   0.2185041309
	    C    -1.4995740642   0.8241882482   0.1035305485
	    N     2.8880546971  -1.6078436147   1.5665568345
	    F    -1.5755084394   0.8857580469   1.4480465605
	    H    -1.3795073174   0.8404560634  -3.7150639562
	    H    -3.2666028723   1.9456471125  -2.5343102802
	    H     0.3698811929  -0.2730450694  -2.4431259181
	    H    -3.3046121674   1.9234783523  -0.0416447082
	    H    -0.2791801479  -0.6726590730   2.1355372899
	    H     2.0736661098  -0.3744761028  -1.4362732590
	    H     1.6659701144  -1.6693304644   3.2171406809
	    H     3.9040346997  -1.4138413825  -0.2116341401
	Saving final (previous) structure.
			--------------------------
			 OPTKING Finished Execution 
			--------------------------

    Final optimized geometry and variables:
    Molecular point group: c1
    Full point group: C1

    Geometry (in Angstrom), charge = 0, multiplicity = 1:

    C           -1.422304049306     0.845735150698    -2.637502079323
    C           -2.478246500436     1.460763026265    -1.980358123229
    C           -0.422147080122     0.226248859597    -1.909593569173
    C           -2.511383293255     1.449605809746    -0.596769692918
    C            0.621605202238    -0.805232316487     1.564940999123
    C            1.910698186480    -0.667443917262    -0.412146703694
    C            1.724385481869    -1.380550602717     2.177042525313
    C            2.958754569160    -1.243375970708     0.284394332766
    C           -0.424954077890     0.181827865161    -0.510246903717
    C            0.685544316951    -0.443587910894     0.218504130944
    C           -1.499574064151     0.824188248198     0.103530548499
    N            2.888054697127    -1.607843614729     1.566556834535
    F           -1.575508439437     0.885758046947     1.448046560539
    H           -1.379507317424     0.840456063428    -3.715063956178
    H           -3.266602872341     1.945647112457    -2.534310280163
    H            0.369881192865    -0.273045069364    -2.443125918095
    H           -3.304612167433     1.923478352330    -0.041644708170
    H           -0.279180147872    -0.672659073006     2.135537289880
    H            2.073666109844    -0.374476102847    -1.436273258987
    H            1.665970114426    -1.669330464408     3.217140680889
    H            3.904034699737    -1.413841382544    -0.211634140067

	Cleaning optimization helper files.

*** Psi4 exiting successfully. Buy a developer a beer!
