
    -----------------------------------------------------------------------
          Psi4: An Open-Source Ab Initio Electronic Structure Package
                               Psi4 1.1 release

                         Git: Rev {HEAD} add49b9 


    R. M. Parrish, L. A. Burns, D. G. A. Smith, A. C. Simmonett,
    A. E. DePrince III, E. G. Hohenstein, U. Bozkaya, A. Yu. Sokolov,
    R. Di Remigio, R. M. Richard, J. F. Gonthier, A. M. James,
    H. R. McAlexander, A. Kumar, M. Saitow, X. Wang, B. P. Pritchard,
    P. Verma, H. F. Schaefer III, K. Patkowski, R. A. King, E. F. Valeev,
    F. A. Evangelista, J. M. Turney, T. D. Crawford, and C. D. Sherrill,
    J. Chem. Theory Comput. in press (2017).
    (doi: 10.1021/acs.jctc.7b00174)

    -----------------------------------------------------------------------


    Psi4 started on: Sunday, 12 November 2017 10:34AM

    Process ID:  28781
    PSIDATADIR: /cbio/jclab/home/chayas/anaconda/envs/py35/share/psi4
    Memory:     500.0 MiB
    Threads:    8
    
  ==> Input File <==

--------------------------------------------------------------------------

memory 5 Gb

molecule phepyrOH_cation {
  symmetry C1
  1 1 
  C      1.885   -1.036   -0.112
  C      2.878   -1.652   2.002
  C      0.807   -0.463   0.561
  C      1.800   -1.079   2.676
  C      4.440   -1.719   -1.322
  C      4.716   -3.305   0.469
  C      5.516   -2.309   -1.970
  C      5.786   -3.855   -0.224
  C      2.921   -1.631   0.608
  C      4.040   -2.225   -0.090
  C      0.764   -0.484   1.955
  N      6.150   -3.348   -1.409
  O      -0.288   0.076   2.612
  H      1.904   -1.012   -1.199
  H      3.678   -2.112   2.578
  H      0.003   -0.001   -0.006
  H      1.772   -1.098   3.762
  H      3.931   -0.877   -1.782
  H      4.425   -3.721   1.429
  H      5.897   -1.982   -2.928
  H      6.368   -4.693   0.134
  H      6.938   -3.767   -1.902
  H      -1.116   -0.360   2.354
  units Angstrom
}

dih_string = "3 11 13 23 60"
set optking fixed_dihedral = $dih_string

optimize('MP2/aug-cc-PVTZ')
--------------------------------------------------------------------------

  Memory set to   4.657 GiB by Python driver.
gradient() will perform analytic gradient computation.

*** tstart() called on gpu-2-12.local
*** at Sun Nov 12 10:34:38 2017

    SCF Algorithm Type (re)set to DF.

*** tstart() called on gpu-2-12.local
*** at Sun Nov 12 10:34:38 2017

   => Loading Basis Set <=

    Name: AUG-CC-PVTZ
    Role: ORBITAL
    Keyword: BASIS
    atoms 1-11  entry C          line   221 file /cbio/jclab/home/chayas/anaconda/envs/py35/share/psi4/basis/aug-cc-pvtz.gbs 
    atoms 12    entry N          line   267 file /cbio/jclab/home/chayas/anaconda/envs/py35/share/psi4/basis/aug-cc-pvtz.gbs 
    atoms 13    entry O          line   313 file /cbio/jclab/home/chayas/anaconda/envs/py35/share/psi4/basis/aug-cc-pvtz.gbs 
    atoms 14-23 entry H          line    34 file /cbio/jclab/home/chayas/anaconda/envs/py35/share/psi4/basis/aug-cc-pvtz.gbs 


         ---------------------------------------------------------
                                   SCF
            by Justin Turney, Rob Parrish, and Andy Simmonett
                              RHF Reference
                        8 Threads,   4768 MiB Core
         ---------------------------------------------------------

  ==> Geometry <==

    Molecular point group: c1
    Full point group: C1

    Geometry (in Angstrom), charge = 1, multiplicity = 1:

       Center              X                  Y                   Z               Mass       
    ------------   -----------------  -----------------  -----------------  -----------------
           C         -1.266003643078     0.722169696851    -0.571932639608    12.000000000000
           C         -0.273003643078     0.106169696851     1.542067360392    12.000000000000
           C         -2.344003643078     1.295169696851     0.101067360392    12.000000000000
           C         -1.351003643078     0.679169696851     2.216067360392    12.000000000000
           C          1.288996356922     0.039169696851    -1.781932639608    12.000000000000
           C          1.564996356922    -1.546830303149     0.009067360392    12.000000000000
           C          2.364996356922    -0.550830303149    -2.429932639608    12.000000000000
           C          2.634996356922    -2.096830303149    -0.683932639608    12.000000000000
           C         -0.230003643078     0.127169696851     0.148067360392    12.000000000000
           C          0.888996356922    -0.466830303149    -0.549932639608    12.000000000000
           C         -2.387003643078     1.274169696851     1.495067360392    12.000000000000
           N          2.998996356922    -1.589830303149    -1.868932639608    14.003074004780
           O         -3.439003643078     1.834169696851     2.152067360392    15.994914619560
           H         -1.247003643078     0.746169696851    -1.658932639608     1.007825032070
           H          0.526996356922    -0.353830303149     2.118067360392     1.007825032070
           H         -3.148003643078     1.757169696851    -0.465932639608     1.007825032070
           H         -1.379003643078     0.660169696851     3.302067360392     1.007825032070
           H          0.779996356922     0.881169696851    -2.241932639608     1.007825032070
           H          1.273996356922    -1.962830303149     0.969067360392     1.007825032070
           H          2.745996356922    -0.223830303149    -3.387932639608     1.007825032070
           H          3.216996356922    -2.934830303149    -0.325932639608     1.007825032070
           H          3.786996356922    -2.008830303149    -2.361932639608     1.007825032070
           H         -4.267003643078     1.398169696851     1.894067360392     1.007825032070

  Running in c1 symmetry.

  Rotational constants: A =      0.09612  B =      0.01335  C =      0.01193 [cm^-1]
  Rotational constants: A =   2881.70385  B =    400.20001  C =    357.59006 [MHz]
  Nuclear repulsion =  713.166622839137744

  Charge       = 1
  Multiplicity = 1
  Electrons    = 90
  Nalpha       = 45
  Nbeta        = 45

  ==> Algorithm <==

  SCF Algorithm Type is DF.
  DIIS enabled.
  MOM disabled.
  Fractional occupation disabled.
  Guess Type is SAD.
  Energy threshold   = 1.00e-10
  Density threshold  = 1.00e-10
  Integral threshold = 0.00e+00

  ==> Primary Basis <==

  Basis Set: AUG-CC-PVTZ
    Blend: AUG-CC-PVTZ
    Number of shells: 272
    Number of basis function: 828
    Number of Cartesian functions: 965
    Spherical Harmonics?: true
    Max angular momentum: 3

   => Loading Basis Set <=

    Name: (AUG-CC-PVTZ AUX)
    Role: JKFIT
    Keyword: DF_BASIS_SCF
    atoms 1-11  entry C          line   161 file /cbio/jclab/home/chayas/anaconda/envs/py35/share/psi4/basis/aug-cc-pvtz-jkfit.gbs 
    atoms 12    entry N          line   223 file /cbio/jclab/home/chayas/anaconda/envs/py35/share/psi4/basis/aug-cc-pvtz-jkfit.gbs 
    atoms 13    entry O          line   285 file /cbio/jclab/home/chayas/anaconda/envs/py35/share/psi4/basis/aug-cc-pvtz-jkfit.gbs 
    atoms 14-23 entry H          line    69 file /cbio/jclab/home/chayas/anaconda/envs/py35/share/psi4/basis/aug-cc-pvtz-jkfit.gbs 

  ==> Pre-Iterations <==

   -------------------------------------------------------
    Irrep   Nso     Nmo     Nalpha   Nbeta   Ndocc  Nsocc
   -------------------------------------------------------
     A        828     828       0       0       0       0
   -------------------------------------------------------
    Total     828     828      45      45      45       0
   -------------------------------------------------------

  ==> Integral Setup <==

  ==> DFJK: Density-Fitted J/K Matrices <==

    J tasked:                  Yes
    K tasked:                  Yes
    wK tasked:                  No
    OpenMP threads:              8
    Integrals threads:           8
    Memory (MB):              3576
    Algorithm:                Disk
    Integral Cache:           NONE
    Schwarz Cutoff:          1E-12
    Fitting Condition:       1E-12

   => Auxiliary Basis Set <=

  Basis Set: (AUG-CC-PVTZ AUX)
    Blend: AUG-CC-PVTZ-JKFIT
    Number of shells: 530
    Number of basis function: 1812
    Number of Cartesian functions: 2253
    Spherical Harmonics?: true
    Max angular momentum: 4

  Minimum eigenvalue in the overlap matrix is 5.9701324172E-07.
  Using Symmetric Orthogonalization.

  SCF Guess: Superposition of Atomic Densities via on-the-fly atomic UHF.

  ==> Iterations <==

                           Total Energy        Delta E     RMS |[F,P]|

   @DF-RHF iter   0:  -553.45637905357739   -5.53456e+02   2.32384e-02 
   @DF-RHF iter   1:  -551.26184973798900    2.19453e+00   2.43709e-03 
   @DF-RHF iter   2:  -551.59681765152993   -3.34968e-01   1.09386e-03 DIIS
   @DF-RHF iter   3:  -551.65563314888664   -5.88155e-02   4.33202e-04 DIIS
   @DF-RHF iter   4:  -551.66934457051161   -1.37114e-02   1.41248e-04 DIIS
   @DF-RHF iter   5:  -551.67119673404545   -1.85216e-03   3.48381e-05 DIIS
   @DF-RHF iter   6:  -551.67159686134369   -4.00127e-04   1.81563e-05 DIIS
   @DF-RHF iter   7:  -551.67167427216134   -7.74108e-05   8.34836e-06 DIIS
   @DF-RHF iter   8:  -551.67168849508778   -1.42229e-05   3.93627e-06 DIIS
   @DF-RHF iter   9:  -551.67169317776984   -4.68268e-06   1.34085e-06 DIIS
   @DF-RHF iter  10:  -551.67169443146395   -1.25369e-06   7.37631e-07 DIIS
   @DF-RHF iter  11:  -551.67169457858449   -1.47121e-07   2.12675e-07 DIIS
   @DF-RHF iter  12:  -551.67169458730359   -8.71910e-09   8.07694e-08 DIIS
   @DF-RHF iter  13:  -551.67169458839840   -1.09480e-09   3.82788e-08 DIIS
   @DF-RHF iter  14:  -551.67169458867397   -2.75577e-10   1.50809e-08 DIIS
   @DF-RHF iter  15:  -551.67169458872331   -4.93401e-11   6.03134e-09 DIIS
   @DF-RHF iter  16:  -551.67169458873980   -1.64846e-11   2.98108e-09 DIIS
   @DF-RHF iter  17:  -551.67169458873036    9.43601e-12   6.80056e-10 DIIS
   @DF-RHF iter  18:  -551.67169458872786    2.50111e-12   5.13202e-10 DIIS
   @DF-RHF iter  19:  -551.67169458873263   -4.77485e-12   1.81633e-10 DIIS
   @DF-RHF iter  20:  -551.67169458873434   -1.70530e-12   7.89337e-11 DIIS

  ==> Post-Iterations <==

    Orbital Energies (a.u.)
    -----------------------

    Doubly Occupied:                                                      

       1A    -20.690762     2A    -15.834698     3A    -11.485148  
       4A    -11.485106     5A    -11.446892     6A    -11.426667  
       7A    -11.415674     8A    -11.415550     9A    -11.377643  
      10A    -11.377056    11A    -11.374436    12A    -11.356114  
      13A    -11.354903    14A     -1.512378    15A     -1.509454  
      16A     -1.321884    17A     -1.263644    18A     -1.238107  
      19A     -1.153974    20A     -1.150246    21A     -1.069370  
      22A     -1.054363    23A     -0.970758    24A     -0.963167  
      25A     -0.949885    26A     -0.868663    27A     -0.859287  
      28A     -0.853682    29A     -0.820934    30A     -0.799690  
      31A     -0.780783    32A     -0.771560    33A     -0.756112  
      34A     -0.744216    35A     -0.724602    36A     -0.706337  
      37A     -0.706144    38A     -0.662448    39A     -0.652351  
      40A     -0.635333    41A     -0.599796    42A     -0.574354  
      43A     -0.538237    44A     -0.467822    45A     -0.445873  

    Virtual:                                                              

      46A     -0.107229    47A     -0.085112    48A     -0.064744  
      49A     -0.063133    50A     -0.059823    51A     -0.049744  
      52A     -0.041905    53A     -0.041499    54A     -0.035398  
      55A     -0.029583    56A     -0.026169    57A     -0.022652  
      58A     -0.018267    59A     -0.011097    60A     -0.006271  
      61A     -0.005852    62A      0.004769    63A      0.005702  
      64A      0.008511    65A      0.013041    66A      0.016896  
      67A      0.019226    68A      0.023614    69A      0.025924  
      70A      0.028698    71A      0.033057    72A      0.036911  
      73A      0.038192    74A      0.041720    75A      0.045161  
      76A      0.051997    77A      0.053017    78A      0.056661  
      79A      0.061067    80A      0.063822    81A      0.068693  
      82A      0.071154    83A      0.073182    84A      0.077797  
      85A      0.082388    86A      0.086680    87A      0.088857  
      88A      0.093787    89A      0.097067    90A      0.108213  
      91A      0.110030    92A      0.114102    93A      0.117608  
      94A      0.122753    95A      0.125135    96A      0.129788  
      97A      0.131764    98A      0.136855    99A      0.139114  
     100A      0.143907   101A      0.153261   102A      0.158509  
     103A      0.160401   104A      0.163787   105A      0.167257  
     106A      0.167617   107A      0.170347   108A      0.173019  
     109A      0.180112   110A      0.181396   111A      0.188034  
     112A      0.189075   113A      0.194927   114A      0.196211  
     115A      0.201105   116A      0.206398   117A      0.210686  
     118A      0.213085   119A      0.214456   120A      0.225057  
     121A      0.226563   122A      0.228377   123A      0.231206  
     124A      0.232060   125A      0.232693   126A      0.238931  
     127A      0.243883   128A      0.246638   129A      0.250875  
     130A      0.254728   131A      0.258970   132A      0.265723  
     133A      0.275225   134A      0.279083   135A      0.279522  
     136A      0.284644   137A      0.288519   138A      0.291526  
     139A      0.296121   140A      0.302787   141A      0.304579  
     142A      0.311776   143A      0.314437   144A      0.320421  
     145A      0.323132   146A      0.325456   147A      0.327765  
     148A      0.333995   149A      0.337340   150A      0.338344  
     151A      0.341122   152A      0.345696   153A      0.352312  
     154A      0.353516   155A      0.357403   156A      0.359344  
     157A      0.362962   158A      0.368138   159A      0.370604  
     160A      0.375506   161A      0.376736   162A      0.379261  
     163A      0.384172   164A      0.385486   165A      0.392989  
     166A      0.395068   167A      0.398202   168A      0.402579  
     169A      0.404450   170A      0.407696   171A      0.409242  
     172A      0.415192   173A      0.420014   174A      0.422137  
     175A      0.422243   176A      0.423986   177A      0.431279  
     178A      0.436236   179A      0.441092   180A      0.443313  
     181A      0.452102   182A      0.454934   183A      0.460075  
     184A      0.466890   185A      0.470717   186A      0.474761  
     187A      0.482595   188A      0.490780   189A      0.494954  
     190A      0.497725   191A      0.508665   192A      0.510401  
     193A      0.515937   194A      0.525536   195A      0.529500  
     196A      0.533756   197A      0.540414   198A      0.544961  
     199A      0.549310   200A      0.559587   201A      0.568116  
     202A      0.569877   203A      0.574681   204A      0.578534  
     205A      0.584029   206A      0.586929   207A      0.588205  
     208A      0.598258   209A      0.603795   210A      0.606664  
     211A      0.617341   212A      0.623197   213A      0.625767  
     214A      0.626153   215A      0.632128   216A      0.638064  
     217A      0.642037   218A      0.649196   219A      0.658200  
     220A      0.659977   221A      0.667829   222A      0.669842  
     223A      0.677262   224A      0.685751   225A      0.698148  
     226A      0.700939   227A      0.711162   228A      0.711874  
     229A      0.717900   230A      0.719573   231A      0.729115  
     232A      0.733904   233A      0.736810   234A      0.739981  
     235A      0.743655   236A      0.751487   237A      0.756594  
     238A      0.759219   239A      0.764593   240A      0.768385  
     241A      0.770763   242A      0.780395   243A      0.784728  
     244A      0.791089   245A      0.794163   246A      0.799718  
     247A      0.801781   248A      0.806032   249A      0.808543  
     250A      0.817233   251A      0.822841   252A      0.825255  
     253A      0.826752   254A      0.836867   255A      0.842208  
     256A      0.844973   257A      0.848004   258A      0.853097  
     259A      0.859523   260A      0.861631   261A      0.863671  
     262A      0.872335   263A      0.873792   264A      0.877289  
     265A      0.882088   266A      0.888099   267A      0.891018  
     268A      0.896206   269A      0.900528   270A      0.902374  
     271A      0.908939   272A      0.916027   273A      0.923269  
     274A      0.924902   275A      0.929161   276A      0.931652  
     277A      0.935070   278A      0.936525   279A      0.949044  
     280A      0.955613   281A      0.957559   282A      0.962293  
     283A      0.965887   284A      0.972180   285A      0.973689  
     286A      0.981440   287A      0.984201   288A      0.987856  
     289A      0.991150   290A      0.992473   291A      0.996268  
     292A      1.002385   293A      1.004975   294A      1.010060  
     295A      1.013632   296A      1.014419   297A      1.021533  
     298A      1.026745   299A      1.035662   300A      1.043004  
     301A      1.045627   302A      1.049616   303A      1.053636  
     304A      1.060432   305A      1.063270   306A      1.065619  
     307A      1.074281   308A      1.077139   309A      1.083942  
     310A      1.086334   311A      1.089895   312A      1.092354  
     313A      1.098314   314A      1.102559   315A      1.110174  
     316A      1.113474   317A      1.119612   318A      1.122851  
     319A      1.125124   320A      1.139058   321A      1.142192  
     322A      1.146626   323A      1.155641   324A      1.158549  
     325A      1.162395   326A      1.165815   327A      1.177007  
     328A      1.184568   329A      1.186714   330A      1.196234  
     331A      1.207506   332A      1.214441   333A      1.218656  
     334A      1.225820   335A      1.233693   336A      1.237066  
     337A      1.240311   338A      1.249512   339A      1.255140  
     340A      1.260751   341A      1.267741   342A      1.276072  
     343A      1.287123   344A      1.294753   345A      1.298654  
     346A      1.303850   347A      1.306871   348A      1.316382  
     349A      1.323545   350A      1.331372   351A      1.337993  
     352A      1.347566   353A      1.350966   354A      1.357478  
     355A      1.361902   356A      1.378984   357A      1.384927  
     358A      1.389211   359A      1.393606   360A      1.403733  
     361A      1.408477   362A      1.410570   363A      1.419094  
     364A      1.424742   365A      1.427454   366A      1.435320  
     367A      1.442809   368A      1.451971   369A      1.456221  
     370A      1.473558   371A      1.482784   372A      1.484926  
     373A      1.494696   374A      1.499509   375A      1.507234  
     376A      1.514229   377A      1.519080   378A      1.537374  
     379A      1.541233   380A      1.549906   381A      1.554065  
     382A      1.560398   383A      1.567245   384A      1.576576  
     385A      1.583266   386A      1.587907   387A      1.594294  
     388A      1.600053   389A      1.614022   390A      1.636344  
     391A      1.644778   392A      1.653317   393A      1.654431  
     394A      1.668091   395A      1.672204   396A      1.678472  
     397A      1.683558   398A      1.695118   399A      1.698987  
     400A      1.708431   401A      1.712941   402A      1.719153  
     403A      1.719788   404A      1.734295   405A      1.738954  
     406A      1.742807   407A      1.761180   408A      1.764685  
     409A      1.775125   410A      1.780228   411A      1.789416  
     412A      1.793530   413A      1.805016   414A      1.815625  
     415A      1.823404   416A      1.830618   417A      1.833207  
     418A      1.841752   419A      1.852774   420A      1.866300  
     421A      1.867810   422A      1.875634   423A      1.881816  
     424A      1.886264   425A      1.892330   426A      1.903486  
     427A      1.908079   428A      1.916012   429A      1.918768  
     430A      1.934203   431A      1.937178   432A      1.938174  
     433A      1.947540   434A      1.952293   435A      1.956474  
     436A      1.962661   437A      1.972723   438A      1.978796  
     439A      1.996078   440A      1.997862   441A      2.004350  
     442A      2.008344   443A      2.017156   444A      2.024052  
     445A      2.033563   446A      2.043001   447A      2.054126  
     448A      2.059076   449A      2.066069   450A      2.080086  
     451A      2.083644   452A      2.085292   453A      2.096255  
     454A      2.113475   455A      2.126574   456A      2.138211  
     457A      2.150662   458A      2.165706   459A      2.188030  
     460A      2.198377   461A      2.202067   462A      2.204132  
     463A      2.210878   464A      2.219467   465A      2.223752  
     466A      2.236222   467A      2.248907   468A      2.251679  
     469A      2.257411   470A      2.269839   471A      2.280799  
     472A      2.293172   473A      2.299621   474A      2.306870  
     475A      2.322920   476A      2.332112   477A      2.342555  
     478A      2.347916   479A      2.361046   480A      2.372284  
     481A      2.393209   482A      2.399407   483A      2.402635  
     484A      2.414298   485A      2.418196   486A      2.431663  
     487A      2.434707   488A      2.443313   489A      2.461439  
     490A      2.481465   491A      2.489298   492A      2.502836  
     493A      2.516330   494A      2.544918   495A      2.546496  
     496A      2.569403   497A      2.576225   498A      2.583639  
     499A      2.597682   500A      2.616011   501A      2.626353  
     502A      2.633060   503A      2.653135   504A      2.668182  
     505A      2.686855   506A      2.697613   507A      2.731489  
     508A      2.735484   509A      2.742011   510A      2.776646  
     511A      2.793004   512A      2.801619   513A      2.835929  
     514A      2.841295   515A      2.853850   516A      2.881506  
     517A      2.901012   518A      2.928248   519A      2.934485  
     520A      2.953944   521A      2.980344   522A      2.984789  
     523A      2.995599   524A      3.008875   525A      3.033117  
     526A      3.056484   527A      3.067450   528A      3.072974  
     529A      3.085531   530A      3.099897   531A      3.132961  
     532A      3.140524   533A      3.167094   534A      3.186813  
     535A      3.192466   536A      3.195111   537A      3.213818  
     538A      3.216479   539A      3.221589   540A      3.230794  
     541A      3.245340   542A      3.258322   543A      3.262983  
     544A      3.270700   545A      3.281307   546A      3.283889  
     547A      3.300321   548A      3.323818   549A      3.331816  
     550A      3.347034   551A      3.355031   552A      3.362697  
     553A      3.372305   554A      3.380803   555A      3.389416  
     556A      3.391428   557A      3.395691   558A      3.410421  
     559A      3.414859   560A      3.418593   561A      3.427463  
     562A      3.436604   563A      3.445355   564A      3.453447  
     565A      3.469111   566A      3.470232   567A      3.471080  
     568A      3.487704   569A      3.505721   570A      3.506471  
     571A      3.508614   572A      3.532364   573A      3.545465  
     574A      3.558715   575A      3.560217   576A      3.567455  
     577A      3.575231   578A      3.597572   579A      3.601233  
     580A      3.613610   581A      3.625882   582A      3.629378  
     583A      3.637956   584A      3.652664   585A      3.659326  
     586A      3.660823   587A      3.666109   588A      3.682070  
     589A      3.698101   590A      3.703498   591A      3.711721  
     592A      3.723485   593A      3.730879   594A      3.738046  
     595A      3.745669   596A      3.756783   597A      3.768500  
     598A      3.771287   599A      3.780916   600A      3.786072  
     601A      3.795558   602A      3.813160   603A      3.820684  
     604A      3.829442   605A      3.839043   606A      3.842979  
     607A      3.851155   608A      3.858158   609A      3.863831  
     610A      3.871258   611A      3.879862   612A      3.884439  
     613A      3.888232   614A      3.893560   615A      3.896677  
     616A      3.911902   617A      3.937614   618A      3.944346  
     619A      3.948078   620A      3.956890   621A      3.968426  
     622A      3.980338   623A      3.992521   624A      3.996157  
     625A      4.011591   626A      4.027994   627A      4.039961  
     628A      4.045179   629A      4.056112   630A      4.059067  
     631A      4.063245   632A      4.078196   633A      4.079691  
     634A      4.086416   635A      4.101986   636A      4.108532  
     637A      4.113353   638A      4.128746   639A      4.139404  
     640A      4.141054   641A      4.145796   642A      4.154037  
     643A      4.163275   644A      4.174366   645A      4.192344  
     646A      4.195730   647A      4.198729   648A      4.210733  
     649A      4.223975   650A      4.227471   651A      4.233571  
     652A      4.244224   653A      4.249107   654A      4.262059  
     655A      4.268957   656A      4.273419   657A      4.288241  
     658A      4.292260   659A      4.295683   660A      4.303318  
     661A      4.308626   662A      4.325348   663A      4.336416  
     664A      4.348526   665A      4.366106   666A      4.369986  
     667A      4.372140   668A      4.375299   669A      4.382134  
     670A      4.404928   671A      4.409186   672A      4.428868  
     673A      4.446230   674A      4.447425   675A      4.454311  
     676A      4.471196   677A      4.483876   678A      4.502219  
     679A      4.507367   680A      4.529737   681A      4.535983  
     682A      4.561833   683A      4.572089   684A      4.582064  
     685A      4.593163   686A      4.605530   687A      4.613173  
     688A      4.632404   689A      4.643008   690A      4.651846  
     691A      4.660840   692A      4.665728   693A      4.682692  
     694A      4.696685   695A      4.717634   696A      4.733244  
     697A      4.743070   698A      4.754129   699A      4.757519  
     700A      4.770019   701A      4.781317   702A      4.791101  
     703A      4.810095   704A      4.828231   705A      4.834437  
     706A      4.851099   707A      4.855430   708A      4.869804  
     709A      4.897839   710A      4.903641   711A      4.905230  
     712A      4.922813   713A      4.935083   714A      4.953339  
     715A      4.955107   716A      4.963921   717A      4.970698  
     718A      4.983677   719A      4.994631   720A      5.004543  
     721A      5.008823   722A      5.023797   723A      5.028632  
     724A      5.039622   725A      5.044578   726A      5.063421  
     727A      5.087239   728A      5.093798   729A      5.105031  
     730A      5.137313   731A      5.144484   732A      5.153239  
     733A      5.177230   734A      5.181634   735A      5.194025  
     736A      5.205229   737A      5.210975   738A      5.245230  
     739A      5.259738   740A      5.266760   741A      5.281853  
     742A      5.301285   743A      5.305325   744A      5.324833  
     745A      5.346067   746A      5.364034   747A      5.378862  
     748A      5.390234   749A      5.417135   750A      5.443112  
     751A      5.449035   752A      5.498632   753A      5.510584  
     754A      5.539651   755A      5.547948   756A      5.562694  
     757A      5.584814   758A      5.605060   759A      5.613461  
     760A      5.618862   761A      5.632659   762A      5.678795  
     763A      5.692217   764A      5.698529   765A      5.721836  
     766A      5.734200   767A      5.779375   768A      5.827337  
     769A      5.841819   770A      5.861215   771A      5.931393  
     772A      5.939389   773A      5.984226   774A      5.994118  
     775A      6.017611   776A      6.047633   777A      6.104826  
     778A      6.119575   779A      6.150462   780A      6.190341  
     781A      6.255322   782A      6.285005   783A      6.294849  
     784A      6.348279   785A      6.387868   786A      6.397517  
     787A      6.414029   788A      6.477781   789A      6.491197  
     790A      6.547327   791A      6.578144   792A      6.634192  
     793A      6.670155   794A      6.750827   795A      6.778137  
     796A      6.796599   797A      6.810206   798A      6.828576  
     799A      6.830051   800A      6.844105   801A      6.968235  
     802A      6.980124   803A      7.031941   804A      7.189491  
     805A      7.226331   806A      7.320525   807A      7.436048  
     808A      7.465864   809A      7.530525   810A      7.541859  
     811A      7.552924   812A      7.727548   813A      7.845633  
     814A      8.126269   815A      8.511248   816A     16.009365  
     817A     16.255989   818A     16.653933   819A     16.838331  
     820A     16.978925   821A     18.789022   822A     19.103307  
     823A     19.541368   824A     19.841961   825A     20.009847  
     826A     20.046159   827A     20.544123   828A     21.739937  

    Final Occupation by Irrep:
              A 
    DOCC [    45 ]

  Energy converged.

  @DF-RHF Final Energy:  -551.67169458873434

   => Energetics <=

    Nuclear Repulsion Energy =            713.1666228391377444
    One-Electron Energy =               -2149.3444297511941841
    Two-Electron Energy =                 884.5061123233220997
    DFT Exchange-Correlation Energy =       0.0000000000000000
    Empirical Dispersion Energy =           0.0000000000000000
    PCM Polarization Energy =               0.0000000000000000
    EFP Energy =                            0.0000000000000000
    Total Energy =                       -551.6716945887343400



Properties will be evaluated at   0.000000,   0.000000,   0.000000 Bohr

Properties computed using the SCF density matrix

  Nuclear Dipole Moment: (a.u.)
     X:     2.1215      Y:    -1.9002      Z:    -2.0085

  Electronic Dipole Moment: (a.u.)
     X:     0.6609      Y:    -0.1377      Z:    -0.2025

  Dipole Moment: (a.u.)
     X:     2.7824      Y:    -2.0379      Z:    -2.2110     Total:     4.0967

  Dipole Moment: (Debye)
     X:     7.0721      Y:    -5.1798      Z:    -5.6198     Total:    10.4129


*** tstop() called on gpu-2-12.local at Sun Nov 12 10:43:19 2017
Module time:
	user time   =    1206.74 seconds =      20.11 minutes
	system time =      53.18 seconds =       0.89 minutes
	total time  =        521 seconds =       8.68 minutes
Total time:
	user time   =    1206.74 seconds =      20.11 minutes
	system time =      53.18 seconds =       0.89 minutes
	total time  =        521 seconds =       8.68 minutes

  //>>>>>>>>>>>>>>>>>>>>>>>>>>>>>>>>>>>//
  //               DFMP2               //
  //<<<<<<<<<<<<<<<<<<<<<<<<<<<<<<<<<<<//

   => Loading Basis Set <=

    Name: (AUG-CC-PVTZ AUX)
    Role: RIFIT
    Keyword: DF_BASIS_MP2
    atoms 1-11  entry C          line   147 file /cbio/jclab/home/chayas/anaconda/envs/py35/share/psi4/basis/aug-cc-pvtz-ri.gbs 
    atoms 12    entry N          line   205 file /cbio/jclab/home/chayas/anaconda/envs/py35/share/psi4/basis/aug-cc-pvtz-ri.gbs 
    atoms 13    entry O          line   263 file /cbio/jclab/home/chayas/anaconda/envs/py35/share/psi4/basis/aug-cc-pvtz-ri.gbs 
    atoms 14-23 entry H          line    29 file /cbio/jclab/home/chayas/anaconda/envs/py35/share/psi4/basis/aug-cc-pvtz-ri.gbs 

	 --------------------------------------------------------
	                          DF-MP2                         
	      2nd-Order Density-Fitted Moller-Plesset Theory     
	              RMP2 Wavefunction,   8 Threads             
	                                                         
	        Rob Parrish, Justin Turney, Andy Simmonett,      
	           Ed Hohenstein, and C. David Sherrill          
	 --------------------------------------------------------

   => Auxiliary Basis Set <=

  Basis Set: (AUG-CC-PVTZ AUX)
    Blend: AUG-CC-PVTZ-RI
    Number of shells: 504
    Number of basis function: 1838
    Number of Cartesian functions: 2318
    Spherical Harmonics?: true
    Max angular momentum: 4

	 --------------------------------------------------------
	                 NBF =   828, NAUX =  1838
	 --------------------------------------------------------
	   CLASS    FOCC     OCC    AOCC    AVIR     VIR    FVIR
	   PAIRS       0      45      45     783     783       0
	 --------------------------------------------------------


         ------------------------------------------------------------
                                     CPHF                           
                                  Rob Parrish                       
         ------------------------------------------------------------

  ==> Geometry <==

    Molecular point group: c1
    Full point group: C1

    Geometry (in Angstrom), charge = 1, multiplicity = 1:

       Center              X                  Y                   Z               Mass       
    ------------   -----------------  -----------------  -----------------  -----------------
           C         -1.266003643078     0.722169696851    -0.571932639608    12.000000000000
           C         -0.273003643078     0.106169696851     1.542067360392    12.000000000000
           C         -2.344003643078     1.295169696851     0.101067360392    12.000000000000
           C         -1.351003643078     0.679169696851     2.216067360392    12.000000000000
           C          1.288996356922     0.039169696851    -1.781932639608    12.000000000000
           C          1.564996356922    -1.546830303149     0.009067360392    12.000000000000
           C          2.364996356922    -0.550830303149    -2.429932639608    12.000000000000
           C          2.634996356922    -2.096830303149    -0.683932639608    12.000000000000
           C         -0.230003643078     0.127169696851     0.148067360392    12.000000000000
           C          0.888996356922    -0.466830303149    -0.549932639608    12.000000000000
           C         -2.387003643078     1.274169696851     1.495067360392    12.000000000000
           N          2.998996356922    -1.589830303149    -1.868932639608    14.003074004780
           O         -3.439003643078     1.834169696851     2.152067360392    15.994914619560
           H         -1.247003643078     0.746169696851    -1.658932639608     1.007825032070
           H          0.526996356922    -0.353830303149     2.118067360392     1.007825032070
           H         -3.148003643078     1.757169696851    -0.465932639608     1.007825032070
           H         -1.379003643078     0.660169696851     3.302067360392     1.007825032070
           H          0.779996356922     0.881169696851    -2.241932639608     1.007825032070
           H          1.273996356922    -1.962830303149     0.969067360392     1.007825032070
           H          2.745996356922    -0.223830303149    -3.387932639608     1.007825032070
           H          3.216996356922    -2.934830303149    -0.325932639608     1.007825032070
           H          3.786996356922    -2.008830303149    -2.361932639608     1.007825032070
           H         -4.267003643078     1.398169696851     1.894067360392     1.007825032070

  Nuclear repulsion =  713.166622839137744
  Reference energy  = -551.671694588734340

  ==> Basis Set <==

  Basis Set: AUG-CC-PVTZ
    Blend: AUG-CC-PVTZ
    Number of shells: 272
    Number of basis function: 828
    Number of Cartesian functions: 965
    Spherical Harmonics?: true
    Max angular momentum: 3

  ==> CGRSolver (by Rob Parrish) <==

   Number of roots    =         1
   Preconditioning    =    JACOBI
   Convergence cutoff =     1E-06
   Maximum iterations =       100

  ==> CPHFRHamiltonian (by Rob Parrish) <== 

  ==> DFJK: Density-Fitted J/K Matrices <==

    J tasked:                  Yes
    K tasked:                  Yes
    wK tasked:                  No
    OpenMP threads:              8
    Integrals threads:           8
    Memory (MB):              3576
    Algorithm:                Disk
    Integral Cache:           NONE
    Schwarz Cutoff:          1E-12
    Fitting Condition:       1E-12

   => Auxiliary Basis Set <=

  Basis Set: (AUG-CC-PVTZ AUX)
    Blend: AUG-CC-PVTZ-JKFIT
    Number of shells: 530
    Number of basis function: 1812
    Number of Cartesian functions: 2253
    Spherical Harmonics?: true
    Max angular momentum: 4

  ==> CPHF Iterations <==

  => Iterations <=

             Iter  Converged  Remaining    Residual
  CGR           1          0          1   1.056E-01
  CGR           2          0          1   4.893E-02
  CGR           3          0          1   2.809E-02
  CGR           4          0          1   9.104E-03
  CGR           5          0          1   4.084E-03
  CGR           6          0          1   2.073E-03
  CGR           7          0          1   6.986E-04
  CGR           8          0          1   2.795E-04
  CGR           9          0          1   1.243E-04
  CGR          10          0          1   4.165E-05
  CGR          11          0          1   1.162E-05
  CGR          12          0          1   4.647E-06
  CGR          13          0          1   1.481E-06
  CGR          14          1          0   4.796E-07

    CGRSolver converged.

  ==> DFCorrGrad: Density-Fitted Correlated Gradients <==

    OpenMP threads:              8
    Integrals threads:           8
    Memory (MB):              3576
    Schwarz Cutoff:          0E+00
    Fitting Condition:       1E-12

   => Auxiliary Basis Set <=

  Basis Set: (AUG-CC-PVTZ AUX)
    Blend: AUG-CC-PVTZ-JKFIT
    Number of shells: 530
    Number of basis function: 1812
    Number of Cartesian functions: 2253
    Spherical Harmonics?: true
    Max angular momentum: 4

	-----------------------------------------------------------
	 ==================> DF-MP2 Energies <==================== 
	-----------------------------------------------------------
	 Reference Energy          =    -551.6716945887343400 [Eh]
	 Singles Energy            =      -0.0000000000000002 [Eh]
	 Same-Spin Energy          =      -0.5962581636947827 [Eh]
	 Opposite-Spin Energy      =      -1.8248179312912973 [Eh]
	 Correlation Energy        =      -2.4210760949860801 [Eh]
	 Total Energy              =    -554.0927706837204596 [Eh]
	-----------------------------------------------------------
	 ================> DF-SCS-MP2 Energies <================== 
	-----------------------------------------------------------
	 SCS Same-Spin Scale       =       0.3333333333333333 [-]
	 SCS Opposite-Spin Scale   =       1.2000000000000000 [-]
	 SCS Same-Spin Energy      =      -0.1987527212315942 [Eh]
	 SCS Opposite-Spin Energy  =      -2.1897815175495565 [Eh]
	 SCS Correlation Energy    =      -2.3885342387811508 [Eh]
	 SCS Total Energy          =    -554.0602288275155161 [Eh]
	-----------------------------------------------------------


  -Total Gradient:
     Atom            X                  Y                   Z
    ------   -----------------  -----------------  -----------------
       1        0.008277552194    -0.008388975487    -0.003176902789
       2        0.009568038876    -0.002430523485    -0.007262046659
       3       -0.007294226614     0.003740008917     0.007958258252
       4       -0.007166535082     0.000619556840    -0.000404156472
       5       -0.015186407150     0.008973484084     0.013126039406
       6       -0.018727980456     0.008281540799     0.008425491838
       7        0.008104430890    -0.010074821531     0.004753354989
       8        0.005376155587     0.003407153470    -0.013576922571
       9       -0.001080433896     0.000436039030     0.000417553333
      10        0.013225434449    -0.006371463226    -0.008293188306
      11        0.003487709586     0.006035839833     0.005361345718
      12       -0.001387092265     0.000280404355     0.001271880654
      13        0.002383738509     0.005026199167    -0.005536532675
      14        0.001408493068     0.001494340292    -0.005707767735
      15        0.004019456494    -0.004219869641     0.002680817671
      16       -0.003078140088     0.001904557304    -0.004505753348
      17        0.002097647825    -0.001490224604     0.005592438635
      18       -0.005050207987     0.004307986197    -0.002919122665
      19       -0.001601052916    -0.000766691769     0.006952273140
      20        0.001874369623    -0.000442282823    -0.002567404996
      21        0.002390190779    -0.001686272604    -0.000105155112
      22        0.005030117851    -0.002713089842    -0.003198538929
      23       -0.006671259283    -0.005922895277     0.000714038611


*** tstop() called on gpu-2-12.local at Sun Nov 12 11:16:35 2017
Module time:
	user time   =    5411.37 seconds =      90.19 minutes
	system time =     112.54 seconds =       1.88 minutes
	total time  =       2517 seconds =      41.95 minutes
Total time:
	user time   =    5411.37 seconds =      90.19 minutes
	system time =     112.54 seconds =       1.88 minutes
	total time  =       2517 seconds =      41.95 minutes

			-----------------------------------------
			 OPTKING 2.0: for geometry optimizations 
			  - R.A. King,  Bethel University        
			-----------------------------------------

	Internal coordinates to be generated automatically.
	Detected frag 1 with atoms:  1 2 3 4 5 6 7 8 9 10 11 12 13 14 15 16 17 18 19 20
	 21 22 23
	---Fragment 1 Bond Connectivity---
	 1 : 3 9 14
	 2 : 4 9 15
	 3 : 1 11 16
	 4 : 2 11 17
	 5 : 7 10 18
	 6 : 8 10 19
	 7 : 5 12 20
	 8 : 6 12 21
	 9 : 1 2 10
	 10 : 5 6 9
	 11 : 3 4 13
	 12 : 7 8 22
	 13 : 11 23
	 14 : 1
	 15 : 2
	 16 : 3
	 17 : 4
	 18 : 5
	 19 : 6
	 20 : 7
	 21 : 8
	 22 : 12
	 23 : 13

	Assuming in current code that numbering for constraints corresponds to unified fragment.
	Fixed dihedral atom list: 
	     3    11    13    23
	---Fragment 1 Geometry and Gradient---
	 C          -2.3924001687        1.3647029485       -1.0807960553
	 C          -0.5159021187        0.2006316507        2.9140849896
	 C          -4.4295249399        2.4475160227        0.1909896321
	 C          -2.5530268899        1.2834447248        4.1877604032
	 C           2.4358501009        0.0740199998       -3.3673646761
	 C           2.9574145135       -2.9230856470        0.0171348279
	 C           4.4691954199       -1.0409184186       -4.5919072102
	 C           4.9794214757       -3.9624350201       -1.2924453822
	 C          -0.4346438950        0.2403158995        0.2798067604
	 C           1.6799596477       -0.8821814235       -1.0392220804
	 C          -4.5107831636        2.4078317739        2.8252678614
	 N           5.6672817881       -3.0043438707       -3.5317708497
	 O          -6.4987750554        3.4660784083        4.0668179307
	 H          -2.3564953721        1.4100563757       -3.1349283618
	 H           0.9958787876       -0.6686423705        4.0025672421
	 H          -5.9488647507        3.3205694961       -0.8804850852
	 H          -2.6059392217        1.2475399283        6.2400029835
	 H           1.4739794992        1.6651694036       -4.2366386972
	 H           2.4075042089       -3.7092117183        1.8312719155
	 H           5.1891810765       -0.4229779732       -6.4022648455
	 H           6.0792420851       -5.5460255194       -0.6159234266
	 H           7.1563859808       -3.7961391204       -4.4634058332
	 H          -8.0634682934        2.6421578143        3.5792685884
	             0.0082775522       -0.0083889755       -0.0031769028
	             0.0095680389       -0.0024305235       -0.0072620467
	            -0.0072942266        0.0037400089        0.0079582583
	            -0.0071665351        0.0006195568       -0.0004041565
	            -0.0151864072        0.0089734841        0.0131260394
	            -0.0187279805        0.0082815408        0.0084254918
	             0.0081044309       -0.0100748215        0.0047533550
	             0.0053761556        0.0034071535       -0.0135769226
	            -0.0010804339        0.0004360390        0.0004175533
	             0.0132254344       -0.0063714632       -0.0082931883
	             0.0034877096        0.0060358398        0.0053613457
	            -0.0013870923        0.0002804044        0.0012718807
	             0.0023837385        0.0050261992       -0.0055365327
	             0.0014084931        0.0014943403       -0.0057077677
	             0.0040194565       -0.0042198696        0.0026808177
	            -0.0030781401        0.0019045573       -0.0045057533
	             0.0020976478       -0.0014902246        0.0055924386
	            -0.0050502080        0.0043079862       -0.0029191227
	            -0.0016010529       -0.0007666918        0.0069522731
	             0.0018743696       -0.0004422828       -0.0025674050
	             0.0023901908       -0.0016862726       -0.0001051551
	             0.0050301179       -0.0027130898       -0.0031985389
	            -0.0066712593       -0.0059228953        0.0007140386

	Previous optimization step data not found.  Starting new optimization.

	---Fragment 1 Intrafragment Coordinates---
	 - Coordinate -           - BOHR/RAD -       - ANG/DEG -
	 R(1,3)           =         2.634350	       1.394038
	 R(1,9)           =         2.635962	       1.394891
	 R(1,14)          =         2.054947	       1.087431
	 R(2,4)           =         2.635263	       1.394521
	 R(2,9)           =         2.635830	       1.394821
	 R(2,15)          =         2.055702	       1.087831
	 R(3,11)          =         2.635830	       1.394821
	 R(3,16)          =         2.053941	       1.086899
	 R(4,11)          =         2.636938	       1.395407
	 R(4,17)          =         2.053239	       1.086527
	 R(5,7)           =         2.622420	       1.387725
	 R(5,10)          =         2.627915	       1.390633
	 R(5,18)          =         2.052459	       1.086115
	 R(6,8)           =         2.623692	       1.388398
	 R(6,10)          =         2.629272	       1.391351
	 R(6,19)          =         2.052191	       1.085973
	 R(7,12)          =         2.532655	       1.340223
	 R(7,20)          =         2.043924	       1.081598
	 R(8,12)          =         2.530942	       1.339317
	 R(8,21)          =         2.043293	       1.081264
	 R(9,10)          =         2.733384	       1.446444
	 R(11,13)         =         2.571662	       1.360865
	 R(12,22)         =         1.926737	       1.019585
	 R(13,23)         =         1.834343	       0.970693
	 B(1,3,11)        =         2.094553	     120.009056
	 B(1,3,16)        =         2.088505	     119.662516
	 B(1,9,2)         =         2.093692	     119.959722
	 B(1,9,10)        =         2.095161	     120.043881
	 B(2,4,11)        =         2.093699	     119.960108
	 B(2,4,17)        =         2.089577	     119.723926
	 B(2,9,10)        =         2.094332	     119.996376
	 B(3,1,9)         =         2.094940	     120.031219
	 B(3,1,14)        =         2.079469	     119.144799
	 B(3,11,4)        =         2.094306	     119.994870
	 B(3,11,13)       =         2.094549	     120.008801
	 B(4,2,9)         =         2.095181	     120.045019
	 B(4,2,15)        =         2.078675	     119.099297
	 B(4,11,13)       =         2.094331	     119.996326
	 B(5,7,12)        =         2.095473	     120.061759
	 B(5,7,20)        =         2.162990	     123.930212
	 B(5,10,6)        =         2.092808	     119.909049
	 B(5,10,9)        =         2.095104	     120.040644
	 B(6,8,12)        =         2.095689	     120.074121
	 B(6,8,21)        =         2.161055	     123.819347
	 B(6,10,9)        =         2.095271	     120.050189
	 B(7,5,10)        =         2.073747	     118.816947
	 B(7,5,18)        =         2.088865	     119.683141
	 B(7,12,8)        =         2.135611	     122.361511
	 B(7,12,22)       =         2.073499	     118.802740
	 B(8,6,10)        =         2.073041	     118.776513
	 B(8,6,19)        =         2.089782	     119.735704
	 B(8,12,22)       =         2.074075	     118.835741
	 B(9,1,14)        =         2.108776	     120.823969
	 B(9,2,15)        =         2.109330	     120.855683
	 B(10,5,18)       =         2.120573	     121.499869
	 B(10,6,19)       =         2.120361	     121.487761
	 B(11,3,16)       =         2.100127	     120.328425
	 B(11,4,17)       =         2.099910	     120.315955
	 B(11,13,23)      =         1.924367	     110.258129
	 B(12,7,20)       =         2.024722	     116.007998
	 B(12,8,21)       =         2.026441	     116.106509
	 D(1,3,11,4)      =        -0.000325	      -0.018609
	 D(1,3,11,13)     =         3.140978	     179.964785
	 D(1,9,2,4)       =         0.000325	       0.018608
	 D(1,9,2,15)      =        -3.141497	    -179.994534
	 D(1,9,10,5)      =         0.522161	      29.917626
	 D(1,9,10,6)      =        -2.617252	    -149.957477
	 D(2,4,11,3)      =         0.000301	       0.017261
	 D(2,4,11,13)     =        -3.141002	    -179.966135
	 D(2,9,1,3)       =        -0.000348	      -0.019945
	 D(2,9,1,14)      =        -3.141221	    -179.978731
	 D(2,9,10,5)      =        -2.618515	    -150.029870
	 D(2,9,10,6)      =         0.525257	      30.095026
	 D(3,1,9,10)      =        -3.141025	    -179.967461
	 D(3,11,4,17)     =         3.141223	     179.978848
	 D(3,11,13,23)    =         1.047832	      60.036330
	 D(4,2,9,10)      =         3.141002	     179.966149
	 D(4,11,3,16)     =         3.141593	     180.000000
	 D(4,11,13,23)    =        -2.094051	    -119.980276
	 D(5,7,12,8)      =        -0.000900	      -0.051587
	 D(5,7,12,22)     =         3.141281	     179.982140
	 D(5,10,6,8)      =         0.001757	       0.100696
	 D(5,10,6,19)     =        -3.140779	    -179.953357
	 D(6,8,12,7)      =         0.001479	       0.084766
	 D(6,8,12,22)     =        -3.140702	    -179.948971
	 D(6,10,5,7)      =        -0.001201	      -0.068795
	 D(6,10,5,18)     =        -3.141485	    -179.993816
	 D(7,5,10,9)      =        -3.140617	    -179.944076
	 D(7,12,8,21)     =        -3.141052	    -179.969035
	 D(8,6,10,9)      =         3.141173	     179.975965
	 D(8,12,7,20)     =         3.139609	     179.886353
	 D(9,1,3,11)      =         0.000348	       0.019955
	 D(9,1,3,16)      =        -3.141571	    -179.998735
	 D(9,2,4,11)      =        -0.000301	      -0.017270
	 D(9,2,4,17)      =        -3.141228	    -179.979086
	 D(9,10,5,18)     =         0.002285	       0.130903
	 D(9,10,6,19)     =        -0.001363	      -0.078088
	 D(10,5,7,12)     =         0.000747	       0.042772
	 D(10,5,7,20)     =        -3.139673	    -179.890006
	 D(10,6,8,12)     =        -0.001882	      -0.107847
	 D(10,6,8,21)     =         3.140725	     179.950304
	 D(10,9,1,14)     =         0.001287	       0.073752
	 D(10,9,2,15)     =        -0.000820	      -0.046992
	 D(11,3,1,14)     =         3.141234	     179.979432
	 D(11,4,2,15)     =         3.141517	     179.995641
	 D(12,7,5,18)     =         3.141055	     179.969186
	 D(12,8,6,19)     =         3.140637	     179.945236
	 D(13,11,3,16)    =        -0.000286	      -0.016400
	 D(13,11,4,17)    =        -0.000079	      -0.004548
	 D(14,1,3,16)     =        -0.000685	      -0.039257
	 D(15,2,4,17)     =         0.000590	       0.033826
	 D(18,5,7,20)     =         0.000635	       0.036408
	 D(19,6,8,21)     =         0.000059	       0.003387
	 D(20,7,12,22)    =        -0.001395	      -0.079920
	 D(21,8,12,22)    =        -0.000048	      -0.002772

	Current energy   :      -554.0927706837

	Generating empirical Hessian (Schlegel '84) for each fragment.
	Adding user-defined constraint: Fragment 1; Coordinate 76:
		Value =     1.047832; Fixed value    =     1.047198
		Force =    -0.000317; Force constant =     0.500000
	Removing off-diagonal coupling between coordinate 76 and others.
	Taking RFO optimization step.
	Going to follow RFO solution 1.
	Using RFO vector 1.

	Determining step-restricting scale parameter for RS-RFO.
	Maximum step size allowed    0.10000

	 Iter      |step|        alpha        rfo_root  
	------------------------------------------------
	    0     0.29900       1.00000           1
	    1     0.19914       4.00230           1
	    2     0.14619       9.79018           1
	    3     0.11792      18.98704           1
	    4     0.10429      28.16902           1
	    5     0.10033      31.89894           1
	    6     0.10000      32.24044           1
	------------------------------------------------
	Norm of target step-size    0.10000
	Projected energy change by RFO approximation:        -0.0038450636

	Back-transformation to cartesian coordinates...
	Could not converge backtransformation.
	Using first guess instead.

	--- Internal Coordinate Step in ANG or DEG, aJ/ANG or AJ/DEG ---
	 ---------------------------------------------------------------------------
	   Coordinate                Previous        Force       Change         New 
	   ----------                --------       ------       ------       ------
	    1 R(1,3)          =      1.394038    -0.086247    -0.009292     1.384746
	    2 R(1,9)          =      1.394891     0.012827     0.001618     1.396509
	    3 R(1,14)         =      1.087431    -0.047480    -0.006355     1.081076
	    4 R(2,4)          =      1.394521    -0.087291    -0.009513     1.385008
	    5 R(2,9)          =      1.394821     0.015283     0.001865     1.396686
	    6 R(2,15)         =      1.087831    -0.050749    -0.006762     1.081069
	    7 R(3,11)         =      1.394821    -0.023054    -0.002656     1.392165
	    8 R(3,16)         =      1.086899    -0.044794    -0.005986     1.080913
	    9 R(4,11)         =      1.395407    -0.056389    -0.006314     1.389093
	   10 R(4,17)         =      1.086527    -0.045822    -0.006067     1.080460
	   11 R(5,7)          =      1.387725    -0.112809    -0.011969     1.375756
	   12 R(5,10)         =      1.390633     0.067764     0.007508     1.398141
	   13 R(5,18)         =      1.086115    -0.057200    -0.007596     1.078518
	   14 R(6,8)          =      1.388398    -0.116910    -0.012436     1.375962
	   15 R(6,10)         =      1.391351     0.062633     0.006933     1.398284
	   16 R(6,19)         =      1.085973    -0.056588    -0.007507     1.078466
	   17 R(7,12)         =      1.340223     0.018074     0.001613     1.341837
	   18 R(7,20)         =      1.081598    -0.023073    -0.003023     1.078575
	   19 R(8,12)         =      1.339317     0.024040     0.002147     1.341464
	   20 R(8,21)         =      1.081264    -0.021080    -0.002763     1.078501
	   21 R(9,10)         =      1.446444     0.064130     0.008016     1.454460
	   22 R(11,13)        =      1.360865    -0.005085    -0.000245     1.360620
	   23 R(12,22)        =      1.019585    -0.053956    -0.006067     1.013518
	   24 R(13,23)        =      0.970693    -0.067237    -0.006413     0.964280
	   25 B(1,3,11)       =    120.009056     0.000053     0.083033   120.092089
	   26 B(1,3,16)       =    119.662516     0.000127     0.362494   120.025010
	   27 B(1,9,2)        =    119.959722    -0.000429    -0.805214   119.154508
	   28 B(1,9,10)       =    120.043881     0.000212     0.396790   120.440671
	   29 B(2,4,11)       =    119.960108     0.000029     0.004658   119.964766
	   30 B(2,4,17)       =    119.723926     0.000191     0.539988   120.263914
	   31 B(2,9,10)       =    119.996376     0.000217     0.408293   120.404669
	   32 B(3,1,9)        =    120.031219     0.000118     0.290551   120.321770
	   33 B(3,1,14)       =    119.144799    -0.000097    -0.247431   118.897368
	   34 B(3,11,4)       =    119.994870     0.000020    -0.034107   119.960764
	   35 B(3,11,13)      =    120.008801     0.000468     0.968401   120.977202
	   36 B(4,2,9)        =    120.045019     0.000209     0.460248   120.505267
	   37 B(4,2,15)       =    119.099297    -0.000154    -0.363014   118.736283
	   38 B(4,11,13)      =    119.996326    -0.000487    -0.943570   119.052756
	   39 B(5,7,12)       =    120.061759    -0.000231    -0.538863   119.522895
	   40 B(5,7,20)       =    123.930212    -0.000004    -0.044201   123.886011
	   41 B(5,10,6)       =    119.909049    -0.000820    -1.624297   118.284752
	   42 B(5,10,9)       =    120.040644     0.000412     0.817380   120.858025
	   43 B(6,8,12)       =    120.074121    -0.000225    -0.532804   119.541316
	   44 B(6,8,21)       =    123.819347     0.000006    -0.012999   123.806348
	   45 B(6,10,9)       =    120.050189     0.000407     0.806980   120.857169
	   46 B(7,5,10)       =    118.816947     0.000520     1.121156   119.938103
	   47 B(7,5,18)       =    119.683141    -0.000345    -0.792298   118.890843
	   48 B(7,12,8)       =    122.361511     0.000225     0.436194   122.797705
	   49 B(7,12,22)      =    118.802740    -0.000112    -0.215524   118.587216
	   50 B(8,6,10)       =    118.776513     0.000530     1.138638   119.915151
	   51 B(8,6,19)       =    119.735704    -0.000355    -0.810559   118.925145
	   52 B(8,12,22)      =    118.835741    -0.000114    -0.220669   118.615072
	   53 B(9,1,14)       =    120.823969    -0.000021    -0.044131   120.779838
	   54 B(9,2,15)       =    120.855683    -0.000055    -0.098672   120.757011
	   55 B(10,5,18)      =    121.499869    -0.000175    -0.330125   121.169745
	   56 B(10,6,19)      =    121.487761    -0.000176    -0.328662   121.159099
	   57 B(11,3,16)      =    120.328425    -0.000180    -0.445544   119.882881
	   58 B(11,4,17)      =    120.315955    -0.000220    -0.544817   119.771137
	   59 B(11,13,23)     =    110.258129    -0.000036    -0.091731   110.166398
	   60 B(12,7,20)      =    116.007998     0.000235     0.582721   116.590719
	   61 B(12,8,21)      =    116.106509     0.000219     0.545528   116.652037
	   62 D(1,3,11,4)     =     -0.018609     0.000010     0.271286     0.252677
	   63 D(1,3,11,13)    =    179.964785    -0.000034    -0.830659   179.134126
	   64 D(1,9,2,4)      =      0.018608     0.000000     0.011691     0.030299
	   65 D(1,9,2,15)     =   -179.994534     0.000020     0.466855  -179.527679
	   66 D(1,9,10,5)     =     29.917626     0.000009     0.213664    30.131291
	   67 D(1,9,10,6)     =   -149.957477     0.000007     0.175034  -149.782443
	   68 D(2,4,11,3)     =      0.017261    -0.000014    -0.366002    -0.348741
	   69 D(2,4,11,13)    =   -179.966135     0.000030     0.714445  -179.251690
	   70 D(2,9,1,3)      =     -0.019945    -0.000004    -0.107016    -0.126961
	   71 D(2,9,1,14)     =   -179.978731     0.000011     0.223843  -179.754888
	   72 D(2,9,10,5)     =   -150.029870     0.000013     0.304107  -149.725763
	   73 D(2,9,10,6)     =     30.095026     0.000011     0.265477    30.360503
	   74 D(3,1,9,10)     =   -179.967461    -0.000001    -0.018328  -179.985789
	   75 D(3,11,4,17)    =    179.978848    -0.000019    -0.482487   179.496361
	   76 D(3,11,13,23)   =     60.036330    -0.000018    -0.142999    59.893330
	   77 D(4,2,9,10)     =    179.966149    -0.000003    -0.076970   179.889179
	   78 D(4,11,3,16)    =    180.000000     0.000012     0.303490   180.303490
	   79 D(4,11,13,23)   =   -119.980276    -0.000062    -1.234956  -121.215233
	   80 D(5,7,12,8)     =     -0.051587     0.000001     0.016276    -0.035310
	   81 D(5,7,12,22)    =    179.982140     0.000001     0.013354   179.995494
	   82 D(5,10,6,8)     =      0.100696    -0.000001    -0.009937     0.090758
	   83 D(5,10,6,19)    =   -179.953357     0.000014     0.330269  -179.623088
	   84 D(6,8,12,7)     =      0.084766    -0.000001    -0.011642     0.073124
	   85 D(6,8,12,22)    =   -179.948971    -0.000000    -0.008718  -179.957689
	   86 D(6,10,5,7)     =     -0.068795     0.000001     0.015265    -0.053530
	   87 D(6,10,5,18)    =   -179.993816     0.000016     0.361197  -179.632619
	   88 D(7,5,10,9)     =   -179.944076    -0.000001    -0.025359  -179.969434
	   89 D(7,12,8,21)    =   -179.969035    -0.000007    -0.149173  -180.118208
	   90 D(8,6,10,9)     =    179.975965     0.000001     0.030699   180.006663
	   91 D(8,12,7,20)    =    179.886353    -0.000006    -0.135612   179.750741
	   92 D(9,1,3,11)     =      0.019955    -0.000001    -0.033918    -0.013963
	   93 D(9,1,3,16)     =   -179.998735    -0.000002    -0.066114  -180.064848
	   94 D(9,2,4,11)     =     -0.017270     0.000009     0.224602     0.207332
	   95 D(9,2,4,17)     =   -179.979086     0.000014     0.342087  -179.636999
	   96 D(9,10,5,18)    =      0.130903     0.000014     0.320573     0.451476
	   97 D(9,10,6,19)    =     -0.078088     0.000016     0.370905     0.292817
	   98 D(10,5,7,12)    =      0.042772    -0.000001    -0.017264     0.025509
	   99 D(10,5,7,20)    =   -179.890006     0.000006     0.145978  -179.744028
	  100 D(10,6,8,12)    =     -0.107847     0.000001     0.007426    -0.100422
	  101 D(10,6,8,21)    =    179.950304     0.000007     0.155072   180.105376
	  102 D(10,9,1,14)    =      0.073752     0.000014     0.312532     0.386284
	  103 D(10,9,2,15)    =     -0.046992     0.000016     0.378194     0.331201
	  104 D(11,3,1,14)    =    179.979432    -0.000015    -0.358521   179.620911
	  105 D(11,4,2,15)    =    179.995641    -0.000010    -0.221511   179.774130
	  106 D(12,7,5,18)    =    179.969186    -0.000016    -0.355019   179.614167
	  107 D(12,8,6,19)    =    179.945236    -0.000014    -0.325430   179.619806
	  108 D(13,11,3,16)   =     -0.016400    -0.000032    -0.798662    -0.815062
	  109 D(13,11,4,17)   =     -0.004548     0.000025     0.597961     0.593413
	  110 D(14,1,3,16)    =     -0.039257    -0.000017    -0.390717    -0.429973
	  111 D(15,2,4,17)    =      0.033826    -0.000005    -0.104026    -0.070200
	  112 D(18,5,7,20)    =      0.036408    -0.000009    -0.191778    -0.155370
	  113 D(19,6,8,21)    =      0.003387    -0.000008    -0.177784    -0.174396
	  114 D(20,7,12,22)   =     -0.079920    -0.000006    -0.138534    -0.218455
	  115 D(21,8,12,22)   =     -0.002772    -0.000006    -0.146248    -0.149020
	 ---------------------------------------------------------------------------
	Successfully symmetrized geometry.
	 Forces used to impose fixed constraints are not included.
	  Forces zeroed: 76 

  ==> Convergence Check <==

  Measures of convergence in internal coordinates in au.
  Criteria marked as inactive (o), active & met (*), and active & unmet ( ).
  --------------------------------------------------------------------------------------------- ~
   Step     Total Energy     Delta E     MAX Force     RMS Force      MAX Disp      RMS Disp    ~
  --------------------------------------------------------------------------------------------- ~
    Convergence Criteria    1.00e-06 *    3.00e-04 *             o    1.20e-03 *             o  ~
  --------------------------------------------------------------------------------------------- ~
      1    -554.09277068   -5.54e+02      1.42e-02      3.96e-03 o    2.83e-02      9.32e-03 o  ~
  ---------------------------------------------------------------------------------------------

	Writing optimization data to binary file.
	Structure for next step:
	Cartesian Geometry (in Angstrom)
	    C    -1.2802290084   0.7231395560  -0.5664284208
	    C    -0.2907610340   0.1140910216   1.5434064190
	    C    -2.3518300471   1.2901652686   0.1026572341
	    C    -1.3617764820   0.6831048001   2.2122843889
	    C     1.3085300542   0.0289537950  -1.7896623444
	    C     1.5787856823  -1.5550225510  -0.0061978184
	    C     2.3764515832  -0.5497498708  -2.4356881818
	    C     2.6423100203  -2.1038186790  -0.6851750299
	    C    -0.2383882089   0.1275486917   0.1477671932
	    C     0.8885514919  -0.4685181071  -0.5523514453
	    C    -2.3962871966   1.2690795032   1.4939522889
	    N     3.0066345017  -1.5904910859  -1.8697796990
	    O    -3.4318385449   1.8361829257   2.1702019937
	    H    -1.2684633732   0.7448846389  -1.6472218823
	    H     0.5052225900  -0.3332093329   2.1222349281
	    H    -3.1551290640   1.7508214349  -0.4549082592
	    H    -1.3954653990   0.6756810953   3.2921935276
	    H     0.8134524062   0.8688762868  -2.2507805884
	    H     1.2905260402  -1.9794542447   0.9424079000
	    H     2.7558322347  -0.2156428070  -3.3884556753
	    H     3.2169156520  -2.9419040418  -0.3237803090
	    H     3.7915657778  -2.0059990878  -2.3580984172
	    H    -4.2626934672   1.4161838175   1.9189714866
			--------------------------
			 OPTKING Finished Execution 
			--------------------------

    Structure for next step:
    Molecular point group: c1
    Full point group: C1

    Geometry (in Angstrom), charge = 1, multiplicity = 1:

    C           -1.280369293330     0.724476527686    -0.566080101077
    C           -0.290901318899     0.115427993331     1.543754738768
    C           -2.351970332012     1.291502240331     0.103005553850
    C           -1.361916766865     0.684441771829     2.212632708608
    C            1.308389769330     0.030290766664    -1.789314024608
    C            1.578645397389    -1.553685579316    -0.005849498630
    C            2.376311298267    -0.548412899072    -2.435339861994
    C            2.642169735408    -2.102481707264    -0.684826710097
    C           -0.238528493815     0.128885663379     0.148115512944
    C            0.888411207001    -0.467181135370    -0.552003125516
    C           -2.396427481524     1.270416474934     1.494300608649
    N            3.006494216832    -1.589154114253    -1.869431379236
    O           -3.431978829750     1.837519897425     2.170550313425
    H           -1.268603658138     0.746221610573    -1.646873562535
    H            0.505082305148    -0.331872361163     2.122583247895
    H           -3.155269348877     1.752158406580    -0.454559939456
    H           -1.395605683886     0.677018067038     3.292541847321
    H            0.813312121311     0.870213258443    -2.250432268677
    H            1.290385755323    -1.978117272996     0.942756219733
    H            2.755691949835    -0.214305835338    -3.388107355542
    H            3.216775367094    -2.940567070122    -0.323431989244
    H            3.791425492860    -2.004662116079    -2.357750097486
    H           -4.262833752063     1.417520789162     1.919319806352

gradient() will perform analytic gradient computation.

*** tstart() called on gpu-2-12.local
*** at Sun Nov 12 11:16:37 2017

    SCF Algorithm Type (re)set to DF.

*** tstart() called on gpu-2-12.local
*** at Sun Nov 12 11:16:37 2017

   => Loading Basis Set <=

    Name: AUG-CC-PVTZ
    Role: ORBITAL
    Keyword: BASIS
    atoms 1-11  entry C          line   221 file /cbio/jclab/home/chayas/anaconda/envs/py35/share/psi4/basis/aug-cc-pvtz.gbs 
    atoms 12    entry N          line   267 file /cbio/jclab/home/chayas/anaconda/envs/py35/share/psi4/basis/aug-cc-pvtz.gbs 
    atoms 13    entry O          line   313 file /cbio/jclab/home/chayas/anaconda/envs/py35/share/psi4/basis/aug-cc-pvtz.gbs 
    atoms 14-23 entry H          line    34 file /cbio/jclab/home/chayas/anaconda/envs/py35/share/psi4/basis/aug-cc-pvtz.gbs 


         ---------------------------------------------------------
                                   SCF
            by Justin Turney, Rob Parrish, and Andy Simmonett
                              RHF Reference
                        8 Threads,   4768 MiB Core
         ---------------------------------------------------------

  ==> Geometry <==

    Molecular point group: c1
    Full point group: C1

    Geometry (in Angstrom), charge = 1, multiplicity = 1:

       Center              X                  Y                   Z               Mass       
    ------------   -----------------  -----------------  -----------------  -----------------
           C         -1.280369293330     0.724476527686    -0.566080101077    12.000000000000
           C         -0.290901318899     0.115427993331     1.543754738768    12.000000000000
           C         -2.351970332012     1.291502240331     0.103005553850    12.000000000000
           C         -1.361916766865     0.684441771829     2.212632708608    12.000000000000
           C          1.308389769330     0.030290766664    -1.789314024608    12.000000000000
           C          1.578645397389    -1.553685579316    -0.005849498630    12.000000000000
           C          2.376311298267    -0.548412899072    -2.435339861994    12.000000000000
           C          2.642169735408    -2.102481707264    -0.684826710097    12.000000000000
           C         -0.238528493815     0.128885663379     0.148115512944    12.000000000000
           C          0.888411207001    -0.467181135370    -0.552003125516    12.000000000000
           C         -2.396427481524     1.270416474934     1.494300608649    12.000000000000
           N          3.006494216832    -1.589154114253    -1.869431379236    14.003074004780
           O         -3.431978829750     1.837519897425     2.170550313425    15.994914619560
           H         -1.268603658138     0.746221610573    -1.646873562535     1.007825032070
           H          0.505082305148    -0.331872361163     2.122583247895     1.007825032070
           H         -3.155269348877     1.752158406580    -0.454559939456     1.007825032070
           H         -1.395605683886     0.677018067038     3.292541847321     1.007825032070
           H          0.813312121311     0.870213258443    -2.250432268677     1.007825032070
           H          1.290385755323    -1.978117272996     0.942756219733     1.007825032070
           H          2.755691949835    -0.214305835338    -3.388107355542     1.007825032070
           H          3.216775367094    -2.940567070122    -0.323431989244     1.007825032070
           H          3.791425492860    -2.004662116079    -2.357750097486     1.007825032070
           H         -4.262833752063     1.417520789162     1.919319806352     1.007825032070

  Running in c1 symmetry.

  Rotational constants: A =      0.09648  B =      0.01327  C =      0.01187 [cm^-1]
  Rotational constants: A =   2892.32031  B =    397.83469  C =    355.93902 [MHz]
  Nuclear repulsion =  712.987236399901462

  Charge       = 1
  Multiplicity = 1
  Electrons    = 90
  Nalpha       = 45
  Nbeta        = 45

  ==> Algorithm <==

  SCF Algorithm Type is DF.
  DIIS enabled.
  MOM disabled.
  Fractional occupation disabled.
  Guess Type is READ.
  Energy threshold   = 1.00e-10
  Density threshold  = 1.00e-10
  Integral threshold = 0.00e+00

  ==> Primary Basis <==

  Basis Set: AUG-CC-PVTZ
    Blend: AUG-CC-PVTZ
    Number of shells: 272
    Number of basis function: 828
    Number of Cartesian functions: 965
    Spherical Harmonics?: true
    Max angular momentum: 3

   => Loading Basis Set <=

    Name: (AUG-CC-PVTZ AUX)
    Role: JKFIT
    Keyword: DF_BASIS_SCF
    atoms 1-11  entry C          line   161 file /cbio/jclab/home/chayas/anaconda/envs/py35/share/psi4/basis/aug-cc-pvtz-jkfit.gbs 
    atoms 12    entry N          line   223 file /cbio/jclab/home/chayas/anaconda/envs/py35/share/psi4/basis/aug-cc-pvtz-jkfit.gbs 
    atoms 13    entry O          line   285 file /cbio/jclab/home/chayas/anaconda/envs/py35/share/psi4/basis/aug-cc-pvtz-jkfit.gbs 
    atoms 14-23 entry H          line    69 file /cbio/jclab/home/chayas/anaconda/envs/py35/share/psi4/basis/aug-cc-pvtz-jkfit.gbs 

  Reading orbitals from file 180, no projection.

  ==> Pre-Iterations <==

   -------------------------------------------------------
    Irrep   Nso     Nmo     Nalpha   Nbeta   Ndocc  Nsocc
   -------------------------------------------------------
     A        828     828       0       0       0       0
   -------------------------------------------------------
    Total     828     828      45      45      45       0
   -------------------------------------------------------

  ==> Integral Setup <==

  ==> DFJK: Density-Fitted J/K Matrices <==

    J tasked:                  Yes
    K tasked:                  Yes
    wK tasked:                  No
    OpenMP threads:              8
    Integrals threads:           8
    Memory (MB):              3576
    Algorithm:                Disk
    Integral Cache:           NONE
    Schwarz Cutoff:          1E-12
    Fitting Condition:       1E-12

   => Auxiliary Basis Set <=

  Basis Set: (AUG-CC-PVTZ AUX)
    Blend: AUG-CC-PVTZ-JKFIT
    Number of shells: 530
    Number of basis function: 1812
    Number of Cartesian functions: 2253
    Spherical Harmonics?: true
    Max angular momentum: 4

  Minimum eigenvalue in the overlap matrix is 5.7873652100E-07.
  Using Symmetric Orthogonalization.

  SCF Guess: Orbitals guess was supplied from a previous computation.

  ==> Iterations <==

                           Total Energy        Delta E     RMS |[F,P]|

   @DF-RHF iter   0:  -551.78400062178400   -5.51784e+02   3.43096e-04 
   @DF-RHF iter   1:  -551.67585572893290    1.08145e-01   1.16492e-04 
   @DF-RHF iter   2:  -551.67623459889364   -3.78870e-04   8.72002e-05 DIIS
   @DF-RHF iter   3:  -551.67658891316455   -3.54314e-04   8.42691e-06 DIIS
   @DF-RHF iter   4:  -551.67659602383526   -7.11067e-06   3.32714e-06 DIIS
   @DF-RHF iter   5:  -551.67659760240645   -1.57857e-06   7.96884e-07 DIIS
   @DF-RHF iter   6:  -551.67659785953083   -2.57124e-07   4.73316e-07 DIIS
   @DF-RHF iter   7:  -551.67659794600786   -8.64770e-08   3.22256e-07 DIIS
   @DF-RHF iter   8:  -551.67659797545184   -2.94440e-08   7.97446e-08 DIIS
   @DF-RHF iter   9:  -551.67659798061788   -5.16604e-09   3.50341e-08 DIIS
   @DF-RHF iter  10:  -551.67659798107775   -4.59863e-10   1.87769e-08 DIIS
   @DF-RHF iter  11:  -551.67659798113755   -5.97993e-11   4.43688e-09 DIIS
   @DF-RHF iter  12:  -551.67659798113482    2.72848e-12   1.70758e-09 DIIS
   @DF-RHF iter  13:  -551.67659798114119   -6.36646e-12   9.02196e-10 DIIS
   @DF-RHF iter  14:  -551.67659798115062   -9.43601e-12   3.26638e-10 DIIS
   @DF-RHF iter  15:  -551.67659798114551    5.11591e-12   1.76444e-10 DIIS
   @DF-RHF iter  16:  -551.67659798114130    4.20641e-12   5.80789e-11 DIIS

  ==> Post-Iterations <==

    Orbital Energies (a.u.)
    -----------------------

    Doubly Occupied:                                                      

       1A    -20.691183     2A    -15.832182     3A    -11.483071  
       4A    -11.483030     5A    -11.451149     6A    -11.425917  
       7A    -11.413320     8A    -11.413294     9A    -11.377444  
      10A    -11.376350    11A    -11.375371    12A    -11.354274  
      13A    -11.351565    14A     -1.511845    15A     -1.510995  
      16A     -1.319792    17A     -1.266284    18A     -1.240593  
      19A     -1.155677    20A     -1.153227    21A     -1.066813  
      22A     -1.057065    23A     -0.972108    24A     -0.964256  
      25A     -0.951986    26A     -0.869049    27A     -0.861450  
      28A     -0.854526    29A     -0.820341    30A     -0.802430  
      31A     -0.781325    32A     -0.772234    33A     -0.757455  
      34A     -0.746293    35A     -0.724448    36A     -0.708487  
      37A     -0.705724    38A     -0.663525    39A     -0.655044  
      40A     -0.635223    41A     -0.600845    42A     -0.574160  
      43A     -0.540819    44A     -0.470093    45A     -0.446449  

    Virtual:                                                              

      46A     -0.108884    47A     -0.084533    48A     -0.062975  
      49A     -0.061888    50A     -0.059341    51A     -0.049851  
      52A     -0.041894    53A     -0.041349    54A     -0.035199  
      55A     -0.029412    56A     -0.025980    57A     -0.022525  
      58A     -0.018267    59A     -0.010311    60A     -0.006095  
      61A     -0.005139    62A      0.004709    63A      0.006047  
      64A      0.008596    65A      0.013175    66A      0.016838  
      67A      0.019229    68A      0.023787    69A      0.025919  
      70A      0.028914    71A      0.032982    72A      0.037077  
      73A      0.037821    74A      0.041809    75A      0.045032  
      76A      0.051970    77A      0.053104    78A      0.056692  
      79A      0.061039    80A      0.063963    81A      0.069093  
      82A      0.071100    83A      0.073018    84A      0.078036  
      85A      0.082339    86A      0.086685    87A      0.088929  
      88A      0.094026    89A      0.096904    90A      0.108393  
      91A      0.110121    92A      0.114199    93A      0.117400  
      94A      0.123036    95A      0.125506    96A      0.129940  
      97A      0.132725    98A      0.136962    99A      0.139267  
     100A      0.144018   101A      0.153784   102A      0.158360  
     103A      0.160213   104A      0.163723   105A      0.167492  
     106A      0.168173   107A      0.170095   108A      0.173066  
     109A      0.181241   110A      0.181826   111A      0.188154  
     112A      0.188800   113A      0.195211   114A      0.196231  
     115A      0.201255   116A      0.206424   117A      0.210771  
     118A      0.212970   119A      0.214368   120A      0.225910  
     121A      0.226331   122A      0.228518   123A      0.231873  
     124A      0.232187   125A      0.232885   126A      0.239667  
     127A      0.245394   128A      0.246760   129A      0.250640  
     130A      0.254617   131A      0.259369   132A      0.265420  
     133A      0.275667   134A      0.278825   135A      0.280395  
     136A      0.284338   137A      0.288757   138A      0.291635  
     139A      0.296812   140A      0.303235   141A      0.304845  
     142A      0.310742   143A      0.314189   144A      0.320710  
     145A      0.323801   146A      0.325603   147A      0.327772  
     148A      0.333686   149A      0.336983   150A      0.338295  
     151A      0.341675   152A      0.345363   153A      0.352996  
     154A      0.353874   155A      0.357158   156A      0.359681  
     157A      0.362633   158A      0.368000   159A      0.370687  
     160A      0.376234   161A      0.376943   162A      0.379996  
     163A      0.384511   164A      0.385553   165A      0.393298  
     166A      0.395248   167A      0.398476   168A      0.402929  
     169A      0.405301   170A      0.407133   171A      0.410430  
     172A      0.415697   173A      0.420094   174A      0.422484  
     175A      0.423216   176A      0.423772   177A      0.431678  
     178A      0.435676   179A      0.440311   180A      0.442677  
     181A      0.453019   182A      0.454814   183A      0.459741  
     184A      0.466066   185A      0.470294   186A      0.475221  
     187A      0.481939   188A      0.490136   189A      0.493846  
     190A      0.498104   191A      0.508835   192A      0.509498  
     193A      0.515127   194A      0.525772   195A      0.528972  
     196A      0.534894   197A      0.539946   198A      0.545585  
     199A      0.548709   200A      0.559486   201A      0.568600  
     202A      0.571455   203A      0.575051   204A      0.579287  
     205A      0.584731   206A      0.587179   207A      0.588071  
     208A      0.597738   209A      0.603847   210A      0.607181  
     211A      0.618086   212A      0.621246   213A      0.625805  
     214A      0.626744   215A      0.633331   216A      0.637986  
     217A      0.641449   218A      0.648802   219A      0.658787  
     220A      0.660095   221A      0.667466   222A      0.670724  
     223A      0.678081   224A      0.686057   225A      0.698694  
     226A      0.700374   227A      0.710742   228A      0.713467  
     229A      0.719530   230A      0.720403   231A      0.729571  
     232A      0.733351   233A      0.735739   234A      0.738787  
     235A      0.743208   236A      0.751952   237A      0.757435  
     238A      0.759627   239A      0.764917   240A      0.769126  
     241A      0.771169   242A      0.780043   243A      0.784658  
     244A      0.791211   245A      0.793925   246A      0.799420  
     247A      0.800995   248A      0.806717   249A      0.808866  
     250A      0.817280   251A      0.822814   252A      0.823590  
[...]
	 B(5,7,20)        =         2.157814	     123.633655
	 B(5,10,6)        =         2.040256	     116.898044
	 B(5,10,9)        =         2.122271	     121.597193
	 B(6,8,12)        =         2.084511	     119.433692
	 B(6,8,21)        =         2.157871	     123.636889
	 B(6,10,9)        =         2.120656	     121.504635
	 B(7,5,10)        =         2.109515	     120.866319
	 B(7,5,18)        =         2.065147	     118.324222
	 B(7,12,8)        =         2.137896	     122.492415
	 B(7,12,22)       =         2.072639	     118.753468
	 B(8,6,10)        =         2.109596	     120.870966
	 B(8,6,19)        =         2.065645	     118.352759
	 B(8,12,22)       =         2.072650	     118.754115
	 B(9,1,14)        =         2.103187	     120.503733
	 B(9,2,15)        =         2.102154	     120.444547
	 B(10,5,18)       =         2.108059	     120.782861
	 B(10,6,19)       =         2.107524	     120.752219
	 B(11,3,16)       =         2.085335	     119.480873
	 B(11,4,17)       =         2.073005	     118.774441
	 B(11,13,23)      =         1.932758	     110.738904
	 B(12,7,20)       =         2.040710	     116.924062
	 B(12,8,21)       =         2.040747	     116.926181
	 D(1,3,11,4)      =         0.032530	       1.863844
	 D(1,3,11,13)     =         3.057754	     175.196392
	 D(1,9,2,4)       =         0.002209	       0.126542
	 D(1,9,2,15)      =        -3.091541	    -177.132243
	 D(1,9,10,5)      =         0.483996	      27.730927
	 D(1,9,10,6)      =        -2.659933	    -152.402954
	 D(2,4,11,3)      =        -0.035336	      -2.024576
	 D(2,4,11,13)     =        -3.064885	    -175.604969
	 D(2,9,1,3)       =        -0.005012	      -0.287180
	 D(2,9,1,14)      =        -3.117350	    -178.611000
	 D(2,9,10,5)      =        -2.648131	    -151.726739
	 D(2,9,10,6)      =         0.491125	      28.139380
	 D(3,1,9,10)      =        -3.137292	    -179.753566
	 D(3,11,4,17)     =         3.098384	     177.524330
	 D(3,11,13,23)    =         1.041732	      59.686843
	 D(4,2,9,10)      =         3.134496	     179.593389
	 D(4,11,3,16)     =        -3.113374	    -178.383162
	 D(4,11,13,23)    =        -2.214141	    -126.860950
	 D(5,7,12,8)      =         0.000832	       0.047654
	 D(5,7,12,22)     =        -3.140502	    -179.937486
	 D(5,10,6,8)      =         0.001235	       0.070732
	 D(5,10,6,19)     =        -3.108707	    -178.115807
	 D(6,8,12,7)      =         0.000262	       0.015016
	 D(6,8,12,22)     =         3.141593	     180.000000
	 D(6,10,5,7)      =        -0.000140	      -0.008014
	 D(6,10,5,18)     =        -3.108442	    -178.100604
	 D(7,5,10,9)      =         3.139219	     179.863992
	 D(7,12,8,21)     =         3.130845	     179.384190
	 D(8,6,10,9)      =        -3.138126	    -179.801401
	 D(8,12,7,20)     =         3.130533	     179.366347
	 D(9,1,3,11)      =        -0.012349	      -0.707569
	 D(9,1,3,16)      =         3.133599	     179.542023
	 D(9,2,4,11)      =         0.017968	       1.029486
	 D(9,2,4,17)      =        -3.115560	    -178.508413
	 D(9,10,5,18)     =         0.030917	       1.771402
	 D(9,10,6,19)     =         0.035117	       2.012060
	 D(10,5,7,12)     =        -0.000874	      -0.050094
	 D(10,5,7,20)     =        -3.129733	    -179.320496
	 D(10,6,8,12)     =        -0.001319	      -0.075600
	 D(10,6,8,21)     =        -3.131122	    -179.400048
	 D(10,9,1,14)     =         0.033556	       1.922614
	 D(10,9,2,15)     =         0.040747	       2.334604
	 D(11,3,1,14)     =         3.100450	     177.642719
	 D(11,4,2,15)     =         3.112434	     178.329345
	 D(12,7,5,18)     =         3.108228	     178.088371
	 D(12,8,6,19)     =         3.109365	     178.153513
	 D(13,11,3,16)    =        -0.088150	      -5.050614
	 D(13,11,4,17)    =         0.068835	       3.943937
	 D(14,1,3,16)     =        -0.036786	      -2.107689
	 D(15,2,4,17)     =        -0.021093	      -1.208555
	 D(18,5,7,20)     =        -0.020630	      -1.182031
	 D(19,6,8,21)     =        -0.020437	      -1.170935
	 D(20,7,12,22)    =        -0.010800	      -0.618793
	 D(21,8,12,22)    =        -0.011007	      -0.630670

	Current energy   :      -554.0962050720

	Energy change for the previous step:
		Projected    :         0.0000040011
		Actual       :         0.0000000512

	Performing BFGS update.
	Previous computed or guess Hessian on step 1.
	Steps to be used in Hessian update: 5 4
	Adding user-defined constraint: Fragment 1; Coordinate 76:
		Value =     1.041732; Fixed value    =     1.047200
		Force =     0.003418; Force constant =     0.625000
	Removing off-diagonal coupling between coordinate 76 and others.
	Taking RFO optimization step.
	Going to follow RFO solution 1.
	Rejecting RFO root 1 because normalization gives large value.
	Using RFO vector 2.
	Norm of target step-size    0.01413
	Projected energy change by RFO approximation:        -0.0000085388

	Back-transformation to cartesian coordinates...
	Could not converge backtransformation.
	Using first guess instead.

	--- Internal Coordinate Step in ANG or DEG, aJ/ANG or AJ/DEG ---
	 ---------------------------------------------------------------------------
	   Coordinate                Previous        Force       Change         New 
	   ----------                --------       ------       ------       ------
	    1 R(1,3)          =      1.380802     0.000101     0.000078     1.380880
	    2 R(1,9)          =      1.398128    -0.000053     0.000070     1.398198
	    3 R(1,14)         =      1.079577     0.000029    -0.000016     1.079561
	    4 R(2,4)          =      1.380482    -0.000120    -0.000033     1.380448
	    5 R(2,9)          =      1.398208     0.000114     0.000158     1.398366
	    6 R(2,15)         =      1.079569     0.000077    -0.000014     1.079555
	    7 R(3,11)         =      1.392313     0.000075    -0.000009     1.392304
	    8 R(3,16)         =      1.079257     0.000096     0.000066     1.079323
	    9 R(4,11)         =      1.390582     0.000204     0.000189     1.390771
	   10 R(4,17)         =      1.078460     0.000140     0.000080     1.078541
	   11 R(5,7)          =      1.371955     0.000123     0.000091     1.372045
	   12 R(5,10)         =      1.400962    -0.000025     0.000034     1.400995
	   13 R(5,18)         =      1.077418     0.000007    -0.000019     1.077400
	   14 R(6,8)          =      1.371959     0.000105     0.000088     1.372047
	   15 R(6,10)         =      1.400997    -0.000124     0.000064     1.401061
	   16 R(6,19)         =      1.077447     0.000097    -0.000020     1.077427
	   17 R(7,12)         =      1.343181    -0.000091    -0.000058     1.343123
	   18 R(7,20)         =      1.077236     0.000064     0.000048     1.077285
	   19 R(8,12)         =      1.343139    -0.000049    -0.000063     1.343076
	   20 R(8,21)         =      1.077249     0.000052     0.000045     1.077294
	   21 R(9,10)         =      1.446785    -0.000288     0.000120     1.446905
	   22 R(11,13)        =      1.358889    -0.000983    -0.000385     1.358505
	   23 R(12,22)        =      1.011832     0.000079     0.000040     1.011872
	   24 R(13,23)        =      0.962945     0.000272     0.000031     0.962976
	   25 B(1,3,11)       =    120.004282     0.000002     0.011144   120.015425
	   26 B(1,3,16)       =    120.514379    -0.000003    -0.034088   120.480291
	   27 B(1,9,2)        =    118.885963    -0.000003    -0.043074   118.842890
	   28 B(1,9,10)       =    120.597790     0.000003     0.023904   120.621694
	   29 B(2,4,11)       =    120.055016     0.000002     0.021147   120.076164
	   30 B(2,4,17)       =    121.168968    -0.000002    -0.014355   121.154613
	   31 B(2,9,10)       =    120.514073     0.000000     0.019279   120.533352
	   32 B(3,1,9)        =    120.569679     0.000002     0.028669   120.598348
	   33 B(3,1,14)       =    118.905811    -0.000005    -0.060557   118.845254
	   34 B(3,11,4)       =    119.884464    -0.000004    -0.034821   119.849643
	   35 B(3,11,13)      =    121.774203     0.000002     0.011726   121.785929
	   36 B(4,2,9)        =    120.571374     0.000002     0.017344   120.588718
	   37 B(4,2,15)       =    118.928461    -0.000004    -0.047329   118.881132
	   38 B(4,11,13)      =    118.017301     0.000002     0.025252   118.042552
	   39 B(5,7,12)       =    119.438505     0.000001     0.020632   119.459137
	   40 B(5,7,20)       =    123.633655    -0.000001    -0.014623   123.619032
	   41 B(5,10,6)       =    116.898044    -0.000001    -0.014967   116.883077
	   42 B(5,10,9)       =    121.597193     0.000003     0.009830   121.607023
	   43 B(6,8,12)       =    119.433692     0.000001     0.017324   119.451016
	   44 B(6,8,21)       =    123.636889    -0.000001    -0.013715   123.623173
	   45 B(6,10,9)       =    121.504635    -0.000002     0.005140   121.509776
	   46 B(7,5,10)       =    120.866319     0.000000     0.000101   120.866420
	   47 B(7,5,18)       =    118.324222    -0.000004    -0.045247   118.278975
	   48 B(7,12,8)       =    122.492415    -0.000002    -0.025917   122.466498
	   49 B(7,12,22)      =    118.753468     0.000001     0.013513   118.766981
	   50 B(8,6,10)       =    120.870966     0.000000     0.002804   120.873770
	   51 B(8,6,19)       =    118.352759    -0.000003    -0.044708   118.308051
	   52 B(8,12,22)      =    118.754115     0.000001     0.012404   118.766519
	   53 B(9,1,14)       =    120.503733     0.000003     0.032131   120.535864
	   54 B(9,2,15)       =    120.444547     0.000002     0.031302   120.475849
	   55 B(10,5,18)      =    120.782861     0.000003     0.045797   120.828658
	   56 B(10,6,19)      =    120.752219     0.000003     0.042539   120.794758
	   57 B(11,3,16)      =    119.480873     0.000001     0.023040   119.503914
	   58 B(11,4,17)      =    118.774441     0.000000    -0.006748   118.767693
	   59 B(11,13,23)     =    110.738904     0.000001     0.042757   110.781661
	   60 B(12,7,20)      =    116.924062     0.000000    -0.005832   116.918230
	   61 B(12,8,21)      =    116.926181     0.000000    -0.003370   116.922811
	   62 D(1,3,11,4)     =      1.863844     0.000001    -0.005123     1.858721
	   63 D(1,3,11,13)    =    175.196392    -0.000001     0.018615   175.215007
	   64 D(1,9,2,4)      =      0.126542    -0.000000     0.007269     0.133811
	   65 D(1,9,2,15)     =   -177.132243     0.000000    -0.024099  -177.156342
	   66 D(1,9,10,5)     =     27.730927    -0.000000    -0.383378    27.347550
	   67 D(1,9,10,6)     =   -152.402954    -0.000000    -0.381798  -152.784752
	   68 D(2,4,11,3)     =     -2.024576    -0.000001     0.019945    -2.004632
	   69 D(2,4,11,13)    =   -175.604969     0.000001    -0.002211  -175.607180
	   70 D(2,9,1,3)      =     -0.287180     0.000000     0.007788    -0.279392
	   71 D(2,9,1,14)     =   -178.611000    -0.000000    -0.001035  -178.612035
	   72 D(2,9,10,5)     =   -151.726739    -0.000000    -0.397032  -152.123771
	   73 D(2,9,10,6)     =     28.139380    -0.000000    -0.395453    27.743927
	   74 D(3,1,9,10)     =   -179.753566     0.000000    -0.005966  -179.759533
	   75 D(3,11,4,17)    =    177.524330    -0.000001     0.026310   177.550640
	   76 D(3,11,13,23)   =     59.686843     0.000004    -0.021246    59.665597
	   77 D(4,2,9,10)     =    179.593389    -0.000000     0.021036   179.614425
	   78 D(4,11,3,16)    =   -178.383162     0.000000     0.021576  -178.361586
	   79 D(4,11,13,23)   =   -126.860950     0.000003    -0.001763  -126.862713
	   80 D(5,7,12,8)     =      0.047654    -0.000000     0.011020     0.058674
	   81 D(5,7,12,22)    =   -179.937486    -0.000000     0.013093  -179.924393
	   82 D(5,10,6,8)     =      0.070732    -0.000000     0.013541     0.084273
	   83 D(5,10,6,19)    =   -178.115807     0.000000    -0.009748  -178.125555
	   84 D(6,8,12,7)     =      0.015016     0.000000    -0.000135     0.014882
	   85 D(6,8,12,22)    =    180.000000    -0.000000    -0.002051   179.997949
	   86 D(6,10,5,7)     =     -0.008014     0.000000    -0.002669    -0.010683
	   87 D(6,10,5,18)    =   -178.100604     0.000000    -0.025306  -178.125910
	   88 D(7,5,10,9)     =    179.863992    -0.000000    -0.001135   179.862857
	   89 D(7,12,8,21)    =    179.384190    -0.000000     0.023429   179.407619
	   90 D(8,6,10,9)     =   -179.801401     0.000000     0.012003  -179.789398
	   91 D(8,12,7,20)    =    179.366347    -0.000000     0.027073   179.393420
	   92 D(9,1,3,11)     =     -0.707569    -0.000000    -0.009308    -0.716877
	   93 D(9,1,3,16)     =    179.542023    -0.000000    -0.036415   179.505607
	   94 D(9,2,4,11)     =      1.029486     0.000000    -0.020720     1.008766
	   95 D(9,2,4,17)     =   -178.508413     0.000000    -0.027281  -178.535694
	   96 D(9,10,5,18)    =      1.771402     0.000000    -0.023772     1.747629
	   97 D(9,10,6,19)    =      2.012060     0.000000    -0.011287     2.000773
	   98 D(10,5,7,12)    =     -0.050094     0.000000    -0.009359    -0.059453
	   99 D(10,5,7,20)    =   -179.320496     0.000000    -0.026635  -179.347130
	  100 D(10,6,8,12)    =     -0.075600     0.000000    -0.012477    -0.088077
	  101 D(10,6,8,21)    =   -179.400048     0.000000    -0.037796  -179.437844
	  102 D(10,9,1,14)    =      1.922614    -0.000000    -0.014789     1.907824
	  103 D(10,9,2,15)    =      2.334604     0.000000    -0.010332     2.324272
	  104 D(11,3,1,14)    =    177.642719    -0.000000     0.000874   177.643593
	  105 D(11,4,2,15)    =    178.329345     0.000000     0.012253   178.341598
	  106 D(12,7,5,18)    =    178.088371    -0.000000     0.014392   178.102763
	  107 D(12,8,6,19)    =    178.153513    -0.000000     0.011774   178.165287
	  108 D(13,11,3,16)   =     -5.050614    -0.000001     0.045315    -5.005300
	  109 D(13,11,4,17)   =      3.943937     0.000001     0.004154     3.948091
	  110 D(14,1,3,16)    =     -2.107689    -0.000000    -0.026233    -2.133922
	  111 D(15,2,4,17)    =     -1.208555     0.000000     0.005693    -1.202862
	  112 D(18,5,7,20)    =     -1.182031    -0.000000    -0.002884    -1.184914
	  113 D(19,6,8,21)    =     -1.170935     0.000000    -0.013545    -1.184480
	  114 D(20,7,12,22)   =     -0.618793    -0.000000     0.029146    -0.589647
	  115 D(21,8,12,22)   =     -0.630670    -0.000000     0.021356    -0.609314
	 ---------------------------------------------------------------------------
	Successfully symmetrized geometry.
	 Forces used to impose fixed constraints are not included.
	  Forces zeroed: 76 

  ==> Convergence Check <==

  Measures of convergence in internal coordinates in au.
  Criteria marked as inactive (o), active & met (*), and active & unmet ( ).
  ---------------------------------------------------------------------------------------------
   Step     Total Energy     Delta E     MAX Force     RMS Force      MAX Disp      RMS Disp   
  ---------------------------------------------------------------------------------------------
    Convergence Criteria    1.00e-06 *    3.00e-04 *             o    1.20e-03 *             o
  ---------------------------------------------------------------------------------------------
      6    -554.09620507    5.12e-08 *    1.88e-04 *    2.97e-05 o    6.93e-03      1.32e-03 o  ~
  ---------------------------------------------------------------------------------------------


  **** Optimization is complete! (in 6 steps) ****

  ==> Optimization Summary <==

  Measures of convergence in internal coordinates in au.
  --------------------------------------------------------------------------------------------------------------- ~
   Step         Total Energy             Delta E       MAX Force       RMS Force        MAX Disp        RMS Disp  ~
  --------------------------------------------------------------------------------------------------------------- ~
      1    -554.092770683720   -554.092770683720      0.01419025      0.00395848      0.02834933      0.00931681  ~
      2    -554.095311323356     -0.002540639636      0.00410838      0.00118903      0.04527028      0.00931291  ~
      3    -554.095968984118     -0.000657660762      0.00144322      0.00041146      0.04565923      0.00931536  ~
      4    -554.096179907567     -0.000210923449      0.00078294      0.00015653      0.01801937      0.00432388  ~
      5    -554.096205123215     -0.000025215648      0.00028654      0.00006732      0.00627592      0.00118325  ~
      6    -554.096205072014      0.000000051200      0.00025775      0.00003820      0.00692952      0.00131792  ~
  --------------------------------------------------------------------------------------------------------------- ~

	Writing optimization data to binary file.
	Final energy is   -554.0962050720143
	Final (previous) structure:
	Cartesian Geometry (in Angstrom)
	    C    -1.2757472993   0.7404173124  -0.5715094580
	    C    -0.3125427381   0.1023852867   1.5412077317
	    C    -2.3424947666   1.3172821956   0.0887100751
	    C    -1.3771320930   0.6818360940   2.2019765944
	    C     1.2964985343  -0.0159207250  -1.7994632775
	    C     1.5891378835  -1.5473337026   0.0089968209
	    C     2.3629737634  -0.5942491318  -2.4401092824
	    C     2.6524098490  -2.1038743021  -0.6558238436
	    C    -0.2465906423   0.1218256771   0.1446914837
	    C     0.8740576249  -0.4781409937  -0.5462314469
	    C    -2.4071983516   1.2732129870   1.4788203132
	    N     3.0093274185  -1.6162046308  -1.8553279865
	    O    -3.3882474945   1.9106455483   2.1700529510
	    H    -1.2625829425   0.7510965231  -1.6509532145
	    H     0.4904352190  -0.3274198053   2.1208308454
	    H    -3.1327642127   1.8010039781  -0.4647180731
	    H    -1.4260042398   0.6933590516   3.2792674152
	    H     0.8107764882   0.8226522534  -2.2703133556
	    H     1.2989680598  -1.9715420445   0.9559611323
	    H     2.7317363932  -0.2682157251  -3.3983132188
	    H     3.2268704143  -2.9319232846  -0.2753033650
	    H     3.7950293962  -2.0343808594  -2.3365810342
	    H    -4.2558455246   1.5820393042   1.9120698518
	Saving final (previous) structure.
			--------------------------
			 OPTKING Finished Execution 
			--------------------------

    Final optimized geometry and variables:
    Molecular point group: c1
    Full point group: C1

    Geometry (in Angstrom), charge = 1, multiplicity = 1:

    C           -1.275747299349     0.740417312355    -0.571509458002
    C           -0.312542738059     0.102385286709     1.541207731701
    C           -2.342494766588     1.317282195633     0.088710075134
    C           -1.377132092978     0.681836093972     2.201976594428
    C            1.296498534275    -0.015920724986    -1.799463277545
    C            1.589137883476    -1.547333702633     0.008996820915
    C            2.362973763386    -0.594249131774    -2.440109282436
    C            2.652409848958    -2.103874302090    -0.655823843573
    C           -0.246590642318     0.121825677117     0.144691483728
    C            0.874057624924    -0.478140993727    -0.546231446935
    C           -2.407198351615     1.273212986975     1.478820313184
    N            3.009327418544    -1.616204630836    -1.855327986546
    O           -3.388247494471     1.910645548263     2.170052950994
    H           -1.262582942545     0.751096523089    -1.650953214451
    H            0.490435219028    -0.327419805318     2.120830845394
    H           -3.132764212665     1.801003978123    -0.464718073082
    H           -1.426004239822     0.693359051588     3.279267415161
    H            0.810776488191     0.822652253420    -2.270313355582
    H            1.298968059847    -1.971542044540     0.955961132347
    H            2.731736393214    -0.268215725102    -3.398313218808
    H            3.226870414279    -2.931923284571    -0.275303364976
    H            3.795029396170    -2.034380859370    -2.336581034189
    H           -4.255845524623     1.582039304239     1.912069851778

	Cleaning optimization helper files.

*** Psi4 exiting successfully. Buy a developer a beer!
