
    -----------------------------------------------------------------------
          Psi4: An Open-Source Ab Initio Electronic Structure Package
                               Psi4 1.1 release

                         Git: Rev {HEAD} add49b9 


    R. M. Parrish, L. A. Burns, D. G. A. Smith, A. C. Simmonett,
    A. E. DePrince III, E. G. Hohenstein, U. Bozkaya, A. Yu. Sokolov,
    R. Di Remigio, R. M. Richard, J. F. Gonthier, A. M. James,
    H. R. McAlexander, A. Kumar, M. Saitow, X. Wang, B. P. Pritchard,
    P. Verma, H. F. Schaefer III, K. Patkowski, R. A. King, E. F. Valeev,
    F. A. Evangelista, J. M. Turney, T. D. Crawford, and C. D. Sherrill,
    J. Chem. Theory Comput. in press (2017).
    (doi: 10.1021/acs.jctc.7b00174)

    -----------------------------------------------------------------------


    Psi4 started on: Saturday, 11 November 2017 09:40AM

    Process ID:   2391
    PSIDATADIR: /cbio/jclab/home/chayas/anaconda/envs/py35/share/psi4
    Memory:     500.0 MiB
    Threads:    8
    
  ==> Input File <==

--------------------------------------------------------------------------

molecule phepyr {
  symmetry C1
  0 1 
  C      1.885   -1.036   -0.112
  C      0.807   -0.463   0.561
  C      2.921   -1.631   0.608
  C      0.764   -0.484   1.955
  C      2.878   -1.652   2.002
  C      2.786   -1.692   4.843
  C      0.681   -0.529   4.795
  C      2.696   -1.686   6.226
  C      0.686   -0.574   6.180
  C      1.800   -1.079   2.676
  C      1.755   -1.100   4.122
  N      1.669   -1.140   6.915
  H      1.917   -1.021   -1.198
  H      -0.001   -0.002   0.000
  H      3.760   -2.079   0.084
  H      -0.084   -0.033   2.466
  H      3.693   -2.120   2.550
  H      3.640   -2.148   4.353
  H      -0.141   -0.058   4.266
  H      3.475   -2.133   6.835
  H      -0.129   -0.143   6.752
  units Angstrom
}

dih_string = "4 10 11 6 180.001"
set optking fixed_dihedral = $dih_string

optimize('MP2/aug-cc-PVTZ')
--------------------------------------------------------------------------
gradient() will perform analytic gradient computation.

*** tstart() called on gpu-1-15.local
*** at Sat Nov 11 09:40:32 2017

    SCF Algorithm Type (re)set to DF.

*** tstart() called on gpu-1-15.local
*** at Sat Nov 11 09:40:32 2017

   => Loading Basis Set <=

    Name: AUG-CC-PVTZ
    Role: ORBITAL
    Keyword: BASIS
    atoms 1-11  entry C          line   221 file /cbio/jclab/home/chayas/anaconda/envs/py35/share/psi4/basis/aug-cc-pvtz.gbs 
    atoms 12    entry N          line   267 file /cbio/jclab/home/chayas/anaconda/envs/py35/share/psi4/basis/aug-cc-pvtz.gbs 
    atoms 13-21 entry H          line    34 file /cbio/jclab/home/chayas/anaconda/envs/py35/share/psi4/basis/aug-cc-pvtz.gbs 


         ---------------------------------------------------------
                                   SCF
            by Justin Turney, Rob Parrish, and Andy Simmonett
                              RHF Reference
                        8 Threads,    500 MiB Core
         ---------------------------------------------------------

  ==> Geometry <==

    Molecular point group: c1
    Full point group: C1

    Geometry (in Angstrom), charge = 0, multiplicity = 1:

       Center              X                  Y                   Z               Mass       
    ------------   -----------------  -----------------  -----------------  -----------------
           C          0.108195133039     0.053088061289    -3.525965346062    12.000000000000
           C         -0.969804866961     0.626088061289    -2.852965346062    12.000000000000
           C          1.144195133039    -0.541911938711    -2.805965346062    12.000000000000
           C         -1.012804866961     0.605088061289    -1.458965346062    12.000000000000
           C          1.101195133039    -0.562911938711    -1.411965346062    12.000000000000
           C          1.009195133039    -0.602911938711     1.429034653938    12.000000000000
           C         -1.095804866961     0.560088061289     1.381034653938    12.000000000000
           C          0.919195133039    -0.596911938711     2.812034653938    12.000000000000
           C         -1.090804866961     0.515088061289     2.766034653938    12.000000000000
           C          0.023195133039     0.010088061289    -0.737965346062    12.000000000000
           C         -0.021804866961    -0.010911938711     0.708034653938    12.000000000000
           N         -0.107804866961    -0.050911938711     3.501034653938    14.003074004780
           H          0.140195133039     0.068088061289    -4.611965346062     1.007825032070
           H         -1.777804866961     1.087088061289    -3.413965346062     1.007825032070
           H          1.983195133039    -0.989911938711    -3.329965346062     1.007825032070
           H         -1.860804866961     1.056088061289    -0.947965346062     1.007825032070
           H          1.916195133039    -1.030911938711    -0.863965346062     1.007825032070
           H          1.863195133039    -1.058911938711     0.939034653938     1.007825032070
           H         -1.917804866961     1.031088061289     0.852034653938     1.007825032070
           H          1.698195133039    -1.043911938711     3.421034653938     1.007825032070
           H         -1.905804866961     0.946088061289     3.338034653938     1.007825032070

  Running in c1 symmetry.

  Rotational constants: A =      0.09741  B =      0.01914  C =      0.01600 [cm^-1]
  Rotational constants: A =   2920.27644  B =    573.82934  C =    479.59065 [MHz]
  Nuclear repulsion =  607.551350656497675

  Charge       = 0
  Multiplicity = 1
  Electrons    = 82
  Nalpha       = 41
  Nbeta        = 41

  ==> Algorithm <==

  SCF Algorithm Type is DF.
  DIIS enabled.
  MOM disabled.
  Fractional occupation disabled.
  Guess Type is SAD.
  Energy threshold   = 1.00e-10
  Density threshold  = 1.00e-10
  Integral threshold = 0.00e+00

  ==> Primary Basis <==

  Basis Set: AUG-CC-PVTZ
    Blend: AUG-CC-PVTZ
    Number of shells: 249
    Number of basis function: 759
    Number of Cartesian functions: 885
    Spherical Harmonics?: true
    Max angular momentum: 3

   => Loading Basis Set <=

    Name: (AUG-CC-PVTZ AUX)
    Role: JKFIT
    Keyword: DF_BASIS_SCF
    atoms 1-11  entry C          line   161 file /cbio/jclab/home/chayas/anaconda/envs/py35/share/psi4/basis/aug-cc-pvtz-jkfit.gbs 
    atoms 12    entry N          line   223 file /cbio/jclab/home/chayas/anaconda/envs/py35/share/psi4/basis/aug-cc-pvtz-jkfit.gbs 
    atoms 13-21 entry H          line    69 file /cbio/jclab/home/chayas/anaconda/envs/py35/share/psi4/basis/aug-cc-pvtz-jkfit.gbs 

  ==> Pre-Iterations <==

   -------------------------------------------------------
    Irrep   Nso     Nmo     Nalpha   Nbeta   Ndocc  Nsocc
   -------------------------------------------------------
     A        759     759       0       0       0       0
   -------------------------------------------------------
    Total     759     759      41      41      41       0
   -------------------------------------------------------

  ==> Integral Setup <==

  ==> DFJK: Density-Fitted J/K Matrices <==

    J tasked:                  Yes
    K tasked:                  Yes
    wK tasked:                  No
    OpenMP threads:              8
    Integrals threads:           8
    Memory (MB):               375
    Algorithm:                Disk
    Integral Cache:           NONE
    Schwarz Cutoff:          1E-12
    Fitting Condition:       1E-12

   => Auxiliary Basis Set <=

  Basis Set: (AUG-CC-PVTZ AUX)
    Blend: AUG-CC-PVTZ-JKFIT
    Number of shells: 486
    Number of basis function: 1662
    Number of Cartesian functions: 2067
    Spherical Harmonics?: true
    Max angular momentum: 4

  Minimum eigenvalue in the overlap matrix is 2.4728906781E-07.
  Using Symmetric Orthogonalization.

  SCF Guess: Superposition of Atomic Densities via on-the-fly atomic UHF.

  ==> Iterations <==

                           Total Energy        Delta E     RMS |[F,P]|

   @DF-RHF iter   0:  -481.92817349474700   -4.81928e+02   1.82189e-02 
   @DF-RHF iter   1:  -476.04489523983739    5.88328e+00   1.66592e-03 
   @DF-RHF iter   2:  -476.33573625925322   -2.90841e-01   5.71296e-04 DIIS
   @DF-RHF iter   3:  -476.37849025216173   -4.27540e-02   2.82029e-04 DIIS
   @DF-RHF iter   4:  -476.38774330505510   -9.25305e-03   9.02892e-05 DIIS
   @DF-RHF iter   5:  -476.38896403703586   -1.22073e-03   3.67402e-05 DIIS
   @DF-RHF iter   6:  -476.38915508959241   -1.91053e-04   1.22897e-05 DIIS
   @DF-RHF iter   7:  -476.38917648561971   -2.13960e-05   3.84835e-06 DIIS
   @DF-RHF iter   8:  -476.38917784576859   -1.36015e-06   1.26093e-06 DIIS
   @DF-RHF iter   9:  -476.38917805966400   -2.13895e-07   4.29802e-07 DIIS
   @DF-RHF iter  10:  -476.38917809936453   -3.97005e-08   1.92648e-07 DIIS
   @DF-RHF iter  11:  -476.38917811007491   -1.07104e-08   8.11632e-08 DIIS
   @DF-RHF iter  12:  -476.38917811197172   -1.89681e-09   3.35518e-08 DIIS
   @DF-RHF iter  13:  -476.38917811226122   -2.89504e-10   1.23224e-08 DIIS
   @DF-RHF iter  14:  -476.38917811229311   -3.18892e-11   4.36157e-09 DIIS
   @DF-RHF iter  15:  -476.38917811230613   -1.30171e-11   1.59466e-09 DIIS
   @DF-RHF iter  16:  -476.38917811230397    2.16005e-12   8.46824e-10 DIIS
   @DF-RHF iter  17:  -476.38917811225991    4.40536e-11   4.27416e-10 DIIS
   @DF-RHF iter  18:  -476.38917811227731   -1.73941e-11   1.87860e-10 DIIS
   @DF-RHF iter  19:  -476.38917811227373    3.58114e-12   8.67214e-11 DIIS

  ==> Post-Iterations <==

    Orbital Energies (a.u.)
    -----------------------

    Doubly Occupied:                                                      

       1A    -15.562913     2A    -11.275097     3A    -11.275040  
       4A    -11.264512     5A    -11.252063     6A    -11.247849  
       7A    -11.247642     8A    -11.246700     9A    -11.246398  
      10A    -11.245620    11A    -11.237482    12A    -11.237409  
      13A     -1.249643    14A     -1.175928    15A     -1.107917  
      16A     -1.040108    17A     -1.023739    18A     -1.015863  
      19A     -0.882655    20A     -0.873411    21A     -0.822537  
      22A     -0.806042    23A     -0.739041    24A     -0.683680  
      25A     -0.673198    26A     -0.666945    27A     -0.625863  
      28A     -0.619194    29A     -0.616072    30A     -0.583013  
      31A     -0.576881    32A     -0.553372    33A     -0.532446  
      34A     -0.512716    35A     -0.507913    36A     -0.492008  
      37A     -0.418448    38A     -0.411830    39A     -0.354504  
      40A     -0.344653    41A     -0.315345  

    Virtual:                                                              

      42A      0.024598    43A      0.028246    44A      0.031954  
      45A      0.039656    46A      0.043206    47A      0.053121  
      48A      0.058626    49A      0.059145    50A      0.074051  
      51A      0.083072    52A      0.083295    53A      0.085243  
      54A      0.085544    55A      0.087236    56A      0.094286  
      57A      0.099857    58A      0.103409    59A      0.108658  
      60A      0.115616    61A      0.116524    62A      0.116866  
      63A      0.117881    64A      0.129472    65A      0.130669  
      66A      0.133366    67A      0.136137    68A      0.138304  
      69A      0.145912    70A      0.146429    71A      0.147093  
      72A      0.150456    73A      0.152591    74A      0.155183  
      75A      0.167485    76A      0.168063    77A      0.173143  
      78A      0.173532    79A      0.185529    80A      0.185930  
      81A      0.190513    82A      0.193475    83A      0.197970  
      84A      0.201555    85A      0.213928    86A      0.214738  
      87A      0.224759    88A      0.234208    89A      0.234544  
      90A      0.242594    91A      0.248211    92A      0.250646  
      93A      0.258483    94A      0.264737    95A      0.267997  
      96A      0.272077    97A      0.273114    98A      0.280799  
      99A      0.281393   100A      0.285380   101A      0.288483  
     102A      0.289663   103A      0.292662   104A      0.294469  
     105A      0.302840   106A      0.313349   107A      0.313930  
     108A      0.316790   109A      0.317829   110A      0.318627  
     111A      0.325328   112A      0.330839   113A      0.341724  
     114A      0.345602   115A      0.346572   116A      0.354984  
     117A      0.369163   118A      0.369347   119A      0.370629  
     120A      0.371156   121A      0.377356   122A      0.381506  
     123A      0.408325   124A      0.412264   125A      0.414139  
     126A      0.414280   127A      0.416289   128A      0.417303  
     129A      0.422140   130A      0.427060   131A      0.435291  
     132A      0.435735   133A      0.436192   134A      0.437625  
     135A      0.438441   136A      0.445855   137A      0.447326  
     138A      0.452481   139A      0.454657   140A      0.454789  
     141A      0.463398   142A      0.467215   143A      0.471932  
     144A      0.474615   145A      0.474925   146A      0.482295  
     147A      0.494555   148A      0.499423   149A      0.502318  
     150A      0.503907   151A      0.504615   152A      0.504941  
     153A      0.507039   154A      0.515784   155A      0.516716  
     156A      0.525964   157A      0.529385   158A      0.533777  
     159A      0.536201   160A      0.536894   161A      0.543772  
     162A      0.547975   163A      0.549192   164A      0.551637  
     165A      0.554290   166A      0.557483   167A      0.571144  
     168A      0.577817   169A      0.585587   170A      0.585779  
     171A      0.587953   172A      0.594500   173A      0.597679  
     174A      0.603345   175A      0.607033   176A      0.623668  
     177A      0.628184   178A      0.635923   179A      0.639280  
     180A      0.648899   181A      0.650585   182A      0.671312  
     183A      0.671513   184A      0.675726   185A      0.681707  
     186A      0.683485   187A      0.695658   188A      0.696631  
     189A      0.697785   190A      0.700863   191A      0.706117  
     192A      0.723153   193A      0.723444   194A      0.725901  
     195A      0.734790   196A      0.741903   197A      0.742365  
     198A      0.745700   199A      0.754071   200A      0.763116  
     201A      0.773074   202A      0.775953   203A      0.785667  
     204A      0.789939   205A      0.803797   206A      0.806581  
     207A      0.812693   208A      0.819025   209A      0.821410  
     210A      0.823596   211A      0.835459   212A      0.848554  
     213A      0.851757   214A      0.853288   215A      0.860097  
     216A      0.865760   217A      0.870452   218A      0.875135  
     219A      0.875310   220A      0.886853   221A      0.887298  
     222A      0.891864   223A      0.900456   224A      0.901262  
     225A      0.909654   226A      0.912138   227A      0.919926  
     228A      0.921210   229A      0.923835   230A      0.926659  
     231A      0.931295   232A      0.939956   233A      0.943185  
     234A      0.949343   235A      0.950454   236A      0.952153  
     237A      0.955522   238A      0.959744   239A      0.961173  
     240A      0.968453   241A      0.977680   242A      0.979759  
     243A      0.983977   244A      0.987379   245A      0.994846  
     246A      1.005893   247A      1.007857   248A      1.012293  
     249A      1.014755   250A      1.018390   251A      1.023931  
     252A      1.032958   253A      1.037103   254A      1.037384  
     255A      1.045574   256A      1.046058   257A      1.047948  
     258A      1.049374   259A      1.058698   260A      1.065685  
     261A      1.068228   262A      1.079701   263A      1.081905  
     264A      1.082413   265A      1.087013   266A      1.091434  
     267A      1.095591   268A      1.097408   269A      1.112044  
     270A      1.113039   271A      1.119320   272A      1.124643  
     273A      1.134027   274A      1.144217   275A      1.144931  
     276A      1.152227   277A      1.154077   278A      1.162805  
     279A      1.172032   280A      1.174779   281A      1.183110  
     282A      1.184477   283A      1.187575   284A      1.192330  
     285A      1.195426   286A      1.205819   287A      1.208002  
     288A      1.209698   289A      1.222791   290A      1.227472  
     291A      1.238615   292A      1.239683   293A      1.242254  
     294A      1.246777   295A      1.253948   296A      1.257129  
     297A      1.264726   298A      1.268596   299A      1.275096  
     300A      1.285084   301A      1.289360   302A      1.291168  
     303A      1.292285   304A      1.303049   305A      1.305716  
     306A      1.318022   307A      1.325517   308A      1.330709  
     309A      1.332174   310A      1.349424   311A      1.354408  
     312A      1.358642   313A      1.369949   314A      1.373117  
     315A      1.378689   316A      1.394557   317A      1.398909  
     318A      1.412975   319A      1.414287   320A      1.414475  
     321A      1.440148   322A      1.442683   323A      1.453882  
     324A      1.458727   325A      1.461793   326A      1.486558  
     327A      1.488579   328A      1.488853   329A      1.511347  
     330A      1.513901   331A      1.515707   332A      1.521791  
     333A      1.534313   334A      1.537672   335A      1.538602  
     336A      1.558352   337A      1.561429   338A      1.571408  
     339A      1.579449   340A      1.600577   341A      1.602246  
     342A      1.621911   343A      1.622736   344A      1.634403  
     345A      1.661268   346A      1.663897   347A      1.666055  
     348A      1.670887   349A      1.673453   350A      1.673671  
     351A      1.675654   352A      1.691210   353A      1.691786  
     354A      1.707110   355A      1.708123   356A      1.709613  
     357A      1.726682   358A      1.731593   359A      1.732602  
     360A      1.747545   361A      1.758479   362A      1.759046  
     363A      1.773610   364A      1.777307   365A      1.779673  
     366A      1.796901   367A      1.798986   368A      1.806344  
     369A      1.828660   370A      1.837207   371A      1.846537  
     372A      1.848148   373A      1.859924   374A      1.870066  
     375A      1.874456   376A      1.891708   377A      1.904193  
     378A      1.907506   379A      1.912335   380A      1.929139  
     381A      1.932021   382A      1.935915   383A      1.952314  
     384A      1.959539   385A      1.971593   386A      1.978811  
     387A      1.980267   388A      1.988597   389A      1.992233  
     390A      2.008571   391A      2.019419   392A      2.020061  
     393A      2.020318   394A      2.028035   395A      2.045660  
     396A      2.049615   397A      2.063100   398A      2.068654  
     399A      2.076089   400A      2.077776   401A      2.088339  
     402A      2.091294   403A      2.091822   404A      2.100593  
     405A      2.102301   406A      2.114863   407A      2.123222  
     408A      2.134514   409A      2.145930   410A      2.160263  
     411A      2.168712   412A      2.172507   413A      2.174545  
     414A      2.176742   415A      2.191557   416A      2.200390  
     417A      2.203111   418A      2.207833   419A      2.225389  
     420A      2.239662   421A      2.241548   422A      2.245153  
     423A      2.249508   424A      2.262096   425A      2.270530  
     426A      2.272630   427A      2.276240   428A      2.295335  
     429A      2.311908   430A      2.318410   431A      2.320263  
     432A      2.336012   433A      2.354858   434A      2.355992  
     435A      2.375021   436A      2.378876   437A      2.391861  
     438A      2.392161   439A      2.405363   440A      2.407327  
     441A      2.432927   442A      2.455649   443A      2.460451  
     444A      2.471805   445A      2.476697   446A      2.476758  
     447A      2.480383   448A      2.491052   449A      2.491308  
     450A      2.531450   451A      2.549553   452A      2.551864  
     453A      2.567724   454A      2.578219   455A      2.607381  
     456A      2.607620   457A      2.617217   458A      2.666018  
     459A      2.671880   460A      2.679253   461A      2.702495  
     462A      2.729405   463A      2.735260   464A      2.776955  
     465A      2.781863   466A      2.791815   467A      2.813189  
     468A      2.823533   469A      2.840777   470A      2.847308  
     471A      2.868799   472A      2.869446   473A      2.900340  
     474A      2.956822   475A      3.030158   476A      3.044023  
     477A      3.065022   478A      3.065130   479A      3.090123  
     480A      3.115505   481A      3.139099   482A      3.145835  
     483A      3.165030   484A      3.194189   485A      3.199453  
     486A      3.208447   487A      3.213505   488A      3.216634  
     489A      3.239886   490A      3.253514   491A      3.281145  
     492A      3.328382   493A      3.328685   494A      3.334032  
     495A      3.339506   496A      3.345508   497A      3.363995  
     498A      3.371713   499A      3.372441   500A      3.377602  
     501A      3.387910   502A      3.413763   503A      3.417086  
     504A      3.426255   505A      3.443088   506A      3.446699  
     507A      3.448758   508A      3.466856   509A      3.483244  
     510A      3.496410   511A      3.496954   512A      3.508079  
     513A      3.511501   514A      3.515329   515A      3.518967  
     516A      3.523804   517A      3.536975   518A      3.540675  
     519A      3.556568   520A      3.562332   521A      3.575950  
     522A      3.587851   523A      3.596695   524A      3.598781  
     525A      3.627898   526A      3.638050   527A      3.642465  
     528A      3.652033   529A      3.655246   530A      3.674072  
     531A      3.674236   532A      3.686419   533A      3.689681  
     534A      3.716955   535A      3.722833   536A      3.723648  
     537A      3.738472   538A      3.756786   539A      3.761375  
     540A      3.774382   541A      3.791321   542A      3.796623  
     543A      3.796882   544A      3.825239   545A      3.827929  
     546A      3.828970   547A      3.831409   548A      3.845132  
     549A      3.866559   550A      3.876134   551A      3.887090  
     552A      3.893899   553A      3.912949   554A      3.918244  
     555A      3.923880   556A      3.932136   557A      3.933736  
     558A      3.940959   559A      3.948011   560A      3.950174  
     561A      3.954747   562A      3.961459   563A      3.965887  
     564A      3.973504   565A      3.978862   566A      3.993028  
     567A      4.007734   568A      4.012304   569A      4.020221  
     570A      4.030762   571A      4.033423   572A      4.041642  
     573A      4.057642   574A      4.062499   575A      4.092775  
     576A      4.097665   577A      4.119110   578A      4.135349  
     579A      4.138735   580A      4.140534   581A      4.143149  
     582A      4.166680   583A      4.175607   584A      4.191173  
     585A      4.194849   586A      4.201901   587A      4.214139  
     588A      4.215585   589A      4.222965   590A      4.230606  
     591A      4.234412   592A      4.255787   593A      4.263877  
     594A      4.274890   595A      4.281713   596A      4.284036  
     597A      4.290941   598A      4.293581   599A      4.297907  
     600A      4.300081   601A      4.318898   602A      4.327347  
     603A      4.332568   604A      4.349884   605A      4.351942  
     606A      4.354746   607A      4.355153   608A      4.392328  
     609A      4.398020   610A      4.425482   611A      4.432297  
     612A      4.448606   613A      4.448949   614A      4.458991  
     615A      4.460125   616A      4.467393   617A      4.473049  
     618A      4.485310   619A      4.496990   620A      4.504820  
     621A      4.506800   622A      4.550390   623A      4.552792  
     624A      4.561901   625A      4.573562   626A      4.578620  
     627A      4.593762   628A      4.620606   629A      4.624874  
     630A      4.632296   631A      4.652385   632A      4.653968  
     633A      4.658394   634A      4.694366   635A      4.708982  
     636A      4.721290   637A      4.724972   638A      4.729519  
     639A      4.734535   640A      4.739331   641A      4.749447  
     642A      4.776653   643A      4.783089   644A      4.798226  
     645A      4.818931   646A      4.855822   647A      4.875267  
     648A      4.879527   649A      4.882413   650A      4.909465  
     651A      4.925580   652A      4.954635   653A      4.978779  
     654A      4.983242   655A      4.985821   656A      4.986209  
     657A      4.998781   658A      5.012990   659A      5.014972  
     660A      5.030060   661A      5.039770   662A      5.071677  
     663A      5.092765   664A      5.094512   665A      5.112074  
     666A      5.114873   667A      5.116246   668A      5.121319  
     669A      5.124245   670A      5.137101   671A      5.141090  
     672A      5.165041   673A      5.169955   674A      5.172757  
     675A      5.191767   676A      5.194682   677A      5.196702  
     678A      5.230775   679A      5.241995   680A      5.242939  
     681A      5.296064   682A      5.312930   683A      5.332758  
     684A      5.335598   685A      5.345235   686A      5.371572  
     687A      5.381561   688A      5.417875   689A      5.418260  
     690A      5.447902   691A      5.454544   692A      5.488681  
     693A      5.490849   694A      5.528410   695A      5.532212  
     696A      5.550541   697A      5.556840   698A      5.582802  
     699A      5.644313   700A      5.659785   701A      5.681782  
     702A      5.717914   703A      5.732288   704A      5.746984  
     705A      5.781483   706A      5.785890   707A      5.792899  
     708A      5.810191   709A      5.845280   710A      5.866662  
     711A      5.891779   712A      5.902847   713A      5.903346  
     714A      5.920409   715A      5.960474   716A      5.995311  
     717A      6.020427   718A      6.082197   719A      6.166987  
     720A      6.185773   721A      6.198210   722A      6.238580  
     723A      6.311603   724A      6.354831   725A      6.357733  
     726A      6.377688   727A      6.424045   728A      6.461279  
     729A      6.502117   730A      6.518971   731A      6.566571  
     732A      6.650328   733A      6.694779   734A      6.698893  
     735A      6.749264   736A      6.755838   737A      6.778790  
     738A      6.798870   739A      6.914079   740A      6.926930  
     741A      6.998477   742A      7.029061   743A      7.046081  
     744A      7.102412   745A      7.227776   746A      7.323818  
     747A      7.509655   748A     15.593717   749A     16.296615  
     750A     17.038571   751A     17.661363   752A     18.639456  
     753A     18.886395   754A     19.640272   755A     20.044751  
     756A     20.647468   757A     20.800302   758A     21.166950  
     759A     21.442921  

    Final Occupation by Irrep:
              A 
    DOCC [    41 ]

  Energy converged.

  @DF-RHF Final Energy:  -476.38917811227373

   => Energetics <=

    Nuclear Repulsion Energy =            607.5513506564976751
    One-Electron Energy =               -1848.7536811510985899
    Two-Electron Energy =                 764.8131523823273028
    DFT Exchange-Correlation Energy =       0.0000000000000000
    Empirical Dispersion Energy =           0.0000000000000000
    PCM Polarization Energy =               0.0000000000000000
    EFP Energy =                            0.0000000000000000
    Total Energy =                       -476.3891781122737257



Properties will be evaluated at   0.000000,   0.000000,   0.000000 Bohr

Properties computed using the SCF density matrix

  Nuclear Dipole Moment: (a.u.)
     X:     0.1304      Y:     0.0609      Z:    -4.3391

  Electronic Dipole Moment: (a.u.)
     X:    -0.0950      Y:    -0.0453      Z:     3.1706

  Dipole Moment: (a.u.)
     X:     0.0354      Y:     0.0156      Z:    -1.1685     Total:     1.1692

  Dipole Moment: (Debye)
     X:     0.0899      Y:     0.0397      Z:    -2.9701     Total:     2.9717


*** tstop() called on gpu-1-15.local at Sat Nov 11 09:45:24 2017
Module time:
	user time   =    1031.01 seconds =      17.18 minutes
	system time =      35.43 seconds =       0.59 minutes
	total time  =        292 seconds =       4.87 minutes
Total time:
	user time   =    1031.02 seconds =      17.18 minutes
	system time =      35.43 seconds =       0.59 minutes
	total time  =        292 seconds =       4.87 minutes

  //>>>>>>>>>>>>>>>>>>>>>>>>>>>>>>>>>>>//
  //               DFMP2               //
  //<<<<<<<<<<<<<<<<<<<<<<<<<<<<<<<<<<<//

   => Loading Basis Set <=

    Name: (AUG-CC-PVTZ AUX)
    Role: RIFIT
    Keyword: DF_BASIS_MP2
    atoms 1-11  entry C          line   147 file /cbio/jclab/home/chayas/anaconda/envs/py35/share/psi4/basis/aug-cc-pvtz-ri.gbs 
    atoms 12    entry N          line   205 file /cbio/jclab/home/chayas/anaconda/envs/py35/share/psi4/basis/aug-cc-pvtz-ri.gbs 
    atoms 13-21 entry H          line    29 file /cbio/jclab/home/chayas/anaconda/envs/py35/share/psi4/basis/aug-cc-pvtz-ri.gbs 

	 --------------------------------------------------------
	                          DF-MP2                         
	      2nd-Order Density-Fitted Moller-Plesset Theory     
	              RMP2 Wavefunction,   8 Threads             
	                                                         
	        Rob Parrish, Justin Turney, Andy Simmonett,      
	           Ed Hohenstein, and C. David Sherrill          
	 --------------------------------------------------------

   => Auxiliary Basis Set <=

  Basis Set: (AUG-CC-PVTZ AUX)
    Blend: AUG-CC-PVTZ-RI
    Number of shells: 462
    Number of basis function: 1686
    Number of Cartesian functions: 2127
    Spherical Harmonics?: true
    Max angular momentum: 4

	 --------------------------------------------------------
	                 NBF =   759, NAUX =  1686
	 --------------------------------------------------------
	   CLASS    FOCC     OCC    AOCC    AVIR     VIR    FVIR
	   PAIRS       0      41      41     718     718       0
	 --------------------------------------------------------


         ------------------------------------------------------------
                                     CPHF                           
                                  Rob Parrish                       
         ------------------------------------------------------------

  ==> Geometry <==

    Molecular point group: c1
    Full point group: C1

    Geometry (in Angstrom), charge = 0, multiplicity = 1:

       Center              X                  Y                   Z               Mass       
    ------------   -----------------  -----------------  -----------------  -----------------
           C          0.108195133039     0.053088061289    -3.525965346062    12.000000000000
           C         -0.969804866961     0.626088061289    -2.852965346062    12.000000000000
           C          1.144195133039    -0.541911938711    -2.805965346062    12.000000000000
           C         -1.012804866961     0.605088061289    -1.458965346062    12.000000000000
           C          1.101195133039    -0.562911938711    -1.411965346062    12.000000000000
           C          1.009195133039    -0.602911938711     1.429034653938    12.000000000000
           C         -1.095804866961     0.560088061289     1.381034653938    12.000000000000
           C          0.919195133039    -0.596911938711     2.812034653938    12.000000000000
           C         -1.090804866961     0.515088061289     2.766034653938    12.000000000000
           C          0.023195133039     0.010088061289    -0.737965346062    12.000000000000
           C         -0.021804866961    -0.010911938711     0.708034653938    12.000000000000
           N         -0.107804866961    -0.050911938711     3.501034653938    14.003074004780
           H          0.140195133039     0.068088061289    -4.611965346062     1.007825032070
           H         -1.777804866961     1.087088061289    -3.413965346062     1.007825032070
           H          1.983195133039    -0.989911938711    -3.329965346062     1.007825032070
           H         -1.860804866961     1.056088061289    -0.947965346062     1.007825032070
           H          1.916195133039    -1.030911938711    -0.863965346062     1.007825032070
           H          1.863195133039    -1.058911938711     0.939034653938     1.007825032070
           H         -1.917804866961     1.031088061289     0.852034653938     1.007825032070
           H          1.698195133039    -1.043911938711     3.421034653938     1.007825032070
           H         -1.905804866961     0.946088061289     3.338034653938     1.007825032070

  Nuclear repulsion =  607.551350656497675
  Reference energy  = -476.389178112273726

  ==> Basis Set <==

  Basis Set: AUG-CC-PVTZ
    Blend: AUG-CC-PVTZ
    Number of shells: 249
    Number of basis function: 759
    Number of Cartesian functions: 885
    Spherical Harmonics?: true
    Max angular momentum: 3

  ==> CGRSolver (by Rob Parrish) <==

   Number of roots    =         1
   Preconditioning    =    JACOBI
   Convergence cutoff =     1E-06
   Maximum iterations =       100

  ==> CPHFRHamiltonian (by Rob Parrish) <== 

  ==> DFJK: Density-Fitted J/K Matrices <==

    J tasked:                  Yes
    K tasked:                  Yes
    wK tasked:                  No
    OpenMP threads:              8
    Integrals threads:           8
    Memory (MB):               375
    Algorithm:                Disk
    Integral Cache:           NONE
    Schwarz Cutoff:          1E-12
    Fitting Condition:       1E-12

   => Auxiliary Basis Set <=

  Basis Set: (AUG-CC-PVTZ AUX)
    Blend: AUG-CC-PVTZ-JKFIT
    Number of shells: 486
    Number of basis function: 1662
    Number of Cartesian functions: 2067
    Spherical Harmonics?: true
    Max angular momentum: 4

  ==> CPHF Iterations <==

  => Iterations <=

             Iter  Converged  Remaining    Residual
  CGR           1          0          1   8.368E-02
  CGR           2          0          1   3.299E-02
  CGR           3          0          1   2.338E-02
  CGR           4          0          1   9.678E-03
  CGR           5          0          1   2.949E-03
  CGR           6          0          1   1.227E-03
  CGR           7          0          1   5.745E-04
  CGR           8          0          1   2.483E-04
  CGR           9          0          1   1.110E-04
  CGR          10          0          1   4.013E-05
  CGR          11          0          1   8.891E-06
  CGR          12          0          1   3.385E-06
  CGR          13          1          0   8.649E-07

    CGRSolver converged.

  ==> DFCorrGrad: Density-Fitted Correlated Gradients <==

    OpenMP threads:              8
    Integrals threads:           8
    Memory (MB):               375
    Schwarz Cutoff:          0E+00
    Fitting Condition:       1E-12

   => Auxiliary Basis Set <=

  Basis Set: (AUG-CC-PVTZ AUX)
    Blend: AUG-CC-PVTZ-JKFIT
    Number of shells: 486
    Number of basis function: 1662
    Number of Cartesian functions: 2067
    Spherical Harmonics?: true
    Max angular momentum: 4

	-----------------------------------------------------------
	 ==================> DF-MP2 Energies <==================== 
	-----------------------------------------------------------
	 Reference Energy          =    -476.3891781122737257 [Eh]
	 Singles Energy            =      -0.0000000000000007 [Eh]
	 Same-Spin Energy          =      -0.5360484017629081 [Eh]
	 Opposite-Spin Energy      =      -1.6457452674695847 [Eh]
	 Correlation Energy        =      -2.1817936692324937 [Eh]
	 Total Energy              =    -478.5709717815062163 [Eh]
	-----------------------------------------------------------
	 ================> DF-SCS-MP2 Energies <================== 
	-----------------------------------------------------------
	 SCS Same-Spin Scale       =       0.3333333333333333 [-]
	 SCS Opposite-Spin Scale   =       1.2000000000000000 [-]
	 SCS Same-Spin Energy      =      -0.1786828005876360 [Eh]
	 SCS Opposite-Spin Energy  =      -1.9748943209635015 [Eh]
	 SCS Correlation Energy    =      -2.1535771215511383 [Eh]
	 SCS Total Energy          =    -478.5427552338248915 [Eh]
	-----------------------------------------------------------


  -Total Gradient:
     Atom            X                  Y                   Z
    ------   -----------------  -----------------  -----------------
       1       -0.000443392408     0.000410547197     0.000829249788
       2       -0.000257408163     0.000362876114    -0.003114907685
       3        0.001321124355    -0.000607120708    -0.002921078101
       4        0.000105307339    -0.000399776212     0.013317222477
       5       -0.001458313613     0.000474554983     0.013409094761
       6        0.004150387629    -0.001891711370    -0.012106789837
       7       -0.003362242186     0.001952950869    -0.012049229562
       8        0.006935305980    -0.003813345815    -0.009170012204
       9       -0.006266669773     0.004077019850    -0.009462343200
      10        0.000395653653    -0.000654907654     0.006626149805
      11       -0.000366656668     0.000272529593     0.003982232537
      12       -0.000631700937    -0.000168888368     0.015711438380
      13        0.000079257166     0.000028187798    -0.004726571500
      14       -0.003607752463     0.001920784624    -0.002378078202
      15        0.003465167056    -0.001933912948    -0.002080150368
      16       -0.006677999267     0.003489202365     0.005929413442
      17        0.006239659578    -0.003661771368     0.006146031506
      18        0.005425539243    -0.002825455466    -0.005677808569
      19       -0.005023201926     0.003017661214    -0.006048059748
      20        0.001609320767    -0.000809236970     0.001977445505
      21       -0.001631385358     0.000759812261     0.001806750775


*** tstop() called on gpu-1-15.local at Sat Nov 11 10:06:47 2017
Module time:
	user time   =    4763.32 seconds =      79.39 minutes
	system time =      86.08 seconds =       1.43 minutes
	total time  =       1575 seconds =      26.25 minutes
Total time:
	user time   =    4763.33 seconds =      79.39 minutes
	system time =      86.08 seconds =       1.43 minutes
	total time  =       1575 seconds =      26.25 minutes

			-----------------------------------------
			 OPTKING 2.0: for geometry optimizations 
			  - R.A. King,  Bethel University        
			-----------------------------------------

	Internal coordinates to be generated automatically.
	Detected frag 1 with atoms:  1 2 3 4 5 6 7 8 9 10 11 12 13 14 15 16 17 18 19 20
	 21
	---Fragment 1 Bond Connectivity---
	 1 : 2 3 13
	 2 : 1 4 14
	 3 : 1 5 15
	 4 : 2 10 16
	 5 : 3 10 17
	 6 : 8 11 18
	 7 : 9 11 19
	 8 : 6 12 20
	 9 : 7 12 21
	 10 : 4 5 11
	 11 : 6 7 10
	 12 : 8 9
	 13 : 1
	 14 : 2
	 15 : 3
	 16 : 4
	 17 : 5
	 18 : 6
	 19 : 7
	 20 : 8
	 21 : 9

	Assuming in current code that numbering for constraints corresponds to unified fragment.
	Fixed dihedral atom list: 
	     4    10    11     6
	---Fragment 1 Geometry and Gradient---
	 C           0.2044591704        0.1003218968       -6.6631088581
	 C          -1.8326656009        1.1831349709       -5.3913231707
	 C           2.1622154440       -1.0240651523       -5.3025060424
	 C          -1.9139238246        1.1434507221       -2.7570449414
	 C           2.0809572203       -1.0637494011       -2.6682278132
	 C           1.9071024161       -1.1393384464        2.7004841303
	 C          -2.0707710936        1.0584130461        2.6097772760
	 C           1.7370270641       -1.1280000896        5.3139753721
	 C          -2.0613224630        0.9733753702        5.2270479700
	 C           0.0438324491        0.0190636730       -1.3945523996
	 C          -0.0412052269       -0.0206205757        1.3379915885
	 N          -0.2037216743       -0.0962096211        6.6159966777
	 H           0.2649304066        0.1286677888       -8.7153514384
	 H          -3.3595643163        2.0542987182       -6.4514595312
	 H           3.7476956695       -1.8706624598       -6.2927225361
	 H          -3.5164115853        1.9957172080       -1.7913948875
	 H           3.6210840186       -1.9481412313       -1.6326578924
	 H           3.5209285336       -2.0010535630        1.7745183252
	 H          -3.6241259749        1.9484740547        1.6101121517
	 H           3.2091237216       -1.9727076710        6.4648185871
	 H          -3.6014492613        1.7878473334        6.3079713180
	            -0.0004433924        0.0004105472        0.0008292498
	            -0.0002574082        0.0003628761       -0.0031149077
	             0.0013211244       -0.0006071207       -0.0029210781
	             0.0001053073       -0.0003997762        0.0133172225
	            -0.0014583136        0.0004745550        0.0134090948
	             0.0041503876       -0.0018917114       -0.0121067898
	            -0.0033622422        0.0019529509       -0.0120492296
	             0.0069353060       -0.0038133458       -0.0091700122
	            -0.0062666698        0.0040770199       -0.0094623432
	             0.0003956537       -0.0006549077        0.0066261498
	            -0.0003666567        0.0002725296        0.0039822325
	            -0.0006317009       -0.0001688884        0.0157114384
	             0.0000792572        0.0000281878       -0.0047265715
	            -0.0036077525        0.0019207846       -0.0023780782
	             0.0034651671       -0.0019339129       -0.0020801504
	            -0.0066779993        0.0034892024        0.0059294134
	             0.0062396596       -0.0036617714        0.0061460315
	             0.0054255392       -0.0028254555       -0.0056778086
	            -0.0050232019        0.0030176612       -0.0060480597
	             0.0016093208       -0.0008092370        0.0019774455
	            -0.0016313854        0.0007598123        0.0018067508

	Previous optimization step data not found.  Starting new optimization.

	---Fragment 1 Intrafragment Coordinates---
	 - Coordinate -           - BOHR/RAD -       - ANG/DEG -
	 R(1,2)           =         2.634350	       1.394038
	 R(1,3)           =         2.635962	       1.394891
	 R(1,13)          =         2.053329	       1.086575
	 R(2,4)           =         2.635830	       1.394821
	 R(2,14)          =         2.052860	       1.086327
	 R(3,5)           =         2.635830	       1.394821
	 R(3,15)          =         2.052073	       1.085910
	 R(4,10)          =         2.636938	       1.395407
	 R(4,16)          =         2.055920	       1.087946
	 R(5,10)          =         2.635263	       1.394521
	 R(5,17)          =         2.055856	       1.087912
	 R(6,8)           =         2.619044	       1.385938
	 R(6,11)          =         2.627512	       1.390419
	 R(6,18)          =         2.050463	       1.085059
	 R(7,9)           =         2.618669	       1.385740
	 R(7,11)          =         2.626955	       1.390124
	 R(7,19)          =         2.050476	       1.085065
	 R(8,12)          =         2.554674	       1.351875
	 R(8,20)          =         2.050619	       1.085141
	 R(9,12)          =         2.554187	       1.351618
	 R(9,21)          =         2.050305	       1.084975
	 R(10,11)         =         2.734155	       1.446852
	 B(1,2,4)         =         2.094553	     120.009056
	 B(1,2,14)        =         2.094726	     120.018942
	 B(1,3,5)         =         2.093692	     119.959722
	 B(1,3,15)        =         2.095250	     120.048965
	 B(2,1,3)         =         2.094940	     120.031219
	 B(2,1,13)        =         2.093950	     119.974480
	 B(2,4,10)        =         2.094306	     119.994870
	 B(2,4,16)        =         2.079681	     119.156970
	 B(3,1,13)        =         2.094293	     119.994160
	 B(3,5,10)        =         2.095181	     120.045019
	 B(3,5,17)        =         2.079222	     119.130634
	 B(4,2,14)        =         2.093904	     119.971849
	 B(4,10,5)        =         2.093699	     119.960108
	 B(4,10,11)       =         2.093804	     119.966144
	 B(5,3,15)        =         2.094242	     119.991253
	 B(5,10,11)       =         2.095682	     120.073736
	 B(6,8,12)        =         2.164775	     124.032488
	 B(6,8,20)        =         2.107873	     120.772240
	 B(6,11,7)        =         2.090615	     119.783397
	 B(6,11,10)       =         2.095967	     120.090058
	 B(7,9,12)        =         2.164851	     124.036800
	 B(7,9,21)        =         2.107504	     120.751091
	 B(7,11,10)       =         2.096604	     120.126542
	 B(8,6,11)        =         2.057205	     117.869176
	 B(8,6,18)        =         2.098511	     120.235822
	 B(8,12,9)        =         2.031390	     116.390080
	 B(9,7,11)        =         2.057533	     117.887985
	 B(9,7,19)        =         2.099133	     120.271462
	 B(10,4,16)       =         2.109198	     120.848149
	 B(10,5,17)       =         2.108782	     120.824331
	 B(11,6,18)       =         2.127469	     121.895003
	 B(11,7,19)       =         2.126517	     121.840451
	 B(12,8,20)       =         2.010534	     115.195098
	 B(12,9,21)       =         2.010829	     115.212009
	 D(1,2,4,10)      =        -0.000325	      -0.018609
	 D(1,2,4,16)      =        -3.141283	    -179.982244
	 D(1,3,5,10)      =         0.000325	       0.018608
	 D(1,3,5,17)      =         3.141117	     179.972749
	 D(2,1,3,5)       =        -0.000348	      -0.019945
	 D(2,1,3,15)      =         3.139689	     179.890913
	 D(2,4,10,5)      =         0.000301	       0.017261
	 D(2,4,10,11)     =         3.141198	     179.977407
	 D(3,1,2,4)       =         0.000348	       0.019955
	 D(3,1,2,14)      =        -3.138767	    -179.838124
	 D(3,5,10,4)      =        -0.000301	      -0.017270
	 D(3,5,10,11)     =        -3.141198	    -179.977373
	 D(4,2,1,13)      =         3.139559	     179.883471
	 D(4,10,5,17)     =        -3.141080	    -179.970623
	 D(4,10,11,6)     =        -3.141419	    -179.990052
	 D(4,10,11,7)     =         0.000570	       0.032654
	 D(5,3,1,13)      =        -3.139558	    -179.883434
	 D(5,10,4,16)     =         3.141248	     179.980271
	 D(5,10,11,6)     =        -0.000523	      -0.029952
	 D(5,10,11,7)     =         3.141466	     179.992754
	 D(6,8,12,9)      =         0.000527	       0.030195
	 D(6,11,7,9)      =         0.001569	       0.089903
	 D(6,11,7,19)     =         3.141138	     179.973965
	 D(7,9,12,8)      =         0.000655	       0.037544
	 D(7,11,6,8)      =        -0.000510	      -0.029233
	 D(7,11,6,18)     =         3.141102	     179.971897
	 D(8,6,11,10)     =         3.141477	     179.993394
	 D(8,12,9,21)     =         3.140250	     179.923082
	 D(9,7,11,10)     =        -3.140419	    -179.932733
	 D(9,12,8,20)     =         3.139485	     179.879264
	 D(10,4,2,14)     =         3.138792	     179.839537
	 D(10,5,3,15)     =        -3.139713	    -179.892302
	 D(10,11,6,18)    =        -0.000096	      -0.005476
	 D(10,11,7,19)    =        -0.000849	      -0.048670
	 D(11,6,8,12)     =        -0.000587	      -0.033614
	 D(11,6,8,20)     =        -3.139405	    -179.874663
	 D(11,7,9,12)     =        -0.001698	      -0.097309
	 D(11,7,9,21)     =        -3.141188	    -179.976809
	 D(11,10,4,16)    =        -0.001040	      -0.059583
	 D(11,10,5,17)    =         0.001209	       0.069274
	 D(12,8,6,18)     =         3.140987	     179.965275
	 D(12,9,7,19)     =        -3.141301	    -179.983268
	 D(13,1,2,14)     =         0.000443	       0.025392
	 D(13,1,3,15)     =         0.000479	       0.027424
	 D(14,2,4,16)     =        -0.002166	      -0.124098
	 D(15,3,5,17)     =         0.001079	       0.061840
	 D(18,6,8,20)     =         0.002168	       0.124226
	 D(19,7,9,21)     =         0.002395	       0.137233

	Current energy   :      -478.5709717815

	Generating empirical Hessian (Schlegel '84) for each fragment.
	Adding user-defined constraint: Fragment 1; Coordinate 71:
		Value =    -3.141419; Fixed value    =    -3.141575
		Force =    -0.000078; Force constant =     0.500000
	Removing off-diagonal coupling between coordinate 71 and others.
	Taking RFO optimization step.
	Going to follow RFO solution 1.
	Using RFO vector 1.

	Determining step-restricting scale parameter for RS-RFO.
	Maximum step size allowed    0.10000

	 Iter      |step|        alpha        rfo_root  
	------------------------------------------------
	    0     0.19509       1.00000           1
	    1     0.14391      13.15592           1
	    2     0.11482      31.05587           1
	    3     0.10262      44.42983           1
	    4     0.10011      47.90138           1
	    5     0.10000      48.05675           1
	------------------------------------------------
	Norm of target step-size    0.10000
	Projected energy change by RFO approximation:        -0.0060676742

	Back-transformation to cartesian coordinates...
	Successfully converged to displaced geometry.

	--- Internal Coordinate Step in ANG or DEG, aJ/ANG or AJ/DEG ---
	 ---------------------------------------------------------------------------
	   Coordinate                Previous        Force       Change         New 
	   ----------                --------       ------       ------       ------
	    1 R(1,2)          =      1.394038    -0.065930    -0.005753     1.388285
	    2 R(1,3)          =      1.394891    -0.071503    -0.006236     1.388655
	    3 R(1,13)         =      1.086575    -0.038943    -0.003870     1.082704
	    4 R(2,4)          =      1.394821    -0.059337    -0.005021     1.389800
	    5 R(2,14)         =      1.086327    -0.038941    -0.003869     1.082458
	    6 R(3,5)          =      1.394821    -0.059326    -0.005021     1.389801
	    7 R(3,15)         =      1.085910    -0.036900    -0.003663     1.082247
	    8 R(4,10)         =      1.395407     0.026958     0.002468     1.397876
	    9 R(4,16)         =      1.087946    -0.077746    -0.007746     1.080199
	   10 R(5,10)         =      1.394521     0.031830     0.002875     1.397396
	   11 R(5,17)         =      1.087912    -0.076995    -0.007671     1.080241
	   12 R(6,8)          =      1.385938    -0.005966    -0.000517     1.385421
	   13 R(6,11)         =      1.390419     0.036627     0.003445     1.393864
	   14 R(6,18)         =      1.085059    -0.066088    -0.006550     1.078508
	   15 R(7,9)          =      1.385740    -0.004534    -0.000387     1.385353
	   16 R(7,11)         =      1.390124     0.038455     0.003601     1.393726
	   17 R(7,19)         =      1.085065    -0.066436    -0.006585     1.078480
	   18 R(8,12)         =      1.351875    -0.138478    -0.010928     1.340947
	   19 R(8,20)         =      1.085141    -0.021408    -0.002122     1.083019
	   20 R(9,12)         =      1.351618    -0.137025    -0.010805     1.340812
	   21 R(9,21)         =      1.084975    -0.020430    -0.002025     1.082950
	   22 R(10,11)        =      1.446852     0.255833     0.024139     1.470991
	   23 B(1,2,4)        =    120.009056     0.000144     0.166752   120.175809
	   24 B(1,2,14)       =    120.018942    -0.000078    -0.093354   119.925588
	   25 B(1,3,5)        =    119.959722     0.000152     0.178658   120.138380
	   26 B(1,3,15)       =    120.048965    -0.000084    -0.101607   119.947358
	   27 B(2,1,3)        =    120.031219    -0.000190    -0.352273   119.678946
	   28 B(2,1,13)       =    119.974480     0.000098     0.180628   120.155108
	   29 B(2,4,10)       =    119.994870     0.000534     0.796090   120.790960
	   30 B(2,4,16)       =    119.156970    -0.000400    -0.618094   118.538876
	   31 B(3,1,13)       =    119.994160     0.000092     0.171669   120.165829
	   32 B(3,5,10)       =    120.045019     0.000528     0.786220   120.831239
	   33 B(3,5,17)       =    119.130634    -0.000394    -0.609246   118.521388
	   34 B(4,2,14)       =    119.971849    -0.000066    -0.073375   119.898474
	   35 B(4,10,5)       =    119.960108    -0.001168    -1.575445   118.384664
	   36 B(4,10,11)      =    119.966144     0.000609     0.821884   120.788028
	   37 B(5,3,15)       =    119.991253    -0.000069    -0.077042   119.914211
	   38 B(5,10,11)      =    120.073736     0.000559     0.753564   120.827300
	   39 B(6,8,12)       =    124.032488     0.000140     0.130174   124.162663
	   40 B(6,8,20)       =    120.772240    -0.000119    -0.145750   120.626491
	   41 B(6,11,7)       =    119.783397    -0.001720    -2.277842   117.505555
	   42 B(6,11,10)      =    120.090058     0.000853     1.129169   121.219226
	   43 B(7,9,12)       =    124.036800     0.000137     0.128216   124.165016
	   44 B(7,9,21)       =    120.751091    -0.000114    -0.140448   120.610643
	   45 B(7,11,10)      =    120.126542     0.000867     1.148674   121.275215
	   46 B(8,6,11)       =    117.869176     0.000755     1.150914   119.020090
	   47 B(8,6,18)       =    120.235822    -0.000557    -0.873532   119.362290
	   48 B(8,12,9)       =    116.390080    -0.000057    -0.271448   116.118632
	   49 B(9,7,11)       =    117.887985     0.000745     1.140003   119.027988
	   50 B(9,7,19)       =    120.271462    -0.000562    -0.883908   119.387554
	   51 B(10,4,16)      =    120.848149    -0.000134    -0.177993   120.670157
	   52 B(10,5,17)      =    120.824331    -0.000133    -0.176970   120.647361
	   53 B(11,6,18)      =    121.895003    -0.000198    -0.277383   121.617620
	   54 B(11,7,19)      =    121.840451    -0.000183    -0.256075   121.584375
	   55 B(12,8,20)      =    115.195098    -0.000021     0.015616   115.210714
	   56 B(12,9,21)      =    115.212009    -0.000022     0.012255   115.224264
	   57 D(1,2,4,10)     =     -0.018609     0.000000     0.003590    -0.015019
	   58 D(1,2,4,16)     =   -179.982244    -0.000000    -0.002113  -179.984356
	   59 D(1,3,5,10)     =      0.018608    -0.000000    -0.003992     0.014616
	   60 D(1,3,5,17)     =    179.972749     0.000000     0.002095   179.974844
	   61 D(2,1,3,5)      =     -0.019945     0.000000     0.002914    -0.017031
	   62 D(2,1,3,15)     =    179.890913     0.000001     0.009835   179.900748
	   63 D(2,4,10,5)     =      0.017261    -0.000001    -0.005040     0.012221
	   64 D(2,4,10,11)    =    179.977407     0.000000     0.000758   179.978166
	   65 D(3,1,2,4)      =      0.019955    -0.000000    -0.002718     0.017237
	   66 D(3,1,2,14)     =   -179.838124    -0.000001    -0.013634  -179.851758
	   67 D(3,5,10,4)     =     -0.017270     0.000001     0.005245    -0.012025
	   68 D(3,5,10,11)    =   -179.977373    -0.000000    -0.000583  -179.977956
	   69 D(4,2,1,13)     =    179.883471     0.000001     0.009419   179.892889
	   70 D(4,10,5,17)    =   -179.970623    -0.000000    -0.000784  -179.971407
	   71 D(4,10,11,6)    =   -179.990052    -0.000001    -0.004123  -179.994175
	   72 D(4,10,11,7)    =      0.032654    -0.000001    -0.005661     0.026993
	   73 D(5,3,1,13)     =   -179.883434    -0.000001    -0.009236  -179.892670
	   74 D(5,10,4,16)    =    179.980271    -0.000000     0.000632   179.980903
	   75 D(5,10,11,6)    =     -0.029952    -0.000000     0.000886    -0.029066
	   76 D(5,10,11,7)    =    179.992754    -0.000000    -0.000652   179.992102
	   77 D(6,8,12,9)     =      0.030195    -0.000000    -0.004145     0.026050
	   78 D(6,11,7,9)     =      0.089903    -0.000001    -0.010582     0.079320
	   79 D(6,11,7,19)    =    179.973965    -0.000000     0.000306   179.974270
	   80 D(7,9,12,8)     =      0.037544    -0.000001    -0.006562     0.030981
	   81 D(7,11,6,8)     =     -0.029233     0.000000     0.001451    -0.027782
	   82 D(7,11,6,18)    =    179.971897     0.000000     0.000407   179.972304
	   83 D(8,6,11,10)    =    179.993394    -0.000000    -0.000779   179.992615
	   84 D(8,12,9,21)    =    179.923082     0.000001     0.007320   179.930403
	   85 D(9,7,11,10)    =   -179.932733    -0.000001    -0.008356  -179.941089
	   86 D(9,12,8,20)    =    179.879264     0.000001     0.014391   179.893655
	   87 D(10,4,2,14)    =    179.839537     0.000001     0.014474   179.854011
	   88 D(10,5,3,15)    =   -179.892302    -0.000001    -0.010889  -179.903191
	   89 D(10,11,6,18)   =     -0.005476    -0.000000    -0.001823    -0.007299
	   90 D(10,11,7,19)   =     -0.048670     0.000000     0.002531    -0.046139
	   91 D(11,6,8,12)    =     -0.033614     0.000001     0.006793    -0.026822
	   92 D(11,6,8,20)    =   -179.874663    -0.000001    -0.012956  -179.887620
	   93 D(11,7,9,12)    =     -0.097309     0.000001     0.012273    -0.085036
	   94 D(11,7,9,21)    =   -179.976809    -0.000000    -0.002506  -179.979315
	   95 D(11,10,4,16)   =     -0.059583     0.000001     0.006431    -0.053152
	   96 D(11,10,5,17)   =      0.069274    -0.000001    -0.006612     0.062663
	   97 D(12,8,6,18)    =    179.965275     0.000001     0.007819   179.973094
	   98 D(12,9,7,19)    =   -179.983268    -0.000000     0.000936  -179.982331
	   99 D(13,1,2,14)    =      0.025392    -0.000000    -0.001497     0.023895
	  100 D(13,1,3,15)    =      0.027424    -0.000000    -0.002315     0.025109
	  101 D(14,2,4,16)    =     -0.124098     0.000001     0.008772    -0.115326
	  102 D(15,3,5,17)    =      0.061840    -0.000000    -0.004802     0.057037
	  103 D(18,6,8,20)    =      0.124226    -0.000001    -0.011930     0.112296
	  104 D(19,7,9,21)    =      0.137233    -0.000001    -0.013843     0.123390
	 ---------------------------------------------------------------------------
	Successfully symmetrized geometry.
	 Forces used to impose fixed constraints are not included.
	  Forces zeroed: 71 

  ==> Convergence Check <==

  Measures of convergence in internal coordinates in au.
  Criteria marked as inactive (o), active & met (*), and active & unmet ( ).
  --------------------------------------------------------------------------------------------- ~
   Step     Total Energy     Delta E     MAX Force     RMS Force      MAX Disp      RMS Disp    ~
  --------------------------------------------------------------------------------------------- ~
    Convergence Criteria    1.00e-06 *    3.00e-04 *             o    1.20e-03 *             o  ~
  --------------------------------------------------------------------------------------------- ~
      1    -478.57097178   -4.79e+02      3.11e-02      6.08e-03 o    4.56e-02      9.81e-03 o  ~
  ---------------------------------------------------------------------------------------------

	Writing optimization data to binary file.
	Structure for next step:
	Cartesian Geometry (in Angstrom)
	    C     0.1095500252   0.0531185955  -3.5550946576
	    C    -0.9624728781   0.6228343989  -2.8816505617
	    C     1.1386954005  -0.5380466394  -2.8341600064
	    C    -1.0056130367   0.6021176282  -1.4926743936
	    C     1.0954075150  -0.5586865757  -1.4451870907
	    C     0.9981758644  -0.5978406641   1.4624843588
	    C    -1.0874191849   0.5544736533   1.4158661114
	    C     0.9089177816  -0.5921957625   2.8450157207
	    C    -1.0820882271   0.5091034265   2.8004652904
	    C     0.0229777246   0.0107301232  -0.7535405228
	    C    -0.0225158666  -0.0107390716   0.7165903312
	    N    -0.1081628029  -0.0517122436   3.5317196350
	    H     0.1419711410   0.0679145018  -4.6372123859
	    H    -1.7680296188   1.0825893394  -3.4397003499
	    H     1.9756973620  -0.9848874569  -3.3547557260
	    H    -1.8522656609   1.0528902792  -0.9958703383
	    H     1.9096776591  -1.0257486876  -0.9106422703
	    H     1.8529763691  -1.0548778158   0.9896069715
	    H    -1.9117963813   1.0261944892   0.9049835804
	    H     1.6879845097  -1.0393523272   3.4500247059
	    H    -1.8965699012   0.9399700963   3.3694593305
			--------------------------
			 OPTKING Finished Execution 
			--------------------------

    Structure for next step:
    Molecular point group: c1
    Full point group: C1

    Geometry (in Angstrom), charge = 0, multiplicity = 1:

    C            0.109617684131     0.053121835217    -3.555945970696
    C           -0.962405219136     0.622837638599    -2.882501874799
    C            1.138763059473    -0.538043399697    -2.835011319511
    C           -1.005545377740     0.602120867929    -1.493525706694
    C            1.095475173961    -0.558683336041    -1.446038403879
    C            0.998243523359    -0.597837424446     1.461633045686
    C           -1.087351525949     0.554476892960     1.415014798218
    C            0.908985440534    -0.592192522852     2.844164407582
    C           -1.082020568161     0.509106666194     2.799613977297
    C            0.023045383541     0.010733362837    -0.754391835944
    C           -0.022448207695    -0.010735831957     0.715739018093
    N           -0.108095143937    -0.051709003940     3.530868321820
    H            0.142038799924     0.067917741462    -4.638063699066
    H           -1.767961959884     1.082592579070    -3.440551663007
    H            1.975765020969    -0.984884217221    -3.355607039138
    H           -1.852198001960     1.052893518907    -0.996721651396
    H            1.909745318009    -1.025745447895    -0.911493583459
    H            1.853044028015    -1.054874576159     0.988755658355
    H           -1.911728722362     1.026197728918     0.904132267231
    H            1.688052168640    -1.039349087481     3.449173392759
    H           -1.896502242293     0.939973335955     3.368608017380

gradient() will perform analytic gradient computation.

*** tstart() called on gpu-1-15.local
*** at Sat Nov 11 10:06:48 2017

    SCF Algorithm Type (re)set to DF.

*** tstart() called on gpu-1-15.local
*** at Sat Nov 11 10:06:48 2017

   => Loading Basis Set <=

    Name: AUG-CC-PVTZ
    Role: ORBITAL
    Keyword: BASIS
    atoms 1-11  entry C          line   221 file /cbio/jclab/home/chayas/anaconda/envs/py35/share/psi4/basis/aug-cc-pvtz.gbs 
    atoms 12    entry N          line   267 file /cbio/jclab/home/chayas/anaconda/envs/py35/share/psi4/basis/aug-cc-pvtz.gbs 
    atoms 13-21 entry H          line    34 file /cbio/jclab/home/chayas/anaconda/envs/py35/share/psi4/basis/aug-cc-pvtz.gbs 


         ---------------------------------------------------------
                                   SCF
            by Justin Turney, Rob Parrish, and Andy Simmonett
                              RHF Reference
                        8 Threads,    500 MiB Core
         ---------------------------------------------------------

  ==> Geometry <==

    Molecular point group: c1
    Full point group: C1

    Geometry (in Angstrom), charge = 0, multiplicity = 1:

       Center              X                  Y                   Z               Mass       
    ------------   -----------------  -----------------  -----------------  -----------------
           C          0.109617684131     0.053121835217    -3.555945970696    12.000000000000
           C         -0.962405219136     0.622837638599    -2.882501874799    12.000000000000
           C          1.138763059473    -0.538043399697    -2.835011319511    12.000000000000
           C         -1.005545377740     0.602120867929    -1.493525706694    12.000000000000
           C          1.095475173961    -0.558683336041    -1.446038403879    12.000000000000
           C          0.998243523359    -0.597837424446     1.461633045686    12.000000000000
           C         -1.087351525949     0.554476892960     1.415014798218    12.000000000000
           C          0.908985440534    -0.592192522852     2.844164407582    12.000000000000
           C         -1.082020568161     0.509106666194     2.799613977297    12.000000000000
           C          0.023045383541     0.010733362837    -0.754391835944    12.000000000000
           C         -0.022448207695    -0.010735831957     0.715739018093    12.000000000000
           N         -0.108095143937    -0.051709003940     3.530868321820    14.003074004780
           H          0.142038799924     0.067917741462    -4.638063699066     1.007825032070
           H         -1.767961959884     1.082592579070    -3.440551663007     1.007825032070
           H          1.975765020969    -0.984884217221    -3.355607039138     1.007825032070
           H         -1.852198001960     1.052893518907    -0.996721651396     1.007825032070
           H          1.909745318009    -1.025745447895    -0.911493583459     1.007825032070
           H          1.853044028015    -1.054874576159     0.988755658355     1.007825032070
           H         -1.911728722362     1.026197728918     0.904132267231     1.007825032070
           H          1.688052168640    -1.039349087481     3.449173392759     1.007825032070
           H         -1.896502242293     0.939973335955     3.368608017380     1.007825032070

  Running in c1 symmetry.

  Rotational constants: A =      0.09879  B =      0.01871  C =      0.01573 [cm^-1]
  Rotational constants: A =   2961.70414  B =    560.84372  C =    471.54882 [MHz]
  Nuclear repulsion =  605.762591901297355

  Charge       = 0
  Multiplicity = 1
  Electrons    = 82
  Nalpha       = 41
  Nbeta        = 41

  ==> Algorithm <==

  SCF Algorithm Type is DF.
  DIIS enabled.
  MOM disabled.
  Fractional occupation disabled.
  Guess Type is READ.
  Energy threshold   = 1.00e-10
  Density threshold  = 1.00e-10
  Integral threshold = 0.00e+00

  ==> Primary Basis <==

  Basis Set: AUG-CC-PVTZ
    Blend: AUG-CC-PVTZ
    Number of shells: 249
    Number of basis function: 759
    Number of Cartesian functions: 885
    Spherical Harmonics?: true
    Max angular momentum: 3

   => Loading Basis Set <=

    Name: (AUG-CC-PVTZ AUX)
    Role: JKFIT
    Keyword: DF_BASIS_SCF
    atoms 1-11  entry C          line   161 file /cbio/jclab/home/chayas/anaconda/envs/py35/share/psi4/basis/aug-cc-pvtz-jkfit.gbs 
    atoms 12    entry N          line   223 file /cbio/jclab/home/chayas/anaconda/envs/py35/share/psi4/basis/aug-cc-pvtz-jkfit.gbs 
    atoms 13-21 entry H          line    69 file /cbio/jclab/home/chayas/anaconda/envs/py35/share/psi4/basis/aug-cc-pvtz-jkfit.gbs 

  Reading orbitals from file 180, no projection.

  ==> Pre-Iterations <==

   -------------------------------------------------------
    Irrep   Nso     Nmo     Nalpha   Nbeta   Ndocc  Nsocc
   -------------------------------------------------------
     A        759     759       0       0       0       0
   -------------------------------------------------------
    Total     759     759      41      41      41       0
   -------------------------------------------------------

  ==> Integral Setup <==

  ==> DFJK: Density-Fitted J/K Matrices <==

    J tasked:                  Yes
    K tasked:                  Yes
    wK tasked:                  No
    OpenMP threads:              8
    Integrals threads:           8
    Memory (MB):               375
    Algorithm:                Disk
    Integral Cache:           NONE
    Schwarz Cutoff:          1E-12
    Fitting Condition:       1E-12

   => Auxiliary Basis Set <=

  Basis Set: (AUG-CC-PVTZ AUX)
    Blend: AUG-CC-PVTZ-JKFIT
    Number of shells: 486
    Number of basis function: 1662
    Number of Cartesian functions: 2067
    Spherical Harmonics?: true
    Max angular momentum: 4

  Minimum eigenvalue in the overlap matrix is 2.5769703514E-07.
  Using Symmetric Orthogonalization.

  SCF Guess: Orbitals guess was supplied from a previous computation.

  ==> Iterations <==

                           Total Energy        Delta E     RMS |[F,P]|

   @DF-RHF iter   0:  -476.60089977274714   -4.76601e+02   7.34039e-04 
   @DF-RHF iter   1:  -476.39243492075082    2.08465e-01   2.21925e-04 
   @DF-RHF iter   2:  -476.39460921874058   -2.17430e-03   1.65060e-04 DIIS
   @DF-RHF iter   3:  -476.39648387936495   -1.87466e-03   2.07898e-05 DIIS
   @DF-RHF iter   4:  -476.39651054431033   -2.66649e-05   4.87370e-06 DIIS
   @DF-RHF iter   5:  -476.39651295324001   -2.40893e-06   1.48492e-06 DIIS
   @DF-RHF iter   6:  -476.39651322878524   -2.75545e-07   7.43580e-07 DIIS
   @DF-RHF iter   7:  -476.39651332422250   -9.54373e-08   3.14525e-07 DIIS
   @DF-RHF iter   8:  -476.39651336009752   -3.58750e-08   1.35424e-07 DIIS
   @DF-RHF iter   9:  -476.39651336642413   -6.32662e-09   4.35365e-08 DIIS
   @DF-RHF iter  10:  -476.39651336691969   -4.95561e-10   1.86334e-08 DIIS
   @DF-RHF iter  11:  -476.39651336698989   -7.02016e-11   4.79174e-09 DIIS
   @DF-RHF iter  12:  -476.39651336698984    5.68434e-14   2.23956e-09 DIIS
   @DF-RHF iter  13:  -476.39651336700069   -1.08571e-11   1.30158e-09 DIIS
   @DF-RHF iter  14:  -476.39651336697250    2.81943e-11   5.79212e-10 DIIS
   @DF-RHF iter  15:  -476.39651336699291   -2.04068e-11   1.96343e-10 DIIS
   @DF-RHF iter  16:  -476.39651336701957   -2.66596e-11   6.95024e-11 DIIS

  ==> Post-Iterations <==

    Orbital Energies (a.u.)
    -----------------------

    Doubly Occupied:                                                      

       1A    -15.561791     2A    -11.273140     3A    -11.273120  
       4A    -11.268879     5A    -11.256316     6A    -11.246539  
       7A    -11.246489     8A    -11.245342     9A    -11.244523  
      10A    -11.243688    11A    -11.237572    12A    -11.237539  
      13A     -1.255532    14A     -1.175165    15A     -1.107673  
      16A     -1.038971    17A     -1.025274    18A     -1.018542  
      19A     -0.882134    20A     -0.871609    21A     -0.825509  
      22A     -0.808970    23A     -0.738370    24A     -0.684230  
      25A     -0.673861    26A     -0.667775    27A     -0.628822  
      28A     -0.620330    29A     -0.612249    30A     -0.585499  
      31A     -0.580943    32A     -0.553201    33A     -0.530184  
      34A     -0.515103    35A     -0.510306    36A     -0.492488  
      37A     -0.419129    38A     -0.412324    39A     -0.353645  
      40A     -0.345140    41A     -0.318209  

    Virtual:                                                              

      42A      0.024586    43A      0.028416    44A      0.031954  
      45A      0.039646    46A      0.043132    47A      0.054225  
      48A      0.058539    49A      0.059099    50A      0.074037  
      51A      0.082914    52A      0.083068    53A      0.085328  
      54A      0.087119    55A      0.087175    56A      0.094117  
      57A      0.100103    58A      0.103567    59A      0.108809  
      60A      0.115678    61A      0.116054    62A      0.116310  
      63A      0.117834    64A      0.129788    65A      0.130706  
      66A      0.132473    67A      0.135954    68A      0.138046  
      69A      0.145222    70A      0.146635    71A      0.147183  
      72A      0.149926    73A      0.152051    74A      0.156106  
      75A      0.167148    76A      0.168342    77A      0.172604  
      78A      0.173187    79A      0.184859    80A      0.185102  
      81A      0.189991    82A      0.193421    83A      0.197482  
      84A      0.202481    85A      0.214317    86A      0.214948  
      87A      0.224254    88A      0.233561    89A      0.233719  
      90A      0.243013    91A      0.247366    92A      0.250809  
      93A      0.259209    94A      0.264930    95A      0.267920  
      96A      0.272633    97A      0.273210    98A      0.280480  
      99A      0.281943   100A      0.285904   101A      0.290074  
     102A      0.290593   103A      0.293124   104A      0.295245  
     105A      0.302203   106A      0.313023   107A      0.313817  
     108A      0.316286   109A      0.316544   110A      0.318029  
     111A      0.325007   112A      0.330729   113A      0.340702  
     114A      0.344942   115A      0.345743   116A      0.354317  
     117A      0.368467   118A      0.369515   119A      0.371040  
     120A      0.371700   121A      0.373644   122A      0.381819  
     123A      0.407956   124A      0.411223   125A      0.413704  
     126A      0.413961   127A      0.416751   128A      0.417605  
     129A      0.424318   130A      0.426649   131A      0.435007  
     132A      0.435346   133A      0.435545   134A      0.435893  
     135A      0.439939   136A      0.445160   137A      0.447333  
     138A      0.449956   139A      0.450618   140A      0.453071  
     141A      0.460633   142A      0.466624   143A      0.472111  
     144A      0.473242   145A      0.474340   146A      0.480039  
     147A      0.495324   148A      0.499704   149A      0.501750  
     150A      0.502330   151A      0.505810   152A      0.506452  
     153A      0.507095   154A      0.516914   155A      0.516939  
     156A      0.526964   157A      0.530383   158A      0.533472  
     159A      0.534663   160A      0.536554   161A      0.541657  
     162A      0.547495   163A      0.548116   164A      0.550244  
     165A      0.552741   166A      0.555407   167A      0.572606  
     168A      0.576920   169A      0.583426   170A      0.584284  
     171A      0.585110   172A      0.593412   173A      0.595029  
     174A      0.598845   175A      0.609393   176A      0.620177  
     177A      0.627237   178A      0.636695   179A      0.636973  
     180A      0.648104   181A      0.651035   182A      0.671568  
     183A      0.673726   184A      0.676999   185A      0.682240  
     186A      0.682838   187A      0.694432   188A      0.695509  
     189A      0.698598   190A      0.700879   191A      0.705117  
     192A      0.719760   193A      0.723396   194A      0.724093  
     195A      0.733528   196A      0.735956   197A      0.742167  
     198A      0.745955   199A      0.754057   200A      0.762967  
     201A      0.773448   202A      0.773911   203A      0.783591  
     204A      0.787206   205A      0.804322   206A      0.804770  
     207A      0.811440   208A      0.819009   209A      0.819964  
     210A      0.826151   211A      0.833093   212A      0.849480  
     213A      0.850425   214A      0.851912   215A      0.858923  
     216A      0.864936   217A      0.870393   218A      0.873617  
     219A      0.880135   220A      0.884555   221A      0.889451  
     222A      0.892011   223A      0.899302   224A      0.903590  
     225A      0.909561   226A      0.910064   227A      0.916090  
     228A      0.920291   229A      0.922328   230A      0.926432  
     231A      0.927690   232A      0.938173   233A      0.943086  
     234A      0.946390   235A      0.949087   236A      0.951310  
     237A      0.953363   238A      0.960167   239A      0.962331  
     240A      0.965533   241A      0.976347   242A      0.977856  
     243A      0.982229   244A      0.986606   245A      0.991307  
     246A      1.003117   247A      1.004177   248A      1.008329  
     249A      1.010883   250A      1.014122   251A      1.021554  
     252A      1.030633   253A      1.036856   254A      1.038104  
     255A      1.043498   256A      1.045859   257A      1.047060  
     258A      1.051859   259A      1.058625   260A      1.066126  
     261A      1.067834   262A      1.077181   263A      1.082257  
     264A      1.083231   265A      1.083440   266A      1.089262  
     267A      1.094107   268A      1.095083   269A      1.110429  
     270A      1.113925   271A      1.116579   272A      1.122834  
     273A      1.135249   274A      1.138218   275A      1.143934  
     276A      1.152762   277A      1.154808   278A      1.165178  
     279A      1.174968   280A      1.175142   281A      1.178606  
     282A      1.184895   283A      1.190294   284A      1.190799  
     285A      1.190806   286A      1.203147   287A      1.204292  
     288A      1.207598   289A      1.222989   290A      1.224627  
     291A      1.232723   292A      1.234161   293A      1.240284  
     294A      1.248183   295A      1.254277   296A      1.257600  
     297A      1.265505   298A      1.267560   299A      1.271901  
     300A      1.282962   301A      1.286571   302A      1.287043  
     303A      1.287544   304A      1.301361   305A      1.302916  
     306A      1.316916   307A      1.319839   308A      1.331737  
     309A      1.332465   310A      1.344872   311A      1.352815  
     312A      1.357329   313A      1.368172   314A      1.375569  
     315A      1.377670   316A      1.388286   317A      1.395123  
     318A      1.407977   319A      1.411686   320A      1.412978  
     321A      1.439424   322A      1.440977   323A      1.454591  
     324A      1.461302   325A      1.461937   326A      1.476093  
     327A      1.484892   328A      1.486039   329A      1.505473  
     330A      1.512049   331A      1.512400   332A      1.515933  
     333A      1.530103   334A      1.533301   335A      1.536414  
     336A      1.553951   337A      1.557400   338A      1.570840  
     339A      1.576138   340A      1.601861   341A      1.603586  
     342A      1.616869   343A      1.625021   344A      1.625371  
     345A      1.653265   346A      1.657397   347A      1.666311  
     348A      1.666633   349A      1.671506   350A      1.672302  
     351A      1.674455   352A      1.682968   353A      1.693049  
     354A      1.699832   355A      1.704866   356A      1.712112  
     357A      1.722856   358A      1.729053   359A      1.740892  
     360A      1.745848   361A      1.754875   362A      1.763543  
     363A      1.774108   364A      1.774279   365A      1.774712  
     366A      1.790923   367A      1.799852   368A      1.806572  
     369A      1.824469   370A      1.836823   371A      1.844885  
     372A      1.851025   373A      1.856981   374A      1.865295  
     375A      1.880283   376A      1.890068   377A      1.894898  
     378A      1.906169   379A      1.916705   380A      1.921433  
     381A      1.931650   382A      1.933319   383A      1.949670  
     384A      1.963737   385A      1.973683   386A      1.975594  
     387A      1.981907   388A      1.988293   389A      1.994665  
     390A      2.007708   391A      2.019922   392A      2.026009  
     393A      2.031250   394A      2.031671   395A      2.042846  
     396A      2.046651   397A      2.054980   398A      2.064205  
     399A      2.074378   400A      2.075440   401A      2.085163  
     402A      2.088276   403A      2.093317   404A      2.100470  
     405A      2.104038   406A      2.106051   407A      2.126748  
     408A      2.129817   409A      2.133108   410A      2.154143  
     411A      2.163403   412A      2.168774   413A      2.170921  
     414A      2.172683   415A      2.188272   416A      2.189064  
     417A      2.200602   418A      2.211461   419A      2.220032  
     420A      2.236203   421A      2.239230   422A      2.241135  
     423A      2.245427   424A      2.264976   425A      2.269727  
     426A      2.276314   427A      2.281129   428A      2.296120  
     429A      2.302305   430A      2.312019   431A      2.312736  
     432A      2.340638   433A      2.354304   434A      2.355549  
     435A      2.377770   436A      2.378529   437A      2.390136  
     438A      2.391831   439A      2.410931   440A      2.417496  
     441A      2.439548   442A      2.447359   443A      2.466806  
     444A      2.468672   445A      2.469315   446A      2.474101  
     447A      2.487542   448A      2.490986   449A      2.495069  
     450A      2.523968   451A      2.545596   452A      2.547517  
     453A      2.565381   454A      2.572483   455A      2.612317  
     456A      2.615028   457A      2.617831   458A      2.667535  
     459A      2.678577   460A      2.687054   461A      2.697803  
     462A      2.717855   463A      2.724349   464A      2.760083  
     465A      2.785229   466A      2.794672   467A      2.817700  
     468A      2.822589   469A      2.838777   470A      2.853422  
     471A      2.862974   472A      2.871112   473A      2.894579  
     474A      2.938802   475A      3.020580   476A      3.046145  
     477A      3.050802   478A      3.057491   479A      3.087493  
     480A      3.104121   481A      3.124830   482A      3.141981  
[...]
	                          DF-MP2                         
	      2nd-Order Density-Fitted Moller-Plesset Theory     
	              RMP2 Wavefunction,   8 Threads             
	                                                         
	        Rob Parrish, Justin Turney, Andy Simmonett,      
	           Ed Hohenstein, and C. David Sherrill          
	 --------------------------------------------------------

   => Auxiliary Basis Set <=

  Basis Set: (AUG-CC-PVTZ AUX)
    Blend: AUG-CC-PVTZ-RI
    Number of shells: 462
    Number of basis function: 1686
    Number of Cartesian functions: 2127
    Spherical Harmonics?: true
    Max angular momentum: 4

	 --------------------------------------------------------
	                 NBF =   759, NAUX =  1686
	 --------------------------------------------------------
	   CLASS    FOCC     OCC    AOCC    AVIR     VIR    FVIR
	   PAIRS       0      41      41     718     718       0
	 --------------------------------------------------------


         ------------------------------------------------------------
                                     CPHF                           
                                  Rob Parrish                       
         ------------------------------------------------------------

  ==> Geometry <==

    Molecular point group: c1
    Full point group: C1

    Geometry (in Angstrom), charge = 0, multiplicity = 1:

       Center              X                  Y                   Z               Mass       
    ------------   -----------------  -----------------  -----------------  -----------------
           C          0.092575138806     0.020424388660    -3.571319468362    12.000000000000
           C         -0.998765933051     0.544485398155    -2.892950471448    12.000000000000
           C          1.158034992737    -0.493414738646    -2.844597659143    12.000000000000
           C         -1.018632133447     0.559918689701    -1.507124384937    12.000000000000
           C          1.133475800267    -0.475759615226    -1.458873713687    12.000000000000
           C          0.960680383301    -0.636716595867     1.473968920795    12.000000000000
           C         -1.034100617668     0.623525221240     1.433162550921    12.000000000000
           C          0.854265573637    -0.673093960662     2.854912817747    12.000000000000
           C         -1.060666729292     0.535376957630     2.815675792708    12.000000000000
           C          0.055880617939     0.070828467509    -0.757868770859    12.000000000000
           C          0.010447341176     0.045820949291     0.712027908661    12.000000000000
           N         -0.134977882805    -0.097031612466     3.540850545576    14.003074004780
           H          0.108569025338     0.004917718949    -4.650701029423     1.007825032070
           H         -1.841058271514     0.938700603912    -3.442834500389     1.007825032070
           H          2.010140291308    -0.914605665346    -3.356497393910     1.007825032070
           H         -1.886320440518     0.965073852361    -1.012249443599     1.007825032070
           H          1.972857512662    -0.892129422751    -0.925836420209     1.007825032070
           H          1.793036381817    -1.143337047059     1.013283123871     1.007825032070
           H         -1.834907532300     1.149360490361     0.939007030224     1.007825032070
           H          1.599416933499    -1.198953601717     3.438051571608     1.007825032070
           H         -1.870363803886     0.993732887585     3.367058087973     1.007825032070

  Nuclear repulsion =  605.384769904690756
  Reference energy  = -476.397992079992264

  ==> Basis Set <==

  Basis Set: AUG-CC-PVTZ
    Blend: AUG-CC-PVTZ
    Number of shells: 249
    Number of basis function: 759
    Number of Cartesian functions: 885
    Spherical Harmonics?: true
    Max angular momentum: 3

  ==> CGRSolver (by Rob Parrish) <==

   Number of roots    =         1
   Preconditioning    =    JACOBI
   Convergence cutoff =     1E-06
   Maximum iterations =       100

  ==> CPHFRHamiltonian (by Rob Parrish) <== 

  ==> DFJK: Density-Fitted J/K Matrices <==

    J tasked:                  Yes
    K tasked:                  Yes
    wK tasked:                  No
    OpenMP threads:              8
    Integrals threads:           8
    Memory (MB):               375
    Algorithm:                Disk
    Integral Cache:           NONE
    Schwarz Cutoff:          1E-12
    Fitting Condition:       1E-12

   => Auxiliary Basis Set <=

  Basis Set: (AUG-CC-PVTZ AUX)
    Blend: AUG-CC-PVTZ-JKFIT
    Number of shells: 486
    Number of basis function: 1662
    Number of Cartesian functions: 2067
    Spherical Harmonics?: true
    Max angular momentum: 4

  ==> CPHF Iterations <==

  => Iterations <=

             Iter  Converged  Remaining    Residual
  CGR           1          0          1   8.046E-02
  CGR           2          0          1   2.913E-02
  CGR           3          0          1   2.088E-02
  CGR           4          0          1   9.215E-03
  CGR           5          0          1   2.753E-03
  CGR           6          0          1   1.031E-03
  CGR           7          0          1   4.761E-04
  CGR           8          0          1   2.019E-04
  CGR           9          0          1   9.264E-05
  CGR          10          0          1   3.547E-05
  CGR          11          0          1   7.650E-06
  CGR          12          0          1   2.702E-06
  CGR          13          1          0   6.956E-07

    CGRSolver converged.

  ==> DFCorrGrad: Density-Fitted Correlated Gradients <==

    OpenMP threads:              8
    Integrals threads:           8
    Memory (MB):               375
    Schwarz Cutoff:          0E+00
    Fitting Condition:       1E-12

   => Auxiliary Basis Set <=

  Basis Set: (AUG-CC-PVTZ AUX)
    Blend: AUG-CC-PVTZ-JKFIT
    Number of shells: 486
    Number of basis function: 1662
    Number of Cartesian functions: 2067
    Spherical Harmonics?: true
    Max angular momentum: 4

	-----------------------------------------------------------
	 ==================> DF-MP2 Energies <==================== 
	-----------------------------------------------------------
	 Reference Energy          =    -476.3979920799922638 [Eh]
	 Singles Energy            =      -0.0000000000000012 [Eh]
	 Same-Spin Energy          =      -0.5345749002747353 [Eh]
	 Opposite-Spin Energy      =      -1.6424366006430997 [Eh]
	 Correlation Energy        =      -2.1770115009178364 [Eh]
	 Total Energy              =    -478.5750035809101064 [Eh]
	-----------------------------------------------------------
	 ================> DF-SCS-MP2 Energies <================== 
	-----------------------------------------------------------
	 SCS Same-Spin Scale       =       0.3333333333333333 [-]
	 SCS Opposite-Spin Scale   =       1.2000000000000000 [-]
	 SCS Same-Spin Energy      =      -0.1781916334249118 [Eh]
	 SCS Opposite-Spin Energy  =      -1.9709239207717195 [Eh]
	 SCS Correlation Energy    =      -2.1491155541966327 [Eh]
	 SCS Total Energy          =    -478.5471076341888761 [Eh]
	-----------------------------------------------------------


  -Total Gradient:
     Atom            X                  Y                   Z
    ------   -----------------  -----------------  -----------------
       1       -0.000500468626    -0.000322631888    -0.000122784077
       2        0.000300120418     0.000571034071     0.000020892814
       3        0.000756766584     0.000518268367     0.000176368075
       4       -0.001992095165    -0.003548753019    -0.000751007670
       5       -0.001367659028    -0.002423537360    -0.000241116674
       6       -0.001463476580    -0.003277784207     0.000570880447
       7       -0.001062022244    -0.001818548979    -0.000056763728
       8        0.000014979799     0.000428688936     0.000076861288
       9       -0.000345012191     0.000186956866    -0.000065983695
      10        0.003259442515     0.005522077647     0.001048993997
      11        0.002753816928     0.005698568837    -0.000708055541
      12        0.000477767081    -0.000238346843     0.000374804372
      13       -0.000194957516    -0.000191389537    -0.000261039837
      14       -0.000396699011     0.000554824043    -0.000382824597
      15        0.000187432671    -0.000026647130    -0.000042322135
      16       -0.000316432022     0.000126733685    -0.000061422246
      17       -0.000131591884    -0.000779097752     0.000017194826
      18        0.000291997303    -0.000113576654     0.000128710560
      19       -0.000603968216    -0.000446803367    -0.000129670863
      20        0.000503657820    -0.000441089653     0.000417389526
      21       -0.000171598638     0.000021053936    -0.000009104859


*** tstop() called on gpu-1-15.local at Sat Nov 11 13:05:03 2017
Module time:
	user time   =    4588.82 seconds =      76.48 minutes
	system time =      80.80 seconds =       1.35 minutes
	total time  =       1532 seconds =      25.53 minutes
Total time:
	user time   =   36760.49 seconds =     612.67 minutes
	system time =     648.19 seconds =      10.80 minutes
	total time  =      12271 seconds =     204.52 minutes

			-----------------------------------------
			 OPTKING 2.0: for geometry optimizations 
			  - R.A. King,  Bethel University        
			-----------------------------------------

	Previous internal coordinate definitions found.
	---Fragment 1 Geometry and Gradient---
	 C           0.1749416591        0.0385965010       -6.7488157282
	 C          -1.8873940843        1.0289282859       -5.4668841070
	 C           2.1883689886       -0.9324187260       -5.3755105340
	 C          -1.9249357624        1.0580929802       -2.8480523357
	 C           2.1419588408       -0.8990553779       -2.7568717813
	 C           1.8154228257       -1.2032199905        2.7853975887
	 C          -1.9541669612        1.1782919051        2.7082847251
	 C           1.6143279789       -1.2719632474        5.3950033588
	 C          -2.0043696366        1.0117158278        5.3208561272
	 C           0.1055990640        0.1338464060       -1.4321644216
	 C           0.0197426136        0.0865890453        1.3455377463
	 N          -0.2550712325       -0.1833631738        6.6912378086
	 H           0.2051657244        0.0092931420       -8.7885512715
	 H          -3.4790959278        1.7738870622       -6.5060143266
	 H           3.7986146393       -1.7283542271       -6.3428608402
	 H          -3.5646290314        1.8237252790       -1.9128742266
	 H           3.7281603981       -1.6858802841       -1.7495772780
	 H           3.3883477079       -2.1605938965        1.9148275992
	 H          -3.4674727152        2.1719765547        1.7744661240
	 H           3.0224599766       -2.2656939533        6.4969759011
	 H          -3.5344753582        1.8778830068        6.3628176598
	            -0.0005004686       -0.0003226319       -0.0001227841
	             0.0003001204        0.0005710341        0.0000208928
	             0.0007567666        0.0005182684        0.0001763681
	            -0.0019920952       -0.0035487530       -0.0007510077
	            -0.0013676590       -0.0024235374       -0.0002411167
	            -0.0014634766       -0.0032777842        0.0005708804
	            -0.0010620222       -0.0018185490       -0.0000567637
	             0.0000149798        0.0004286889        0.0000768613
	            -0.0003450122        0.0001869569       -0.0000659837
	             0.0032594425        0.0055220776        0.0010489940
	             0.0027538169        0.0056985688       -0.0007080555
	             0.0004777671       -0.0002383468        0.0003748044
	            -0.0001949575       -0.0001913895       -0.0002610398
	            -0.0003966990        0.0005548240       -0.0003828246
	             0.0001874327       -0.0000266471       -0.0000423221
	            -0.0003164320        0.0001267337       -0.0000614222
	            -0.0001315919       -0.0007790978        0.0000171948
	             0.0002919973       -0.0001135767        0.0001287106
	            -0.0006039682       -0.0004468034       -0.0001296709
	             0.0005036578       -0.0004410897        0.0004173895
	            -0.0001715986        0.0000210539       -0.0000091049

	---Fragment 1 Intrafragment Coordinates---
	 - Coordinate -           - BOHR/RAD -       - ANG/DEG -
	 R(1,2)           =         2.622467	       1.387750
	 R(1,3)           =         2.623495	       1.388294
	 R(1,13)          =         2.040170	       1.079611
	 R(2,4)           =         2.619263	       1.386054
	 R(2,14)          =         2.041634	       1.080386
	 R(3,5)           =         2.619262	       1.386054
	 R(3,15)          =         2.040140	       1.079596
	 R(4,10)          =         2.642355	       1.398274
	 R(4,16)          =         2.036994	       1.077931
	 R(5,10)          =         2.639791	       1.396917
	 R(5,17)          =         2.037099	       1.077986
	 R(6,8)           =         2.618245	       1.385516
	 R(6,11)          =         2.638422	       1.396193
	 R(6,18)          =         2.036799	       1.077828
	 R(7,9)           =         2.618358	       1.385575
	 R(7,11)          =         2.635377	       1.394582
	 R(7,19)          =         2.037037	       1.077954
	 R(8,12)          =         2.521890	       1.334527
	 R(8,20)          =         2.045649	       1.082511
	 R(9,12)          =         2.523134	       1.335185
	 R(9,21)          =         2.043808	       1.081537
	 R(10,11)         =         2.779431	       1.470811
	 B(1,2,4)         =         2.099278	     120.279749
	 B(1,2,14)        =         2.096818	     120.138823
	 B(1,3,5)         =         2.100209	     120.333101
	 B(1,3,15)        =         2.096632	     120.128169
	 B(2,1,3)         =         2.079936	     119.171553
	 B(2,1,13)        =         2.101102	     120.384258
	 B(2,4,10)        =         2.118638	     121.389011
	 B(2,4,16)        =         2.065469	     118.342684
	 B(3,1,13)        =         2.102111	     120.442063
	 B(3,5,10)        =         2.118064	     121.356119
	 B(3,5,17)        =         2.066488	     118.401065
	 B(4,2,14)        =         2.087077	     119.580696
	 B(4,10,5)        =         2.049647	     117.436110
	 B(4,10,11)       =         2.114980	     121.179404
	 B(5,3,15)        =         2.086331	     119.537984
	 B(5,10,11)       =         2.116111	     121.244204
	 B(6,8,12)        =         2.162646	     123.910501
	 B(6,8,20)        =         2.090702	     119.788418
	 B(6,11,7)        =         2.015375	     115.472505
	 B(6,11,10)       =         2.132557	     122.186490
	 B(7,9,12)        =         2.163694	     123.970531
	 B(7,9,21)        =         2.089874	     119.740971
	 B(7,11,10)       =         2.132784	     122.199532
	 B(8,6,11)        =         2.099587	     120.297459
	 B(8,6,18)        =         2.063469	     118.228063
	 B(8,12,9)        =         2.025523	     116.053911
	 B(9,7,11)        =         2.098976	     120.262455
	 B(9,7,19)        =         2.064848	     118.307068
	 B(10,4,16)       =         2.099067	     120.267691
	 B(10,5,17)       =         2.098622	     120.242198
	 B(11,6,18)       =         2.120123	     121.474088
	 B(11,7,19)       =         2.119356	     121.430146
	 B(12,8,20)       =         2.029809	     116.299516
	 B(12,9,21)       =         2.029609	     116.288030
	 D(1,2,4,10)      =         0.015732	       0.901377
	 D(1,2,4,16)      =        -3.130828	    -179.383228
	 D(1,3,5,10)      =        -0.015799	      -0.905228
	 D(1,3,5,17)      =         3.130778	     179.380359
	 D(2,1,3,5)       =        -0.006055	      -0.346928
	 D(2,1,3,15)      =         3.130029	     179.337439
	 D(2,4,10,5)      =        -0.036276	      -2.078438
	 D(2,4,10,11)     =        -3.103625	    -177.824642
	 D(3,1,2,4)       =         0.006079	       0.348315
	 D(3,1,2,14)      =        -3.130060	    -179.339215
	 D(3,5,10,4)      =         0.036291	       2.079313
	 D(3,5,10,11)     =         3.103590	     177.822595
	 D(4,2,1,13)      =         3.138456	     179.820271
	 D(4,10,5,17)     =        -3.110377	    -178.211477
	 D(4,10,11,6)     =         2.948722	     168.949321
	 D(4,10,11,7)     =        -0.113973	      -6.530146
	 D(5,3,1,13)      =        -3.138426	    -179.818571
	 D(5,10,4,16)     =         3.110379	     178.211586
	 D(5,10,11,6)     =        -0.115795	      -6.634564
	 D(5,10,11,7)     =         3.104696	     177.885969
	 D(6,8,12,9)      =         0.006671	       0.382210
	 D(6,11,7,9)      =         0.033942	       1.944707
	 D(6,11,7,19)     =        -3.111368	    -178.268262
	 D(7,9,12,8)      =        -0.007693	      -0.440794
	 D(7,11,6,8)      =        -0.034894	      -1.999272
	 D(7,11,6,18)     =         3.110739	     178.232229
	 D(8,6,11,10)     =        -3.102544	    -177.762657
	 D(8,12,9,21)     =         3.129536	     179.309192
	 D(9,7,11,10)     =         3.101581	     177.707484
	 D(9,12,8,20)     =        -3.126940	    -179.160474
	 D(10,4,2,14)     =        -3.131284	    -179.409351
	 D(10,5,3,15)     =         3.131270	     179.408546
	 D(10,11,6,18)    =         0.043089	       2.468844
	 D(10,11,7,19)    =        -0.043729	      -2.505485
	 D(11,6,8,12)     =         0.015585	       0.892948
	 D(11,6,8,20)     =        -3.134253	    -179.579452
	 D(11,7,9,12)     =        -0.013566	      -0.777298
	 D(11,7,9,21)     =         3.132532	     179.480865
	 D(11,10,4,16)    =         0.043029	       2.465382
	 D(11,10,5,17)    =        -0.043078	      -2.468194
	 D(12,8,6,18)     =        -3.129919	    -179.331145
	 D(12,9,7,19)     =         3.131629	     179.429105
	 D(13,1,2,14)     =         0.002317	       0.132742
	 D(13,1,3,15)     =        -0.002342	      -0.134205
	 D(14,2,4,16)     =         0.005341	       0.306044
	 D(15,3,5,17)     =        -0.005338	      -0.305866
	 D(18,6,8,20)     =         0.003429	       0.196456
	 D(19,7,9,21)     =        -0.005458	      -0.312732

	Current energy   :      -478.5750035809

	Energy change for the previous step:
		Projected    :        -0.2545064059
		Actual       :         0.0002727029

	Performing BFGS update.
	Previous computed or guess Hessian on step 1.
	Steps to be used in Hessian update: 7 6
	Adding user-defined constraint: Fragment 1; Coordinate 71:
		Value =     2.948722; Fixed value    =    -3.141580
		Force =    -4.110954; Force constant =     0.675000
	Removing off-diagonal coupling between coordinate 71 and others.
	Taking RFO optimization step.
	Going to follow RFO solution 1.
	Using RFO vector 1.

	Determining step-restricting scale parameter for RS-RFO.
	Maximum step size allowed    0.10000

	 Iter      |step|        alpha        rfo_root  
	------------------------------------------------
	    0    49.65182       1.00000           1
	    1    22.85261       1.84877           1
	    2     9.63978       3.18137           1
	    3     3.40165       4.83979           1
	    4     0.96630       6.19488           1
	    5     0.42635       6.94030           1
	    6     0.29291       7.93190           1
	    7     0.22895      11.99548           1
	    8     0.16107      28.08071           1
	    9     0.12208      53.22568           1
	   10     0.10474      74.95984           1
	   11     0.10031      82.47250           1
	   12     0.10000      83.03094           1
	------------------------------------------------
	Norm of target step-size    0.10000
	Projected energy change by RFO approximation:        -0.2617497317

	Back-transformation to cartesian coordinates...
	The INTCO_EXCEPTion handler:
	TORS::compute_val: unable to compute torsion value
	Dynamic level is 0.
	exc.g_really_quit() is 0.

  **** Optimization has failed! (in 8 steps) ****
			--------------------------
			 OPTKING Finished Execution 
			--------------------------
	Cleaning optimization helper files.

*** Psi4 exiting successfully. Buy a developer a beer!
