
    -----------------------------------------------------------------------
          Psi4: An Open-Source Ab Initio Electronic Structure Package
                               Psi4 1.1 release

                         Git: Rev {HEAD} add49b9 


    R. M. Parrish, L. A. Burns, D. G. A. Smith, A. C. Simmonett,
    A. E. DePrince III, E. G. Hohenstein, U. Bozkaya, A. Yu. Sokolov,
    R. Di Remigio, R. M. Richard, J. F. Gonthier, A. M. James,
    H. R. McAlexander, A. Kumar, M. Saitow, X. Wang, B. P. Pritchard,
    P. Verma, H. F. Schaefer III, K. Patkowski, R. A. King, E. F. Valeev,
    F. A. Evangelista, J. M. Turney, T. D. Crawford, and C. D. Sherrill,
    J. Chem. Theory Comput. in press (2017).
    (doi: 10.1021/acs.jctc.7b00174)

    -----------------------------------------------------------------------


    Psi4 started on: Saturday, 11 November 2017 06:14PM

    Process ID:  26116
    PSIDATADIR: /cbio/jclab/home/chayas/anaconda/envs/py35/share/psi4
    Memory:     500.0 MiB
    Threads:    8
    
  ==> Input File <==

--------------------------------------------------------------------------

memory 5 Gb

molecule phepyrFOH_anion {
  symmetry C1
  -1 1 
  C      1.885   -1.036   -0.112
  C      0.807   -0.463   0.561
  C      3.856   -2.770   -1.361
  C      5.298   -2.250   0.493
  C      1.800   -1.079   2.676
  C      4.957   -3.324   -1.992
  C      6.335   -2.828   -0.222
  C      2.921   -1.631   0.608
  C      4.038   -2.224   -0.095
  C      0.764   -0.484   1.955
  C      2.878   -1.652   2.002
  N      6.197   -3.368   -1.454
  O      -0.227   0.043   2.574
  F      3.866   -2.220   2.709
  H      1.904   -1.013   -1.200
  H      0.011   -0.007   -0.025
  H      2.888   -2.767   -1.852
  H      5.478   -1.834   1.479
  H      1.791   -1.109   3.764
  H      4.869   -3.761   -2.982
  H      7.336   -2.874   0.192
  units Angstrom
}

dih_string = "1 8 9 3 330"
set optking fixed_dihedral = $dih_string

optimize('MP2/aug-cc-PVTZ')
--------------------------------------------------------------------------

  Memory set to   4.657 GiB by Python driver.
gradient() will perform analytic gradient computation.

*** tstart() called on gpu-2-5.local
*** at Sat Nov 11 18:14:53 2017

    SCF Algorithm Type (re)set to DF.

*** tstart() called on gpu-2-5.local
*** at Sat Nov 11 18:14:53 2017

   => Loading Basis Set <=

    Name: AUG-CC-PVTZ
    Role: ORBITAL
    Keyword: BASIS
    atoms 1-11  entry C          line   221 file /cbio/jclab/home/chayas/anaconda/envs/py35/share/psi4/basis/aug-cc-pvtz.gbs 
    atoms 12    entry N          line   267 file /cbio/jclab/home/chayas/anaconda/envs/py35/share/psi4/basis/aug-cc-pvtz.gbs 
    atoms 13    entry O          line   313 file /cbio/jclab/home/chayas/anaconda/envs/py35/share/psi4/basis/aug-cc-pvtz.gbs 
    atoms 14    entry F          line   359 file /cbio/jclab/home/chayas/anaconda/envs/py35/share/psi4/basis/aug-cc-pvtz.gbs 
    atoms 15-21 entry H          line    34 file /cbio/jclab/home/chayas/anaconda/envs/py35/share/psi4/basis/aug-cc-pvtz.gbs 


         ---------------------------------------------------------
                                   SCF
            by Justin Turney, Rob Parrish, and Andy Simmonett
                              RHF Reference
                        8 Threads,   4768 MiB Core
         ---------------------------------------------------------

  ==> Geometry <==

    Molecular point group: c1
    Full point group: C1

    Geometry (in Angstrom), charge = -1, multiplicity = 1:

       Center              X                  Y                   Z               Mass       
    ------------   -----------------  -----------------  -----------------  -----------------
           C         -1.345657956625     0.766767905711    -0.780989371881    12.000000000000
           C         -2.423657956625     1.339767905711    -0.107989371881    12.000000000000
           C          0.625342043375    -0.967232094289    -2.029989371881    12.000000000000
           C          2.067342043375    -0.447232094289    -0.175989371881    12.000000000000
           C         -1.430657956625     0.723767905711     2.007010628119    12.000000000000
           C          1.726342043375    -1.521232094289    -2.660989371881    12.000000000000
           C          3.104342043375    -1.025232094289    -0.890989371881    12.000000000000
           C         -0.309657956625     0.171767905711    -0.060989371881    12.000000000000
           C          0.807342043375    -0.421232094289    -0.763989371881    12.000000000000
           C         -2.466657956625     1.318767905711     1.286010628119    12.000000000000
           C         -0.352657956625     0.150767905711     1.333010628119    12.000000000000
           N          2.966342043375    -1.565232094289    -2.122989371881    14.003074004780
           O         -3.457657956625     1.845767905711     1.905010628119    15.994914619560
           F          0.635342043375    -0.417232094289     2.040010628119    18.998403224000
           H         -1.326657956625     0.789767905711    -1.868989371881     1.007825032070
           H         -3.219657956625     1.795767905711    -0.693989371881     1.007825032070
           H         -0.342657956625    -0.964232094289    -2.520989371881     1.007825032070
           H          2.247342043375    -0.031232094289     0.810010628119     1.007825032070
           H         -1.439657956625     0.693767905711     3.095010628119     1.007825032070
           H          1.638342043375    -1.958232094289    -3.650989371881     1.007825032070
           H          4.105342043375    -1.071232094289    -0.476989371881     1.007825032070

  Running in c1 symmetry.

  Rotational constants: A =      0.06333  B =      0.01386  C =      0.01161 [cm^-1]
  Rotational constants: A =   1898.65932  B =    415.61258  C =    348.16546 [MHz]
  Nuclear repulsion =  804.153248131324403

  Charge       = -1
  Multiplicity = 1
  Electrons    = 98
  Nalpha       = 49
  Nbeta        = 49

  ==> Algorithm <==

  SCF Algorithm Type is DF.
  DIIS enabled.
  MOM disabled.
  Fractional occupation disabled.
  Guess Type is SAD.
  Energy threshold   = 1.00e-10
  Density threshold  = 1.00e-10
  Integral threshold = 0.00e+00

  ==> Primary Basis <==

  Basis Set: AUG-CC-PVTZ
    Blend: AUG-CC-PVTZ
    Number of shells: 259
    Number of basis function: 805
    Number of Cartesian functions: 945
    Spherical Harmonics?: true
    Max angular momentum: 3

   => Loading Basis Set <=

    Name: (AUG-CC-PVTZ AUX)
    Role: JKFIT
    Keyword: DF_BASIS_SCF
    atoms 1-11  entry C          line   161 file /cbio/jclab/home/chayas/anaconda/envs/py35/share/psi4/basis/aug-cc-pvtz-jkfit.gbs 
    atoms 12    entry N          line   223 file /cbio/jclab/home/chayas/anaconda/envs/py35/share/psi4/basis/aug-cc-pvtz-jkfit.gbs 
    atoms 13    entry O          line   285 file /cbio/jclab/home/chayas/anaconda/envs/py35/share/psi4/basis/aug-cc-pvtz-jkfit.gbs 
    atoms 14    entry F          line   347 file /cbio/jclab/home/chayas/anaconda/envs/py35/share/psi4/basis/aug-cc-pvtz-jkfit.gbs 
    atoms 15-21 entry H          line    69 file /cbio/jclab/home/chayas/anaconda/envs/py35/share/psi4/basis/aug-cc-pvtz-jkfit.gbs 

  ==> Pre-Iterations <==

   -------------------------------------------------------
    Irrep   Nso     Nmo     Nalpha   Nbeta   Ndocc  Nsocc
   -------------------------------------------------------
     A        805     805       0       0       0       0
   -------------------------------------------------------
    Total     805     805      49      49      49       0
   -------------------------------------------------------

  ==> Integral Setup <==

  ==> DFJK: Density-Fitted J/K Matrices <==

    J tasked:                  Yes
    K tasked:                  Yes
    wK tasked:                  No
    OpenMP threads:              8
    Integrals threads:           8
    Memory (MB):              3576
    Algorithm:                Disk
    Integral Cache:           NONE
    Schwarz Cutoff:          1E-12
    Fitting Condition:       1E-12

   => Auxiliary Basis Set <=

  Basis Set: (AUG-CC-PVTZ AUX)
    Blend: AUG-CC-PVTZ-JKFIT
    Number of shells: 518
    Number of basis function: 1778
    Number of Cartesian functions: 2219
    Spherical Harmonics?: true
    Max angular momentum: 4

  Minimum eigenvalue in the overlap matrix is 7.4088438636E-07.
  Using Symmetric Orthogonalization.

  SCF Guess: Superposition of Atomic Densities via on-the-fly atomic UHF.

  ==> Iterations <==

                           Total Energy        Delta E     RMS |[F,P]|

   @DF-RHF iter   0:  -663.73320561219441   -6.63733e+02   1.69567e-02 
   @DF-RHF iter   1:  -649.03317327493005    1.47000e+01   2.01944e-03 
   @DF-RHF iter   2:  -649.37736485172570   -3.44192e-01   1.60389e-03 DIIS
   @DF-RHF iter   3:  -649.58533500567000   -2.07970e-01   4.06233e-04 DIIS
   @DF-RHF iter   4:  -649.60404518420148   -1.87102e-02   1.04293e-04 DIIS
   @DF-RHF iter   5:  -649.60806178422627   -4.01660e-03   4.04846e-05 DIIS
   @DF-RHF iter   6:  -649.60859644378877   -5.34660e-04   2.85850e-05 DIIS
   @DF-RHF iter   7:  -649.60868459009305   -8.81463e-05   1.08630e-05 DIIS
   @DF-RHF iter   8:  -649.60869820128141   -1.36112e-05   2.97861e-06 DIIS
   @DF-RHF iter   9:  -649.60870138703808   -3.18576e-06   1.30845e-06 DIIS
   @DF-RHF iter  10:  -649.60870209760787   -7.10570e-07   8.63445e-07 DIIS
   @DF-RHF iter  11:  -649.60870229218665   -1.94579e-07   1.98204e-07 DIIS
   @DF-RHF iter  12:  -649.60870230597322   -1.37866e-08   1.28944e-07 DIIS
   @DF-RHF iter  13:  -649.60870230824116   -2.26794e-09   4.82848e-08 DIIS
   @DF-RHF iter  14:  -649.60870230874366   -5.02496e-10   1.67918e-08 DIIS
   @DF-RHF iter  15:  -649.60870230885189   -1.08230e-10   1.01190e-08 DIIS
   @DF-RHF iter  16:  -649.60870230886621   -1.43245e-11   4.17979e-09 DIIS
   @DF-RHF iter  17:  -649.60870230885962    6.59384e-12   1.45606e-09 DIIS
   @DF-RHF iter  18:  -649.60870230886508   -5.45697e-12   5.70431e-10 DIIS
   @DF-RHF iter  19:  -649.60870230886042    4.66116e-12   3.06947e-10 DIIS
   @DF-RHF iter  20:  -649.60870230886871   -8.29914e-12   1.41889e-10 DIIS
   @DF-RHF iter  21:  -649.60870230886928   -5.68434e-13   7.41444e-11 DIIS

  ==> Post-Iterations <==

    Orbital Energies (a.u.)
    -----------------------

    Doubly Occupied:                                                      

       1A    -26.192142     2A    -20.306933     3A    -15.449195  
       4A    -11.195226     5A    -11.166804     6A    -11.164562  
       7A    -11.146101     8A    -11.128069     9A    -11.120210  
      10A    -11.115053    11A    -11.112057    12A    -11.086168  
      13A    -11.068604    14A    -11.068163    15A     -1.514123  
      16A     -1.138365    17A     -1.137249    18A     -1.026135  
      19A     -0.964872    20A     -0.922502    21A     -0.877545  
      22A     -0.849724    23A     -0.751046    24A     -0.737720  
      25A     -0.704533    26A     -0.678964    27A     -0.607427  
      28A     -0.591813    29A     -0.581667    30A     -0.568013  
      31A     -0.546258    32A     -0.529224    33A     -0.501049  
      34A     -0.486759    35A     -0.472209    36A     -0.465393  
      37A     -0.432630    38A     -0.416756    39A     -0.409132  
      40A     -0.386954    41A     -0.378336    42A     -0.359526  
      43A     -0.316327    44A     -0.306878    45A     -0.248997  
      46A     -0.240748    47A     -0.225398    48A     -0.204071  
      49A     -0.116669  

    Virtual:                                                              

      50A      0.098851    51A      0.101311    52A      0.115162  
      53A      0.120343    54A      0.125635    55A      0.128519  
      56A      0.133556    57A      0.156528    58A      0.166445  
      59A      0.174675    60A      0.177997    61A      0.183985  
      62A      0.187008    63A      0.188338    64A      0.191987  
      65A      0.197996    66A      0.198785    67A      0.206418  
      68A      0.209829    69A      0.213335    70A      0.214639  
      71A      0.217170    72A      0.221429    73A      0.227471  
      74A      0.230524    75A      0.232867    76A      0.237266  
      77A      0.239146    78A      0.242885    79A      0.247727  
      80A      0.251389    81A      0.259277    82A      0.263350  
      83A      0.266754    84A      0.269056    85A      0.275434  
      86A      0.279363    87A      0.287564    88A      0.293981  
      89A      0.299844    90A      0.314842    91A      0.317187  
      92A      0.318475    93A      0.321944    94A      0.322639  
      95A      0.324559    96A      0.326134    97A      0.332822  
      98A      0.335217    99A      0.337320   100A      0.344197  
     101A      0.347674   102A      0.353571   103A      0.363374  
     104A      0.367336   105A      0.368485   106A      0.377810  
     107A      0.380492   108A      0.384274   109A      0.387488  
     110A      0.388931   111A      0.394338   112A      0.403277  
     113A      0.409714   114A      0.413147   115A      0.416238  
     116A      0.420446   117A      0.422460   118A      0.425491  
     119A      0.430392   120A      0.439376   121A      0.443855  
     122A      0.447028   123A      0.452714   124A      0.456404  
     125A      0.463877   126A      0.472184   127A      0.476517  
     128A      0.479267   129A      0.481168   130A      0.486369  
     131A      0.496441   132A      0.503441   133A      0.510280  
     134A      0.516860   135A      0.518038   136A      0.523451  
     137A      0.533907   138A      0.541213   139A      0.545184  
     140A      0.546251   141A      0.550034   142A      0.555101  
     143A      0.557437   144A      0.561972   145A      0.564143  
     146A      0.571579   147A      0.573607   148A      0.576929  
     149A      0.581784   150A      0.583888   151A      0.584870  
     152A      0.587987   153A      0.597483   154A      0.599963  
     155A      0.601633   156A      0.603186   157A      0.607788  
     158A      0.611716   159A      0.620637   160A      0.621539  
     161A      0.625439   162A      0.628829   163A      0.632121  
     164A      0.633531   165A      0.640062   166A      0.641738  
     167A      0.645584   168A      0.650065   169A      0.654133  
     170A      0.658441   171A      0.662329   172A      0.667668  
     173A      0.678379   174A      0.680985   175A      0.686648  
     176A      0.694135   177A      0.699374   178A      0.701629  
     179A      0.704226   180A      0.711613   181A      0.716386  
     182A      0.724268   183A      0.729714   184A      0.736064  
     185A      0.742599   186A      0.743896   187A      0.751277  
     188A      0.760534   189A      0.767562   190A      0.770503  
     191A      0.791286   192A      0.795230   193A      0.798783  
     194A      0.807168   195A      0.808470   196A      0.813240  
     197A      0.814870   198A      0.821091   199A      0.828244  
     200A      0.837718   201A      0.845394   202A      0.849226  
     203A      0.854714   204A      0.855341   205A      0.859228  
     206A      0.860576   207A      0.871865   208A      0.872402  
     209A      0.878384   210A      0.887253   211A      0.890401  
     212A      0.898702   213A      0.901809   214A      0.917794  
     215A      0.925972   216A      0.933657   217A      0.936803  
     218A      0.942716   219A      0.950542   220A      0.957241  
     221A      0.968557   222A      0.975694   223A      0.982216  
     224A      0.986026   225A      0.987307   226A      0.990920  
     227A      0.999470   228A      1.002529   229A      1.008733  
     230A      1.011747   231A      1.014717   232A      1.017420  
     233A      1.020058   234A      1.025033   235A      1.037649  
     236A      1.041099   237A      1.048846   238A      1.049538  
     239A      1.054537   240A      1.060912   241A      1.064076  
     242A      1.067407   243A      1.075850   244A      1.080667  
     245A      1.083664   246A      1.087571   247A      1.091146  
     248A      1.095425   249A      1.096755   250A      1.107223  
     251A      1.109540   252A      1.116712   253A      1.119969  
     254A      1.123817   255A      1.128021   256A      1.133651  
     257A      1.136614   258A      1.140973   259A      1.144308  
     260A      1.146530   261A      1.149455   262A      1.156027  
     263A      1.161607   264A      1.167567   265A      1.172006  
     266A      1.176938   267A      1.177764   268A      1.190206  
     269A      1.191841   270A      1.194092   271A      1.202028  
     272A      1.207192   273A      1.207801   274A      1.210984  
     275A      1.215209   276A      1.223830   277A      1.227758  
     278A      1.235484   279A      1.239367   280A      1.251434  
     281A      1.257226   282A      1.263425   283A      1.270550  
     284A      1.275861   285A      1.277470   286A      1.282657  
     287A      1.288183   288A      1.296197   289A      1.298008  
     290A      1.299577   291A      1.302579   292A      1.309952  
     293A      1.314861   294A      1.320530   295A      1.323152  
     296A      1.329267   297A      1.332419   298A      1.335036  
     299A      1.339758   300A      1.346489   301A      1.352110  
     302A      1.355361   303A      1.366729   304A      1.378150  
     305A      1.381368   306A      1.387115   307A      1.391757  
     308A      1.392387   309A      1.404263   310A      1.407551  
     311A      1.409815   312A      1.419144   313A      1.430629  
     314A      1.432884   315A      1.443637   316A      1.453801  
     317A      1.460175   318A      1.468014   319A      1.475025  
     320A      1.479640   321A      1.489944   322A      1.494583  
     323A      1.503410   324A      1.509513   325A      1.521221  
     326A      1.525360   327A      1.528354   328A      1.549368  
     329A      1.552589   330A      1.556273   331A      1.568804  
     332A      1.573712   333A      1.586326   334A      1.587388  
     335A      1.605744   336A      1.608877   337A      1.614489  
     338A      1.622876   339A      1.629459   340A      1.637765  
     341A      1.650197   342A      1.653848   343A      1.663070  
     344A      1.669448   345A      1.678421   346A      1.698519  
     347A      1.706389   348A      1.710499   349A      1.714998  
     350A      1.720825   351A      1.730830   352A      1.747445  
     353A      1.750506   354A      1.752109   355A      1.766596  
     356A      1.767678   357A      1.779908   358A      1.792739  
     359A      1.795217   360A      1.801151   361A      1.816044  
     362A      1.821982   363A      1.830132   364A      1.834723  
     365A      1.838516   366A      1.841933   367A      1.843787  
     368A      1.852014   369A      1.863560   370A      1.867102  
     371A      1.876823   372A      1.897862   373A      1.909158  
     374A      1.910168   375A      1.914054   376A      1.927260  
     377A      1.932944   378A      1.935887   379A      1.946025  
     380A      1.956880   381A      1.958650   382A      1.972448  
     383A      1.978563   384A      1.989367   385A      2.003786  
     386A      2.011434   387A      2.015397   388A      2.025249  
     389A      2.036043   390A      2.044918   391A      2.058246  
     392A      2.065393   393A      2.073026   394A      2.076875  
     395A      2.081923   396A      2.090796   397A      2.098000  
     398A      2.101795   399A      2.107950   400A      2.121526  
     401A      2.124711   402A      2.132290   403A      2.137364  
     404A      2.142393   405A      2.150600   406A      2.156627  
     407A      2.162327   408A      2.174188   409A      2.182521  
     410A      2.190104   411A      2.192915   412A      2.199589  
     413A      2.207819   414A      2.215240   415A      2.220394  
     416A      2.227827   417A      2.233272   418A      2.243358  
     419A      2.254178   420A      2.265203   421A      2.275764  
     422A      2.287218   423A      2.292080   424A      2.297494  
     425A      2.308984   426A      2.309632   427A      2.324830  
     428A      2.332325   429A      2.340843   430A      2.346455  
     431A      2.356933   432A      2.363409   433A      2.374468  
     434A      2.375606   435A      2.397951   436A      2.408469  
     437A      2.417129   438A      2.428239   439A      2.437432  
     440A      2.452876   441A      2.458215   442A      2.467006  
     443A      2.481975   444A      2.486200   445A      2.487956  
     446A      2.498254   447A      2.504144   448A      2.519029  
     449A      2.528695   450A      2.532451   451A      2.550709  
     452A      2.563888   453A      2.585723   454A      2.588734  
     455A      2.594446   456A      2.602235   457A      2.624067  
     458A      2.633590   459A      2.637808   460A      2.651665  
     461A      2.673103   462A      2.681411   463A      2.688913  
     464A      2.698732   465A      2.705971   466A      2.712120  
     467A      2.717476   468A      2.732022   469A      2.758607  
     470A      2.772361   471A      2.775880   472A      2.808713  
     473A      2.815676   474A      2.824550   475A      2.854199  
     476A      2.865245   477A      2.885038   478A      2.890182  
     479A      2.910176   480A      2.915868   481A      2.931000  
     482A      2.956406   483A      2.958752   484A      2.980356  
     485A      2.999391   486A      3.021649   487A      3.031089  
     488A      3.044593   489A      3.084588   490A      3.099686  
     491A      3.102416   492A      3.125204   493A      3.146775  
     494A      3.158251   495A      3.172531   496A      3.193633  
     497A      3.212364   498A      3.219530   499A      3.243382  
     500A      3.257401   501A      3.274428   502A      3.296039  
     503A      3.308606   504A      3.318185   505A      3.324813  
     506A      3.333086   507A      3.352143   508A      3.365033  
     509A      3.375625   510A      3.397057   511A      3.410589  
     512A      3.430612   513A      3.443187   514A      3.451492  
     515A      3.457623   516A      3.466858   517A      3.473796  
     518A      3.489698   519A      3.491756   520A      3.512838  
     521A      3.518275   522A      3.524193   523A      3.531883  
     524A      3.542979   525A      3.554217   526A      3.563697  
     527A      3.571078   528A      3.583602   529A      3.593421  
     530A      3.609780   531A      3.618257   532A      3.620348  
     533A      3.634542   534A      3.636323   535A      3.642192  
     536A      3.651030   537A      3.664702   538A      3.673535  
     539A      3.681268   540A      3.692997   541A      3.698443  
     542A      3.699026   543A      3.708982   544A      3.715605  
     545A      3.734012   546A      3.742525   547A      3.747251  
     548A      3.757277   549A      3.768197   550A      3.783637  
     551A      3.789030   552A      3.792689   553A      3.802776  
     554A      3.809534   555A      3.817159   556A      3.822127  
     557A      3.832829   558A      3.838491   559A      3.860454  
     560A      3.872868   561A      3.880574   562A      3.892308  
     563A      3.912928   564A      3.915615   565A      3.919267  
     566A      3.923194   567A      3.934073   568A      3.943009  
     569A      3.947627   570A      3.950654   571A      3.952758  
     572A      3.972804   573A      3.989406   574A      3.990530  
     575A      4.002235   576A      4.012038   577A      4.020993  
     578A      4.035287   579A      4.037854   580A      4.050249  
     581A      4.054303   582A      4.063543   583A      4.068956  
     584A      4.071370   585A      4.088277   586A      4.096172  
     587A      4.102884   588A      4.110614   589A      4.123739  
     590A      4.126244   591A      4.137566   592A      4.141894  
     593A      4.150231   594A      4.153203   595A      4.163431  
     596A      4.182283   597A      4.186934   598A      4.194582  
     599A      4.199023   600A      4.216426   601A      4.225771  
     602A      4.233377   603A      4.245611   604A      4.253398  
     605A      4.262396   606A      4.264751   607A      4.280951  
     608A      4.309415   609A      4.310586   610A      4.333563  
     611A      4.336805   612A      4.345631   613A      4.354716  
     614A      4.357420   615A      4.360881   616A      4.375854  
     617A      4.379405   618A      4.403446   619A      4.415040  
     620A      4.421268   621A      4.428649   622A      4.438847  
     623A      4.443396   624A      4.457473   625A      4.460055  
     626A      4.468285   627A      4.481278   628A      4.486831  
     629A      4.498869   630A      4.504303   631A      4.509593  
     632A      4.519827   633A      4.529294   634A      4.538579  
     635A      4.544366   636A      4.551405   637A      4.557495  
     638A      4.572248   639A      4.586711   640A      4.593644  
     641A      4.610314   642A      4.625543   643A      4.632405  
     644A      4.645131   645A      4.647445   646A      4.664324  
     647A      4.675845   648A      4.683261   649A      4.720158  
     650A      4.723925   651A      4.729275   652A      4.751668  
     653A      4.760510   654A      4.774838   655A      4.777575  
     656A      4.787819   657A      4.805571   658A      4.827091  
     659A      4.835382   660A      4.849010   661A      4.870888  
     662A      4.879420   663A      4.902126   664A      4.922741  
     665A      4.927311   666A      4.932080   667A      4.940904  
     668A      4.979627   669A      4.989263   670A      4.998914  
     671A      5.005417   672A      5.026255   673A      5.034807  
     674A      5.056624   675A      5.068832   676A      5.085879  
     677A      5.092841   678A      5.104176   679A      5.122561  
     680A      5.124514   681A      5.137922   682A      5.156098  
     683A      5.168063   684A      5.178349   685A      5.189810  
     686A      5.199645   687A      5.217941   688A      5.234785  
     689A      5.247927   690A      5.264168   691A      5.269758  
     692A      5.278830   693A      5.286007   694A      5.293601  
     695A      5.311680   696A      5.314717   697A      5.331272  
     698A      5.343235   699A      5.356180   700A      5.371072  
     701A      5.377845   702A      5.392691   703A      5.412280  
     704A      5.437493   705A      5.450650   706A      5.468612  
     707A      5.473895   708A      5.500138   709A      5.521086  
     710A      5.525337   711A      5.552393   712A      5.559000  
     713A      5.576736   714A      5.600026   715A      5.620202  
     716A      5.651184   717A      5.663364   718A      5.680669  
     719A      5.710310   720A      5.721467   721A      5.742976  
     722A      5.780918   723A      5.811334   724A      5.816769  
     725A      5.857395   726A      5.867290   727A      5.901639  
     728A      5.917841   729A      5.939811   730A      5.949328  
     731A      5.964318   732A      5.983480   733A      5.993402  
     734A      6.019489   735A      6.051008   736A      6.101235  
     737A      6.126205   738A      6.196261   739A      6.198076  
     740A      6.266036   741A      6.315887   742A      6.335431  
     743A      6.361686   744A      6.382412   745A      6.423305  
     746A      6.443370   747A      6.538482   748A      6.555284  
     749A      6.591920   750A      6.610404   751A      6.626772  
     752A      6.676749   753A      6.731220   754A      6.802798  
     755A      6.821648   756A      6.832357   757A      6.849285  
     758A      6.891420   759A      6.897840   760A      6.981586  
     761A      6.997190   762A      7.021854   763A      7.058214  
     764A      7.088962   765A      7.176551   766A      7.181768  
     767A      7.202808   768A      7.295706   769A      7.332851  
     770A      7.350546   771A      7.543151   772A      7.599525  
     773A      7.605587   774A      7.638087   775A      7.917136  
     776A      7.929657   777A      8.015565   778A      8.136406  
     779A      8.210945   780A      9.235974   781A      9.258473  
     782A      9.409205   783A      9.427764   784A      9.558244  
     785A      9.660782   786A      9.694983   787A      9.754118  
     788A      9.797727   789A      9.866214   790A     10.181166  
     791A     10.244243   792A     15.678749   793A     16.014286  
     794A     16.445406   795A     16.828861   796A     16.924272  
     797A     17.014764   798A     18.585378   799A     18.980617  
     800A     19.444178   801A     19.983258   802A     20.293087  
     803A     20.438513   804A     20.772644   805A     21.769451  

    Final Occupation by Irrep:
              A 
    DOCC [    49 ]

  Energy converged.

  @DF-RHF Final Energy:  -649.60870230886928

   => Energetics <=

    Nuclear Repulsion Energy =            804.1532481313244034
    One-Electron Energy =               -2497.4952965526886146
    Two-Electron Energy =                1043.7333461124949281
    DFT Exchange-Correlation Energy =       0.0000000000000000
    Empirical Dispersion Energy =           0.0000000000000000
    PCM Polarization Energy =               0.0000000000000000
    EFP Energy =                            0.0000000000000000
    Total Energy =                       -649.6087023088693968



Properties will be evaluated at   0.000000,   0.000000,   0.000000 Bohr

Properties computed using the SCF density matrix

  Nuclear Dipole Moment: (a.u.)
     X:     0.9339      Y:    -0.2920      Z:    -6.8842

  Electronic Dipole Moment: (a.u.)
     X:     1.5253      Y:    -1.0011      Z:     5.2812

  Dipole Moment: (a.u.)
     X:     2.4592      Y:    -1.2931      Z:    -1.6030     Total:     3.2077

  Dipole Moment: (Debye)
     X:     6.2506      Y:    -3.2868      Z:    -4.0745     Total:     8.1532


*** tstop() called on gpu-2-5.local at Sat Nov 11 18:22:51 2017
Module time:
	user time   =    1162.47 seconds =      19.37 minutes
	system time =      60.06 seconds =       1.00 minutes
	total time  =        478 seconds =       7.97 minutes
Total time:
	user time   =    1162.48 seconds =      19.37 minutes
	system time =      60.06 seconds =       1.00 minutes
	total time  =        478 seconds =       7.97 minutes

  //>>>>>>>>>>>>>>>>>>>>>>>>>>>>>>>>>>>//
  //               DFMP2               //
  //<<<<<<<<<<<<<<<<<<<<<<<<<<<<<<<<<<<//

   => Loading Basis Set <=

    Name: (AUG-CC-PVTZ AUX)
    Role: RIFIT
    Keyword: DF_BASIS_MP2
    atoms 1-11  entry C          line   147 file /cbio/jclab/home/chayas/anaconda/envs/py35/share/psi4/basis/aug-cc-pvtz-ri.gbs 
    atoms 12    entry N          line   205 file /cbio/jclab/home/chayas/anaconda/envs/py35/share/psi4/basis/aug-cc-pvtz-ri.gbs 
    atoms 13    entry O          line   263 file /cbio/jclab/home/chayas/anaconda/envs/py35/share/psi4/basis/aug-cc-pvtz-ri.gbs 
    atoms 14    entry F          line   321 file /cbio/jclab/home/chayas/anaconda/envs/py35/share/psi4/basis/aug-cc-pvtz-ri.gbs 
    atoms 15-21 entry H          line    29 file /cbio/jclab/home/chayas/anaconda/envs/py35/share/psi4/basis/aug-cc-pvtz-ri.gbs 

	 --------------------------------------------------------
	                          DF-MP2                         
	      2nd-Order Density-Fitted Moller-Plesset Theory     
	              RMP2 Wavefunction,   8 Threads             
	                                                         
	        Rob Parrish, Justin Turney, Andy Simmonett,      
	           Ed Hohenstein, and C. David Sherrill          
	 --------------------------------------------------------

   => Auxiliary Basis Set <=

  Basis Set: (AUG-CC-PVTZ AUX)
    Blend: AUG-CC-PVTZ-RI
    Number of shells: 490
    Number of basis function: 1806
    Number of Cartesian functions: 2289
    Spherical Harmonics?: true
    Max angular momentum: 4

	 --------------------------------------------------------
	                 NBF =   805, NAUX =  1806
	 --------------------------------------------------------
	   CLASS    FOCC     OCC    AOCC    AVIR     VIR    FVIR
	   PAIRS       0      49      49     756     756       0
	 --------------------------------------------------------


         ------------------------------------------------------------
                                     CPHF                           
                                  Rob Parrish                       
         ------------------------------------------------------------

  ==> Geometry <==

    Molecular point group: c1
    Full point group: C1

    Geometry (in Angstrom), charge = -1, multiplicity = 1:

       Center              X                  Y                   Z               Mass       
    ------------   -----------------  -----------------  -----------------  -----------------
           C         -1.345657956625     0.766767905711    -0.780989371881    12.000000000000
           C         -2.423657956625     1.339767905711    -0.107989371881    12.000000000000
           C          0.625342043375    -0.967232094289    -2.029989371881    12.000000000000
           C          2.067342043375    -0.447232094289    -0.175989371881    12.000000000000
           C         -1.430657956625     0.723767905711     2.007010628119    12.000000000000
           C          1.726342043375    -1.521232094289    -2.660989371881    12.000000000000
           C          3.104342043375    -1.025232094289    -0.890989371881    12.000000000000
           C         -0.309657956625     0.171767905711    -0.060989371881    12.000000000000
           C          0.807342043375    -0.421232094289    -0.763989371881    12.000000000000
           C         -2.466657956625     1.318767905711     1.286010628119    12.000000000000
           C         -0.352657956625     0.150767905711     1.333010628119    12.000000000000
           N          2.966342043375    -1.565232094289    -2.122989371881    14.003074004780
           O         -3.457657956625     1.845767905711     1.905010628119    15.994914619560
           F          0.635342043375    -0.417232094289     2.040010628119    18.998403224000
           H         -1.326657956625     0.789767905711    -1.868989371881     1.007825032070
           H         -3.219657956625     1.795767905711    -0.693989371881     1.007825032070
           H         -0.342657956625    -0.964232094289    -2.520989371881     1.007825032070
           H          2.247342043375    -0.031232094289     0.810010628119     1.007825032070
           H         -1.439657956625     0.693767905711     3.095010628119     1.007825032070
           H          1.638342043375    -1.958232094289    -3.650989371881     1.007825032070
           H          4.105342043375    -1.071232094289    -0.476989371881     1.007825032070

  Nuclear repulsion =  804.153248131324403
  Reference energy  = -649.608702308869283

  ==> Basis Set <==

  Basis Set: AUG-CC-PVTZ
    Blend: AUG-CC-PVTZ
    Number of shells: 259
    Number of basis function: 805
    Number of Cartesian functions: 945
    Spherical Harmonics?: true
    Max angular momentum: 3

  ==> CGRSolver (by Rob Parrish) <==

   Number of roots    =         1
   Preconditioning    =    JACOBI
   Convergence cutoff =     1E-06
   Maximum iterations =       100

  ==> CPHFRHamiltonian (by Rob Parrish) <== 

  ==> DFJK: Density-Fitted J/K Matrices <==

    J tasked:                  Yes
    K tasked:                  Yes
    wK tasked:                  No
    OpenMP threads:              8
    Integrals threads:           8
    Memory (MB):              3576
    Algorithm:                Disk
    Integral Cache:           NONE
    Schwarz Cutoff:          1E-12
    Fitting Condition:       1E-12

   => Auxiliary Basis Set <=

  Basis Set: (AUG-CC-PVTZ AUX)
    Blend: AUG-CC-PVTZ-JKFIT
    Number of shells: 518
    Number of basis function: 1778
    Number of Cartesian functions: 2219
    Spherical Harmonics?: true
    Max angular momentum: 4

  ==> CPHF Iterations <==

  => Iterations <=

             Iter  Converged  Remaining    Residual
  CGR           1          0          1   1.339E-01
  CGR           2          0          1   4.989E-02
  CGR           3          0          1   2.983E-02
  CGR           4          0          1   1.119E-02
  CGR           5          0          1   5.271E-03
  CGR           6          0          1   2.672E-03
  CGR           7          0          1   1.043E-03
  CGR           8          0          1   3.982E-04
  CGR           9          0          1   1.290E-04
  CGR          10          0          1   3.720E-05
  CGR          11          0          1   1.397E-05
  CGR          12          0          1   3.329E-06
  CGR          13          0          1   1.205E-06
  CGR          14          1          0   5.322E-07

    CGRSolver converged.

  ==> DFCorrGrad: Density-Fitted Correlated Gradients <==

    OpenMP threads:              8
    Integrals threads:           8
    Memory (MB):              3576
    Schwarz Cutoff:          0E+00
    Fitting Condition:       1E-12

   => Auxiliary Basis Set <=

  Basis Set: (AUG-CC-PVTZ AUX)
    Blend: AUG-CC-PVTZ-JKFIT
    Number of shells: 518
    Number of basis function: 1778
    Number of Cartesian functions: 2219
    Spherical Harmonics?: true
    Max angular momentum: 4

	-----------------------------------------------------------
	 ==================> DF-MP2 Energies <==================== 
	-----------------------------------------------------------
	 Reference Energy          =    -649.6087023088692831 [Eh]
	 Singles Energy            =      -0.0000000000000001 [Eh]
	 Same-Spin Energy          =      -0.6868860796861267 [Eh]
	 Opposite-Spin Energy      =      -2.0271620379919897 [Eh]
	 Correlation Energy        =      -2.7140481176781162 [Eh]
	 Total Energy              =    -652.3227504265473726 [Eh]
	-----------------------------------------------------------
	 ================> DF-SCS-MP2 Energies <================== 
	-----------------------------------------------------------
	 SCS Same-Spin Scale       =       0.3333333333333333 [-]
	 SCS Opposite-Spin Scale   =       1.2000000000000000 [-]
	 SCS Same-Spin Energy      =      -0.2289620265620422 [Eh]
	 SCS Opposite-Spin Energy  =      -2.4325944455903876 [Eh]
	 SCS Correlation Energy    =      -2.6615564721524301 [Eh]
	 SCS Total Energy          =    -652.2702587810217665 [Eh]
	-----------------------------------------------------------


  -Total Gradient:
     Atom            X                  Y                   Z
    ------   -----------------  -----------------  -----------------
       1        0.023666297876    -0.008071194796    -0.012706567501
       2       -0.023003347080     0.011534987559     0.042189425736
       3       -0.013907697750     0.004431926449     0.008148577854
       4       -0.017042881977     0.007780294424     0.008645035818
       5       -0.045085657719     0.025120595545    -0.002003612185
       6       -0.010486501688    -0.000301283839    -0.001789772221
       7        0.002008171982     0.004486282324     0.009680619042
       8       -0.024050790948     0.012541979145     0.009683819738
       9        0.020718287724    -0.010101830924    -0.014162541182
      10        0.048976837740    -0.025393380147    -0.030099492954
      11        0.042122653784    -0.028530706421     0.000778731059
      12        0.007486669936    -0.003144521317    -0.004477668499
      13       -0.003501332121     0.001677860956     0.001024869377
      14       -0.005222004544     0.008113656017    -0.010367704216
      15       -0.003071602307     0.000005017913    -0.005791801648
      16       -0.002324621606     0.000728606474    -0.008924944350
      17       -0.003978146931     0.001006865532    -0.004392326822
      18        0.000805328654     0.001417284269     0.009400159710
      19        0.003963450694    -0.001888361377     0.007080993584
      20        0.000677980503    -0.000696651468    -0.001986762421
      21        0.001248905780    -0.000717426324     0.000070962092


*** tstop() called on gpu-2-5.local at Sat Nov 11 18:55:56 2017
Module time:
	user time   =    5339.03 seconds =      88.98 minutes
	system time =     126.20 seconds =       2.10 minutes
	total time  =       2463 seconds =      41.05 minutes
Total time:
	user time   =    5339.04 seconds =      88.98 minutes
	system time =     126.20 seconds =       2.10 minutes
	total time  =       2463 seconds =      41.05 minutes

			-----------------------------------------
			 OPTKING 2.0: for geometry optimizations 
			  - R.A. King,  Bethel University        
			-----------------------------------------

	Internal coordinates to be generated automatically.
	Detected frag 1 with atoms:  1 2 3 4 5 6 7 8 9 10 11 12 13 14 15 16 17 18 19 20
	 21
	---Fragment 1 Bond Connectivity---
	 1 : 2 8 15
	 2 : 1 10 16
	 3 : 6 9 17
	 4 : 7 9 18
	 5 : 10 11 19
	 6 : 3 12 20
	 7 : 4 12 21
	 8 : 1 9 11
	 9 : 3 4 8
	 10 : 2 5 13
	 11 : 5 8 14
	 12 : 6 7
	 13 : 10
	 14 : 11
	 15 : 1
	 16 : 2
	 17 : 3
	 18 : 4
	 19 : 5
	 20 : 6
	 21 : 7

	Assuming in current code that numbering for constraints corresponds to unified fragment.
	Fixed dihedral atom list: 
	     1     8     9     3
	---Fragment 1 Geometry and Gradient---
	 C          -2.5429250066        1.4489813493       -1.4758560256
	 C          -4.5800497778        2.5317944234       -0.2040703381
	 C           1.1817252014       -1.8278037651       -3.8361239655
	 C           3.9067102850       -0.8451461760       -0.3325717152
	 C          -2.7035517279        1.3677231256        3.7927004329
	 C           3.2623136737       -2.8747120428       -5.0285411554
	 C           5.8663562848       -1.9374078809       -1.6837259002
	 C          -0.5851687329        0.3245943002       -0.1152532099
	 C           1.5256553575       -0.7960132966       -1.4437306813
	 C          -4.6613080015        2.4921101746        2.4302078911
	 C          -0.6664269566        0.2849100514        2.5190250194
	 N           5.6055740784       -2.9578599926       -4.0118684959
	 O          -6.5340265992        3.4879958467        3.5999483674
	 F           1.2006224627       -0.7884543921        3.8550613953
	 H          -2.5070202100        1.4924450503       -3.5318780581
	 H          -6.0842717796        3.3935095400       -1.3114498520
	 H          -0.6475296953       -1.8221345867       -4.7639794968
	 H           4.2468609889       -0.0590201048        1.5306982519
	 H          -2.7205592631        1.3110313416        5.8487224655
	 H           3.0960177740       -3.7005223628       -6.8993700269
	 H           7.7579721438       -2.0243352830       -0.9013792812
	             0.0236662979       -0.0080711948       -0.0127065675
	            -0.0230033471        0.0115349876        0.0421894257
	            -0.0139076977        0.0044319264        0.0081485779
	            -0.0170428820        0.0077802944        0.0086450358
	            -0.0450856577        0.0251205955       -0.0020036122
	            -0.0104865017       -0.0003012838       -0.0017897722
	             0.0020081720        0.0044862823        0.0096806190
	            -0.0240507909        0.0125419791        0.0096838197
	             0.0207182877       -0.0101018309       -0.0141625412
	             0.0489768377       -0.0253933801       -0.0300994930
	             0.0421226538       -0.0285307064        0.0007787311
	             0.0074866699       -0.0031445213       -0.0044776685
	            -0.0035013321        0.0016778610        0.0010248694
	            -0.0052220045        0.0081136560       -0.0103677042
	            -0.0030716023        0.0000050179       -0.0057918016
	            -0.0023246216        0.0007286065       -0.0089249444
	            -0.0039781469        0.0010068655       -0.0043923268
	             0.0008053287        0.0014172843        0.0094001597
	             0.0039634507       -0.0018883614        0.0070809936
	             0.0006779805       -0.0006966515       -0.0019867624
	             0.0012489058       -0.0007174263        0.0000709621

	Previous optimization step data not found.  Starting new optimization.

	---Fragment 1 Intrafragment Coordinates---
	 - Coordinate -           - BOHR/RAD -       - ANG/DEG -
	 R(1,2)           =         2.634350	       1.394038
	 R(1,8)           =         2.635962	       1.394891
	 R(1,15)          =         2.056795	       1.088409
	 R(2,10)          =         2.635830	       1.394821
	 R(2,16)          =         2.057067	       1.088553
	 R(3,6)           =         2.616625	       1.384658
	 R(3,9)           =         2.628008	       1.390682
	 R(3,17)          =         2.051127	       1.085410
	 R(4,7)           =         2.618944	       1.385885
	 R(4,9)           =         2.628024	       1.390690
	 R(4,18)          =         2.050725	       1.085197
	 R(5,10)          =         2.636938	       1.395407
	 R(5,11)          =         2.635263	       1.394521
	 R(5,19)          =         2.056874	       1.088451
	 R(6,12)          =         2.555662	       1.352398
	 R(6,20)          =         2.051735	       1.085732
	 R(7,12)          =         2.555304	       1.352209
	 R(7,21)          =         2.048861	       1.084211
	 R(8,9)           =         2.734263	       1.446909
	 R(8,11)          =         2.635830	       1.394821
	 R(10,13)         =         2.422221	       1.281784
	 R(11,14)         =         2.534359	       1.341125
	 B(1,2,10)        =         2.094553	     120.009056
	 B(1,2,16)        =         2.068903	     118.539404
	 B(1,8,9)         =         2.091392	     119.827938
	 B(1,8,11)        =         2.093692	     119.959722
	 B(2,1,8)         =         2.094940	     120.031219
	 B(2,1,15)        =         2.079908	     119.169966
	 B(2,10,5)        =         2.094306	     119.994870
	 B(2,10,13)       =         2.094719	     120.018581
	 B(3,6,12)        =         2.166135	     124.110368
	 B(3,6,20)        =         2.108444	     120.804955
	 B(3,9,4)         =         2.089940	     119.744722
	 B(3,9,8)         =         2.096914	     120.144335
	 B(4,7,12)        =         2.165472	     124.072431
	 B(4,7,21)        =         2.107756	     120.765541
	 B(4,9,8)         =         2.096331	     120.110943
	 B(5,10,13)       =         2.094160	     119.986548
	 B(5,11,8)        =         2.095181	     120.045019
	 B(5,11,14)       =         2.081414	     119.256220
	 B(6,3,9)         =         2.057681	     117.896415
	 B(6,3,17)        =         2.099125	     120.271028
	 B(6,12,7)        =         2.029770	     116.297242
	 B(7,4,9)         =         2.057373	     117.878788
	 B(7,4,18)        =         2.099623	     120.299538
	 B(8,1,15)        =         2.108336	     120.798746
	 B(8,11,14)       =         2.106591	     120.698759
	 B(9,3,17)        =         2.126377	     121.832413
	 B(9,4,18)        =         2.126189	     121.821652
	 B(9,8,11)        =         2.098101	     120.212327
	 B(10,2,16)       =         2.119728	     121.451467
	 B(10,5,11)       =         2.093699	     119.960108
	 B(10,5,19)       =         2.120101	     121.472852
	 B(11,5,19)       =         2.069385	     118.567038
	 B(12,6,20)       =         2.008605	     115.084600
	 B(12,7,21)       =         2.009956	     115.161992
	 D(1,2,10,5)      =        -0.000325	      -0.018609
	 D(1,2,10,13)     =         3.141392	     179.988520
	 D(1,8,9,3)       =        -0.524375	     -30.044483
	 D(1,8,9,4)       =         2.617156	     149.951983
	 D(1,8,11,5)      =         0.000325	       0.018608
	 D(1,8,11,14)     =        -3.141528	    -179.996269
	 D(2,1,8,9)       =        -3.141211	    -179.978157
	 D(2,1,8,11)      =        -0.000348	      -0.019945
	 D(2,10,5,11)     =         0.000301	       0.017261
	 D(2,10,5,19)     =        -3.141543	    -179.997173
	 D(3,6,12,7)      =        -0.000368	      -0.021065
	 D(3,9,4,7)       =         0.001064	       0.060949
	 D(3,9,4,18)      =        -3.141455	    -179.992122
	 D(3,9,8,11)      =         2.617949	     149.997412
	 D(4,7,12,6)      =         0.000267	       0.015295
	 D(4,9,3,6)       =        -0.001154	      -0.066116
	 D(4,9,3,17)      =        -3.140340	    -179.928253
	 D(4,9,8,11)      =        -0.523706	     -30.006123
	 D(5,10,2,16)     =         3.139529	     179.881752
	 D(5,11,8,9)      =         3.141185	     179.976658
	 D(6,3,9,8)       =         3.140377	     179.930363
	 D(6,12,7,21)     =         3.140652	     179.946099
	 D(7,4,9,8)       =        -3.140467	    -179.935531
	 D(7,12,6,20)     =         3.139466	     179.878179
	 D(8,1,2,10)      =         0.000348	       0.019955
	 D(8,1,2,16)      =        -3.139556	    -179.883288
	 D(8,9,3,17)      =         0.001191	       0.068226
	 D(8,9,4,18)      =         0.000199	       0.011398
	 D(8,11,5,10)     =        -0.000301	      -0.017270
	 D(8,11,5,19)     =         3.141536	     179.996748
	 D(9,3,6,12)      =         0.000822	       0.047086
	 D(9,3,6,20)      =        -3.138917	    -179.846671
	 D(9,4,7,12)      =        -0.000627	      -0.035944
	 D(9,4,7,21)      =        -3.140948	    -179.963057
	 D(9,8,1,15)      =         0.002066	       0.118384
	 D(9,8,11,14)     =        -0.000667	      -0.038219
	 D(10,2,1,15)     =         3.140283	     179.924984
	 D(10,5,11,14)    =         3.141547	     179.997392
	 D(11,5,10,13)    =        -3.141416	    -179.989865
	 D(11,8,1,15)     =        -3.140256	    -179.923403
	 D(12,6,3,17)     =         3.140047	     179.911467
	 D(12,7,4,18)     =        -3.141308	    -179.983716
	 D(13,10,2,16)    =        -0.001939	      -0.111119
	 D(13,10,5,19)    =        -0.000075	      -0.004300
	 D(14,11,5,19)    =         0.000199	       0.011410
	 D(15,1,2,16)     =         0.000379	       0.021741
	 D(17,3,6,20)     =         0.000309	       0.017709
	 D(18,4,7,21)     =         0.001556	       0.089172
	 R(4,14)          =         4.986221	       2.638594

	Current energy   :      -652.3227504265

	Generating empirical Hessian (Schlegel '84) for each fragment.
	Adding user-defined constraint: Fragment 1; Coordinate 59:
		Value =    -0.524375; Fixed value    =    -0.523599
		Force =     0.000388; Force constant =     0.500000
	Removing off-diagonal coupling between coordinate 59 and others.
	Taking RFO optimization step.
	Going to follow RFO solution 1.
	Using RFO vector 1.

	Determining step-restricting scale parameter for RS-RFO.
	Maximum step size allowed    0.10000

	 Iter      |step|        alpha        rfo_root  
	------------------------------------------------
	    0     0.32161       1.00000           1
	    1     0.22922       4.38027           1
	    2     0.16539      14.19094           1
	    3     0.12578      32.40540           1
	    4     0.10641      51.12767           1
	    5     0.10057      59.27610           1
	    6     0.10001      60.15336           1
	------------------------------------------------
	Norm of target step-size    0.10001
	Projected energy change by RFO approximation:        -0.0074083629

	Back-transformation to cartesian coordinates...
	Could not converge backtransformation.
	Using first guess instead.

	--- Internal Coordinate Step in ANG or DEG, aJ/ANG or AJ/DEG ---
	 ---------------------------------------------------------------------------
	   Coordinate                Previous        Force       Change         New 
	   ----------                --------       ------       ------       ------
	    1 R(1,2)          =      1.394038    -0.076639    -0.005311     1.388727
	    2 R(1,8)          =      1.394891     0.057124     0.003904     1.398795
	    3 R(1,15)         =      1.088409    -0.047257    -0.003778     1.084631
	    4 R(2,10)         =      1.394821     0.220700     0.015828     1.410649
	    5 R(2,16)         =      1.088553    -0.056101    -0.004480     1.084073
	    6 R(3,6)          =      1.384658    -0.001466    -0.000117     1.384541
	    7 R(3,9)          =      1.390682     0.049024     0.003830     1.394512
	    8 R(3,17)         =      1.085410    -0.045623    -0.003605     1.081805
	    9 R(4,7)          =      1.385885    -0.001276    -0.000082     1.385803
	   10 R(4,9)          =      1.390690     0.059558     0.004473     1.395163
	   11 R(4,18)         =      1.085197    -0.075942    -0.006024     1.079173
	   12 R(5,10)         =      1.395407     0.199839     0.014519     1.409926
	   13 R(5,11)         =      1.394521    -0.133710    -0.009293     1.385228
	   14 R(5,19)         =      1.088451    -0.058474    -0.004633     1.083818
	   15 R(6,12)         =      1.352398    -0.108794    -0.007222     1.345176
	   16 R(6,20)         =      1.085732    -0.016783    -0.001335     1.084397
	   17 R(7,12)         =      1.352209    -0.099676    -0.006598     1.345610
	   18 R(7,21)         =      1.084211    -0.009973    -0.000785     1.083426
	   19 R(8,9)          =      1.446909     0.063395     0.004966     1.451875
	   20 R(8,11)         =      1.394821    -0.004754    -0.000417     1.394404
	   21 R(10,13)        =      1.281784    -0.032063    -0.001728     1.280056
	   22 R(11,14)        =      1.341125     0.101984     0.006470     1.347596
	   23 B(1,2,10)       =    120.009056     0.000576     0.675190   120.684246
	   24 B(1,2,16)       =    118.539404     0.000199     0.257599   118.797003
	   25 B(1,8,9)        =    119.827938     0.000947     1.032563   120.860501
	   26 B(1,8,11)       =    119.959722    -0.001262    -1.449374   118.510348
	   27 B(2,1,8)        =    120.031219     0.000764     0.816868   120.848087
	   28 B(2,1,15)       =    119.169966    -0.000169    -0.148366   119.021600
	   29 B(2,10,5)       =    119.994870    -0.001817    -1.863972   118.130898
	   30 B(2,10,13)      =    120.018581     0.000998     1.030166   121.048747
	   31 B(3,6,12)       =    124.110368     0.000164     0.140192   124.250560
	   32 B(3,6,20)       =    120.804955    -0.000144    -0.145854   120.659101
	   33 B(3,9,4)        =    119.744722    -0.001517    -1.571066   118.173656
	   34 B(3,9,8)        =    120.144335     0.000745     0.753507   120.897842
	   35 B(4,7,12)       =    124.072431     0.000300     0.299728   124.372159
	   36 B(4,7,21)       =    120.765541    -0.000202    -0.213795   120.551745
	   37 B(4,9,8)        =    120.110943     0.000772     0.817555   120.928498
	   38 B(5,10,13)      =    119.986548     0.000819     0.833806   120.820354
	   39 B(5,11,8)       =    120.045019     0.001338     1.371136   121.416155
	   40 B(5,11,14)      =    119.256220    -0.000186    -0.192218   119.064002
	   41 B(6,3,9)        =    117.896415     0.000702     0.810518   118.706933
	   42 B(6,3,17)       =    120.271028    -0.000241    -0.272040   119.998988
	   43 B(6,12,7)       =    116.297242    -0.000179    -0.304163   115.993079
	   44 B(7,4,9)        =    117.878788     0.000531     0.624770   118.503558
	   45 B(7,4,18)       =    120.299538    -0.000282    -0.335705   119.963833
	   46 B(8,1,15)       =    120.798746    -0.000595    -0.668452   120.130294
	   47 B(8,11,14)      =    120.698759    -0.001152    -1.179274   119.519485
	   48 B(9,3,17)       =    121.832413    -0.000462    -0.538345   121.294068
	   49 B(9,4,18)       =    121.821652    -0.000248    -0.289391   121.532261
	   50 B(9,8,11)       =    120.212327     0.000315     0.416824   120.629151
	   51 B(10,2,16)      =    121.451467    -0.000775    -0.932762   120.518705
	   52 B(10,5,11)      =    119.960108     0.000401     0.450091   120.410200
	   53 B(10,5,19)      =    121.472852    -0.000540    -0.636545   120.836307
	   54 B(11,5,19)      =    118.567038     0.000139     0.186455   118.753493
	   55 B(12,6,20)      =    115.084600    -0.000020     0.005737   115.090337
	   56 B(12,7,21)      =    115.161992    -0.000097    -0.085897   115.076095
	   57 D(1,2,10,5)     =     -0.018609     0.000006     0.038736     0.020127
	   58 D(1,2,10,13)    =    179.988520     0.000003     0.024269   180.012789
	   59 D(1,8,9,3)      =    -30.044483     0.000001     0.003011   -30.041472
	   60 D(1,8,9,4)      =    149.951983    -0.000001    -0.017996   149.933988
	   61 D(1,8,11,5)     =      0.018608     0.000005     0.033509     0.052116
	   62 D(1,8,11,14)    =   -179.996269    -0.000024    -0.171226  -180.167495
	   63 D(2,1,8,9)      =   -179.978157     0.000002     0.011761  -179.966397
	   64 D(2,1,8,11)     =     -0.019945     0.000006     0.043025     0.023081
	   65 D(2,10,5,11)    =      0.017261     0.000005     0.036638     0.053899
	   66 D(2,10,5,19)    =   -179.997173     0.000008     0.054115  -179.943058
	   67 D(3,6,12,7)     =     -0.021065    -0.000005    -0.032410    -0.053475
	   68 D(3,9,4,7)      =      0.060949     0.000001     0.001227     0.062175
	   69 D(3,9,4,18)     =   -179.992122    -0.000022    -0.160318  -180.152440
	   70 D(3,9,8,11)     =    149.997412    -0.000003    -0.028138   149.969274
	   71 D(4,7,12,6)     =      0.015295     0.000004     0.025612     0.040907
	   72 D(4,9,3,6)      =     -0.066116    -0.000002    -0.007531    -0.073646
	   73 D(4,9,3,17)     =   -179.928253    -0.000016    -0.107084  -180.035336
	   74 D(4,9,8,11)     =    -30.006123    -0.000005    -0.049144   -30.055267
	   75 D(5,10,2,16)    =    179.881752     0.000009     0.059952   179.941704
	   76 D(5,11,8,9)     =    179.976658     0.000009     0.064961   180.041619
	   77 D(6,3,9,8)      =    179.930363    -0.000004    -0.027890   179.902473
	   78 D(6,12,7,21)    =    179.946099     0.000013     0.088767   180.034865
	   79 D(7,4,9,8)      =   -179.935531     0.000003     0.021595  -179.913936
	   80 D(7,12,6,20)    =    179.878179     0.000007     0.051026   179.929205
	   81 D(8,1,2,10)     =      0.019955    -0.000011    -0.078890    -0.058935
	   82 D(8,1,2,16)     =   -179.883288    -0.000014    -0.098554  -179.981842
	   83 D(8,9,3,17)     =      0.068226    -0.000018    -0.127443    -0.059217
	   84 D(8,9,4,18)     =      0.011398    -0.000020    -0.139950    -0.128552
	   85 D(8,11,5,10)    =     -0.017270    -0.000010    -0.074038    -0.091308
	   86 D(8,11,5,19)    =    179.996748    -0.000013    -0.091036   179.905712
	   87 D(9,3,6,12)     =      0.047086     0.000004     0.025198     0.072284
	   88 D(9,3,6,20)     =   -179.846671    -0.000009    -0.062810  -179.909482
	   89 D(9,4,7,12)     =     -0.035944    -0.000002    -0.011672    -0.047616
	   90 D(9,4,7,21)     =   -179.963057    -0.000012    -0.078205  -180.041261
	   91 D(9,8,1,15)     =      0.118384    -0.000019    -0.135584    -0.017200
	   92 D(9,8,11,14)    =     -0.038219    -0.000020    -0.139774    -0.177993
	   93 D(10,2,1,15)    =    179.924984     0.000010     0.066330   179.991313
	   94 D(10,5,11,14)   =    179.997392     0.000018     0.129934   180.127326
	   95 D(11,5,10,13)   =   -179.989865     0.000007     0.051085  -179.938780
	   96 D(11,8,1,15)    =   -179.923403    -0.000015    -0.104320  -180.027723
	   97 D(12,6,3,17)    =    179.911467     0.000018     0.123017   180.034484
	   98 D(12,7,4,18)    =   -179.983716     0.000021     0.147249  -179.836467
	   99 D(13,10,2,16)   =     -0.111119     0.000007     0.045485    -0.065634
	  100 D(13,10,5,19)   =     -0.004300     0.000010     0.068562     0.064262
	  101 D(14,11,5,19)   =      0.011410     0.000016     0.112936     0.124346
	  102 D(15,1,2,16)    =      0.021741     0.000007     0.046665     0.068406
	  103 D(17,3,6,20)    =      0.017709     0.000005     0.035009     0.052718
	  104 D(18,4,7,21)    =      0.089172     0.000011     0.080716     0.169887
	  105 R(4,14)         =      2.638594     0.080004     0.010536     2.649130
	 ---------------------------------------------------------------------------
	Successfully symmetrized geometry.
	 Forces used to impose fixed constraints are not included.
	  Forces zeroed: 59 

  ==> Convergence Check <==

  Measures of convergence in internal coordinates in au.
  Criteria marked as inactive (o), active & met (*), and active & unmet ( ).
  --------------------------------------------------------------------------------------------- ~
   Step     Total Energy     Delta E     MAX Force     RMS Force      MAX Disp      RMS Disp    ~
  --------------------------------------------------------------------------------------------- ~
    Convergence Criteria    1.00e-06 *    3.00e-04 *             o    1.20e-03 *             o  ~
  --------------------------------------------------------------------------------------------- ~
      1    -652.32275043   -6.52e+02      2.68e-02      7.44e-03 o    3.25e-02      9.75e-03 o  ~
  ---------------------------------------------------------------------------------------------

	Writing optimization data to binary file.
	Structure for next step:
	Cartesian Geometry (in Angstrom)
	    C    -1.3631649554   0.7767613620  -0.7716148259
	    C    -2.4370849524   1.3482675934  -0.1018095753
	    C     0.6475999800  -0.9759233429  -2.0353290145
	    C     2.0771072021  -0.4548239202  -0.1878190523
	    C    -1.4367183610   0.7265056892   2.0114803518
	    C     1.7499916570  -1.5314038684  -2.6623275853
	    C     3.1136495545  -1.0352498065  -0.9013571432
	    C    -0.3153684069   0.1759348941  -0.0660963265
	    C     0.8078671013  -0.4209992275  -0.7660630398
	    C    -2.4962034598   1.3346529079   1.3075342556
	    C    -0.3725399030   0.1626217875   1.3270715505
	    N     2.9830241941  -1.5762214824  -2.1264914284
	    O    -3.4828455555   1.8591328878   1.9320361392
	    F     0.6243242763  -0.4138416404   2.0270470495
	    H    -1.3453136867   0.8023389585  -1.8557976148
	    H    -3.2311677137   1.8047045182  -0.6817332450
	    H    -0.3142096370  -0.9775870280  -2.5305268327
	    H     2.2627965864  -0.0391703897   0.7906317407
	    H    -1.4377985091   0.6904902163   3.0946988422
	    H     1.6616078474  -1.9702140695  -3.6500273330
	    H     4.1126296525  -1.0788500195  -0.4842837224
			--------------------------
			 OPTKING Finished Execution 
			--------------------------

    Structure for next step:
    Molecular point group: c1
    Full point group: C1

    Geometry (in Angstrom), charge = -1, multiplicity = 1:

    C           -1.359699914575     0.775143586816    -0.772260312057
    C           -2.433619911590     1.346649818167    -0.102455061486
    C            0.651065020798    -0.977541118097    -2.035974500676
    C            2.080572242893    -0.456441695408    -0.188464538445
    C           -1.433253320165     0.724887913974     2.010834865646
    C            1.753456697810    -1.533021643637    -2.662973071450
    C            3.117114595290    -1.036867581673    -0.902002629390
    C           -0.311903366107     0.174317118901    -0.066741812727
    C            0.811332142129    -0.422617002762    -0.766708526014
    C           -2.492738418944     1.333035132652     1.306888769447
    C           -0.369074862204     0.161004012264     1.326426064276
    N            2.986489234943    -1.577839257570    -2.127136914548
    O           -3.479380514652     1.857515112548     1.931390653024
    F            0.627789317089    -0.415459415651     2.026401563354
    H           -1.341848645923     0.800721183317    -1.856443101037
    H           -3.227702672891     1.803086742980    -0.682378731199
    H           -0.310744596171    -0.979204803196    -2.531172318919
    H            2.266261627191    -0.040788164873     0.789986254547
    H           -1.434333468300     0.688872441103     3.094053355963
    H            1.665072888224    -1.971831844743    -3.650672819231
    H            4.116094693301    -1.080467794766    -0.484929208614

gradient() will perform analytic gradient computation.

*** tstart() called on gpu-2-5.local
*** at Sat Nov 11 18:55:57 2017

    SCF Algorithm Type (re)set to DF.

*** tstart() called on gpu-2-5.local
*** at Sat Nov 11 18:55:57 2017

   => Loading Basis Set <=

    Name: AUG-CC-PVTZ
    Role: ORBITAL
    Keyword: BASIS
    atoms 1-11  entry C          line   221 file /cbio/jclab/home/chayas/anaconda/envs/py35/share/psi4/basis/aug-cc-pvtz.gbs 
    atoms 12    entry N          line   267 file /cbio/jclab/home/chayas/anaconda/envs/py35/share/psi4/basis/aug-cc-pvtz.gbs 
    atoms 13    entry O          line   313 file /cbio/jclab/home/chayas/anaconda/envs/py35/share/psi4/basis/aug-cc-pvtz.gbs 
    atoms 14    entry F          line   359 file /cbio/jclab/home/chayas/anaconda/envs/py35/share/psi4/basis/aug-cc-pvtz.gbs 
    atoms 15-21 entry H          line    34 file /cbio/jclab/home/chayas/anaconda/envs/py35/share/psi4/basis/aug-cc-pvtz.gbs 


         ---------------------------------------------------------
                                   SCF
            by Justin Turney, Rob Parrish, and Andy Simmonett
                              RHF Reference
                        8 Threads,   4768 MiB Core
         ---------------------------------------------------------

  ==> Geometry <==

    Molecular point group: c1
    Full point group: C1

    Geometry (in Angstrom), charge = -1, multiplicity = 1:

       Center              X                  Y                   Z               Mass       
    ------------   -----------------  -----------------  -----------------  -----------------
           C         -1.359699914575     0.775143586816    -0.772260312057    12.000000000000
           C         -2.433619911590     1.346649818167    -0.102455061486    12.000000000000
           C          0.651065020798    -0.977541118097    -2.035974500676    12.000000000000
           C          2.080572242893    -0.456441695408    -0.188464538445    12.000000000000
           C         -1.433253320165     0.724887913974     2.010834865646    12.000000000000
           C          1.753456697810    -1.533021643637    -2.662973071450    12.000000000000
           C          3.117114595290    -1.036867581673    -0.902002629390    12.000000000000
           C         -0.311903366107     0.174317118901    -0.066741812727    12.000000000000
           C          0.811332142129    -0.422617002762    -0.766708526014    12.000000000000
           C         -2.492738418944     1.333035132652     1.306888769447    12.000000000000
           C         -0.369074862204     0.161004012264     1.326426064276    12.000000000000
           N          2.986489234943    -1.577839257570    -2.127136914548    14.003074004780
           O         -3.479380514652     1.857515112548     1.931390653024    15.994914619560
           F          0.627789317089    -0.415459415651     2.026401563354    18.998403224000
           H         -1.341848645923     0.800721183317    -1.856443101037     1.007825032070
           H         -3.227702672891     1.803086742980    -0.682378731199     1.007825032070
           H         -0.310744596171    -0.979204803196    -2.531172318919     1.007825032070
           H          2.266261627191    -0.040788164873     0.789986254547     1.007825032070
           H         -1.434333468300     0.688872441103     3.094053355963     1.007825032070
           H          1.665072888224    -1.971831844743    -3.650672819231     1.007825032070
           H          4.116094693301    -1.080467794766    -0.484929208614     1.007825032070

  Running in c1 symmetry.

  Rotational constants: A =      0.06397  B =      0.01366  C =      0.01149 [cm^-1]
  Rotational constants: A =   1917.66954  B =    409.49556  C =    344.44336 [MHz]
  Nuclear repulsion =  802.103116365502274

  Charge       = -1
  Multiplicity = 1
  Electrons    = 98
  Nalpha       = 49
  Nbeta        = 49

  ==> Algorithm <==

  SCF Algorithm Type is DF.
  DIIS enabled.
  MOM disabled.
  Fractional occupation disabled.
  Guess Type is READ.
  Energy threshold   = 1.00e-10
  Density threshold  = 1.00e-10
  Integral threshold = 0.00e+00

  ==> Primary Basis <==

  Basis Set: AUG-CC-PVTZ
    Blend: AUG-CC-PVTZ
    Number of shells: 259
    Number of basis function: 805
    Number of Cartesian functions: 945
    Spherical Harmonics?: true
    Max angular momentum: 3

   => Loading Basis Set <=

    Name: (AUG-CC-PVTZ AUX)
    Role: JKFIT
    Keyword: DF_BASIS_SCF
    atoms 1-11  entry C          line   161 file /cbio/jclab/home/chayas/anaconda/envs/py35/share/psi4/basis/aug-cc-pvtz-jkfit.gbs 
    atoms 12    entry N          line   223 file /cbio/jclab/home/chayas/anaconda/envs/py35/share/psi4/basis/aug-cc-pvtz-jkfit.gbs 
    atoms 13    entry O          line   285 file /cbio/jclab/home/chayas/anaconda/envs/py35/share/psi4/basis/aug-cc-pvtz-jkfit.gbs 
    atoms 14    entry F          line   347 file /cbio/jclab/home/chayas/anaconda/envs/py35/share/psi4/basis/aug-cc-pvtz-jkfit.gbs 
    atoms 15-21 entry H          line    69 file /cbio/jclab/home/chayas/anaconda/envs/py35/share/psi4/basis/aug-cc-pvtz-jkfit.gbs 

  Reading orbitals from file 180, no projection.

  ==> Pre-Iterations <==

   -------------------------------------------------------
    Irrep   Nso     Nmo     Nalpha   Nbeta   Ndocc  Nsocc
   -------------------------------------------------------
     A        805     805       0       0       0       0
   -------------------------------------------------------
    Total     805     805      49      49      49       0
   -------------------------------------------------------

  ==> Integral Setup <==

  ==> DFJK: Density-Fitted J/K Matrices <==

    J tasked:                  Yes
    K tasked:                  Yes
    wK tasked:                  No
    OpenMP threads:              8
    Integrals threads:           8
    Memory (MB):              3576
    Algorithm:                Disk
    Integral Cache:           NONE
    Schwarz Cutoff:          1E-12
    Fitting Condition:       1E-12

   => Auxiliary Basis Set <=

  Basis Set: (AUG-CC-PVTZ AUX)
    Blend: AUG-CC-PVTZ-JKFIT
    Number of shells: 518
    Number of basis function: 1778
    Number of Cartesian functions: 2219
    Spherical Harmonics?: true
    Max angular momentum: 4

  Minimum eigenvalue in the overlap matrix is 7.5447171619E-07.
  Using Symmetric Orthogonalization.

  SCF Guess: Orbitals guess was supplied from a previous computation.

  ==> Iterations <==

                           Total Energy        Delta E     RMS |[F,P]|

   @DF-RHF iter   0:  -649.70107456668097   -6.49701e+02   4.81039e-04 
   @DF-RHF iter   1:  -649.61597956318462    8.50950e-02   1.10309e-04 
   @DF-RHF iter   2:  -649.61644973148634   -4.70168e-04   7.14764e-05 DIIS
   @DF-RHF iter   3:  -649.61669695520641   -2.47224e-04   1.18173e-05 DIIS
   @DF-RHF iter   4:  -649.61670391572534   -6.96052e-06   3.61444e-06 DIIS
   @DF-RHF iter   5:  -649.61670589373830   -1.97801e-06   1.58889e-06 DIIS
   @DF-RHF iter   6:  -649.61670628550689   -3.91769e-07   8.80517e-07 DIIS
   @DF-RHF iter   7:  -649.61670640696229   -1.21455e-07   2.65700e-07 DIIS
   @DF-RHF iter   8:  -649.61670643840398   -3.14417e-08   1.77607e-07 DIIS
   @DF-RHF iter   9:  -649.61670644303422   -4.63024e-09   6.61100e-08 DIIS
   @DF-RHF iter  10:  -649.61670644375238   -7.18160e-10   1.81628e-08 DIIS
   @DF-RHF iter  11:  -649.61670644380968   -5.72982e-11   7.40886e-09 DIIS
   @DF-RHF iter  12:  -649.61670644383844   -2.87628e-11   3.97882e-09 DIIS
   @DF-RHF iter  13:  -649.61670644385083   -1.23919e-11   1.62445e-09 DIIS
   @DF-RHF iter  14:  -649.61670644384117    9.66338e-12   7.64877e-10 DIIS
   @DF-RHF iter  15:  -649.61670644385913   -1.79625e-11   2.30608e-10 DIIS
   @DF-RHF iter  16:  -649.61670644383105    2.80806e-11   1.30250e-10 DIIS
   @DF-RHF iter  17:  -649.61670644383196   -9.09495e-13   5.21876e-11 DIIS

  ==> Post-Iterations <==

    Orbital Energies (a.u.)
    -----------------------

    Doubly Occupied:                                                      

       1A    -26.188711     2A    -20.313548     3A    -15.448349  
       4A    -11.194442     5A    -11.165457     6A    -11.163136  
       7A    -11.148389     8A    -11.134900     9A    -11.119976  
      10A    -11.114741    11A    -11.112431    12A    -11.087007  
      13A    -11.069228    14A    -11.068902    15A     -1.508961  
      16A     -1.141899    17A     -1.140910    18A     -1.024770  
      19A     -0.965580    20A     -0.921726    21A     -0.878051  
      22A     -0.849979    23A     -0.750454    24A     -0.738006  
      25A     -0.702518    26A     -0.678649    27A     -0.607267  
      28A     -0.588620    29A     -0.578402    30A     -0.566920  
      31A     -0.546373    32A     -0.528336    33A     -0.503805  
      34A     -0.485130    35A     -0.473346    36A     -0.464068  
      37A     -0.433509    38A     -0.421353    39A     -0.407620  
      40A     -0.386776    41A     -0.378729    42A     -0.364717  
      43A     -0.317681    44A     -0.307733    45A     -0.251042  
      46A     -0.239960    47A     -0.229174    48A     -0.205980  
      49A     -0.117719  

    Virtual:                                                              

      50A      0.098915    51A      0.101483    52A      0.115080  
      53A      0.120439    54A      0.125799    55A      0.128434  
      56A      0.133554    57A      0.156580    58A      0.166576  
      59A      0.174863    60A      0.178160    61A      0.183772  
      62A      0.187043    63A      0.188280    64A      0.192124  
      65A      0.197974    66A      0.198732    67A      0.206535  
      68A      0.210039    69A      0.213525    70A      0.214693  
      71A      0.217116    72A      0.221460    73A      0.227360  
      74A      0.229922    75A      0.232737    76A      0.237150  
      77A      0.238741    78A      0.242864    79A      0.247636  
      80A      0.250716    81A      0.259002    82A      0.263245  
      83A      0.266730    84A      0.268255    85A      0.275164  
      86A      0.279084    87A      0.288305    88A      0.293945  
      89A      0.299809    90A      0.313032    91A      0.317832  
      92A      0.318612    93A      0.321608    94A      0.322608  
      95A      0.323913    96A      0.325961    97A      0.329506  
      98A      0.335573    99A      0.337504   100A      0.344049  
     101A      0.347133   102A      0.353397   103A      0.363464  
     104A      0.367603   105A      0.368592   106A      0.377459  
     107A      0.381639   108A      0.384299   109A      0.387147  
     110A      0.389181   111A      0.393857   112A      0.403415  
     113A      0.409732   114A      0.413229   115A      0.415458  
     116A      0.420031   117A      0.421993   118A      0.425453  
     119A      0.430663   120A      0.440747   121A      0.444163  
     122A      0.446578   123A      0.452538   124A      0.455987  
     125A      0.464081   126A      0.472679   127A      0.476110  
     128A      0.479244   129A      0.480646   130A      0.486702  
     131A      0.496183   132A      0.503381   133A      0.509295  
     134A      0.516398   135A      0.518101   136A      0.523567  
     137A      0.533724   138A      0.541504   139A      0.544432  
     140A      0.546959   141A      0.548634   142A      0.555250  
     143A      0.556705   144A      0.561486   145A      0.563960  
     146A      0.571735   147A      0.572213   148A      0.576955  
     149A      0.581596   150A      0.583918   151A      0.585290  
     152A      0.588585   153A      0.597575   154A      0.599331  
     155A      0.601207   156A      0.603306   157A      0.607994  
     158A      0.611369   159A      0.619883   160A      0.622181  
     161A      0.625838   162A      0.628953   163A      0.633084  
     164A      0.633764   165A      0.639713   166A      0.641466  
     167A      0.645168   168A      0.650047   169A      0.653256  
     170A      0.657464   171A      0.661905   172A      0.666638  
     173A      0.676549   174A      0.680118   175A      0.685465  
     176A      0.692372   177A      0.698442   178A      0.700217  
     179A      0.702280   180A      0.709838   181A      0.715799  
     182A      0.723945   183A      0.728408   184A      0.736471  
     185A      0.740813   186A      0.743905   187A      0.747011  
     188A      0.759767   189A      0.766141   190A      0.770665  
     191A      0.788106   192A      0.793686   193A      0.800112  
     194A      0.807210   195A      0.807982   196A      0.811880  
     197A      0.813291   198A      0.820138   199A      0.826474  
     200A      0.837294   201A      0.842936   202A      0.848796  
     203A      0.852471   204A      0.855623   205A      0.859375  
     206A      0.861334   207A      0.870558   208A      0.872405  
     209A      0.877259   210A      0.885525   211A      0.890590  
     212A      0.897696   213A      0.901478   214A      0.917761  
     215A      0.925968   216A      0.931272   217A      0.935122  
     218A      0.941834   219A      0.950187   220A      0.957180  
     221A      0.968277   222A      0.976229   223A      0.982186  
     224A      0.986142   225A      0.987583   226A      0.990574  
     227A      0.998667   228A      1.001523   229A      1.008747  
     230A      1.011856   231A      1.013876   232A      1.017622  
     233A      1.020499   234A      1.024515   235A      1.036512  
     236A      1.039022   237A      1.046955   238A      1.050066  
     239A      1.053680   240A      1.060643   241A      1.064798  
     242A      1.067066   243A      1.076594   244A      1.077931  
     245A      1.082805   246A      1.085629   247A      1.090170  
     248A      1.094533   249A      1.096122   250A      1.106624  
     251A      1.107372   252A      1.117378   253A      1.118068  
     254A      1.121949   255A      1.127612   256A      1.131596  
     257A      1.134180   258A      1.140877   259A      1.143041  
     260A      1.145975   261A      1.148114   262A      1.156009  
     263A      1.158844   264A      1.166980   265A      1.169780  
     266A      1.176464   267A      1.178348   268A      1.188780  
     269A      1.191115   270A      1.192788   271A      1.201690  
     272A      1.205432   273A      1.206505   274A      1.210117  
     275A      1.213966   276A      1.222161   277A      1.227609  
     278A      1.233312   279A      1.239954   280A      1.248612  
     281A      1.256200   282A      1.262860   283A      1.268879  
     284A      1.273340   285A      1.276883   286A      1.281021  
     287A      1.287277   288A      1.294165   289A      1.295671  
     290A      1.298356   291A      1.303003   292A      1.309848  
     293A      1.313100   294A      1.319602   295A      1.322197  
     296A      1.328113   297A      1.329782   298A      1.331538  
     299A      1.339158   300A      1.342909   301A      1.350874  
     302A      1.354431   303A      1.366733   304A      1.377518  
     305A      1.380360   306A      1.387805   307A      1.391738  
     308A      1.393199   309A      1.405613   310A      1.406838  
     311A      1.409563   312A      1.417018   313A      1.429276  
     314A      1.432524   315A      1.444680   316A      1.450765  
     317A      1.457779   318A      1.464592   319A      1.473132  
     320A      1.476564   321A      1.486669   322A      1.490048  
     323A      1.502663   324A      1.508002   325A      1.519419  
     326A      1.523144   327A      1.525430   328A      1.547105  
     329A      1.552337   330A      1.555368   331A      1.569320  
     332A      1.572872   333A      1.581301   334A      1.584110  
     335A      1.602184   336A      1.606454   337A      1.610064  
     338A      1.622293   339A      1.626521   340A      1.631959  
     341A      1.649114   342A      1.653888   343A      1.662767  
     344A      1.666780   345A      1.679027   346A      1.696851  
     347A      1.705778   348A      1.708478   349A      1.713308  
     350A      1.717867   351A      1.728979   352A      1.745676  
     353A      1.747912   354A      1.749275   355A      1.763488  
[...]
	 R(7,21)          =         2.046013	       1.082703
	 R(8,9)           =         2.723412	       1.441168
	 R(8,11)          =         2.641980	       1.398076
	 R(10,13)         =         2.381394	       1.260180
	 R(11,14)         =         2.591901	       1.371575
	 B(1,2,10)        =         2.140266	     122.628187
	 B(1,2,16)        =         2.096638	     120.128514
	 B(1,8,9)         =         2.116909	     121.289970
	 B(1,8,11)        =         1.987882	     113.897241
	 B(2,1,8)         =         2.152916	     123.352991
	 B(2,1,15)        =         2.070833	     118.650005
	 B(2,10,5)        =         1.980076	     113.450016
	 B(2,10,13)       =         2.154775	     123.459541
	 B(3,6,12)        =         2.169682	     124.313649
	 B(3,6,20)        =         2.087020	     119.577461
	 B(3,9,4)         =         1.999084	     114.539098
	 B(3,9,8)         =         2.117865	     121.344713
	 B(4,7,12)        =         2.176098	     124.681255
	 B(4,7,21)        =         2.083073	     119.351303
	 B(4,9,8)         =         2.166229	     124.115770
	 B(5,10,13)       =         2.148319	     123.089609
	 B(5,11,8)        =         2.177277	     124.748801
	 B(5,11,14)       =         2.042042	     117.000408
	 B(6,3,9)         =         2.109521	     120.866623
	 B(6,3,17)        =         2.080990	     119.231968
	 B(6,12,7)        =         2.009122	     115.114206
	 B(7,4,9)         =         2.102689	     120.475232
	 B(7,4,18)        =         2.083921	     119.399893
	 B(8,1,15)        =         2.058564	     117.947002
	 B(8,11,14)       =         2.063033	     118.203109
	 B(9,3,17)        =         2.092444	     119.888215
	 B(9,4,18)        =         2.096412	     120.115562
	 B(9,8,11)        =         2.178071	     124.794286
	 B(10,2,16)       =         2.046183	     117.237663
	 B(10,5,11)       =         2.127765	     121.911971
	 B(10,5,19)       =         2.073614	     118.809309
	 B(11,5,19)       =         2.081756	     119.275804
	 B(12,6,20)       =         2.026392	     116.103687
	 B(12,7,21)       =         2.023994	     115.966302
	 D(1,2,10,5)      =         0.011184	       0.640817
	 D(1,2,10,13)     =        -3.136055	    -179.682701
	 D(1,8,9,3)       =        -0.521297	     -29.868122
	 D(1,8,9,4)       =         2.615961	     149.883528
	 D(1,8,11,5)      =         0.018169	       1.041005
	 D(1,8,11,14)     =         3.114507	     178.448112
	 D(2,1,8,9)       =        -3.119111	    -178.711916
	 D(2,1,8,11)      =        -0.003573	      -0.204723
	 D(2,10,5,11)     =         0.002698	       0.154559
	 D(2,10,5,19)     =        -3.127970	    -179.219461
	 D(3,6,12,7)      =        -0.001261	      -0.072237
	 D(3,9,4,7)       =         0.014423	       0.826361
	 D(3,9,4,18)      =         3.136524	     179.709606
	 D(3,9,8,11)      =         2.649304	     151.793910
	 D(4,7,12,6)      =        -0.005540	      -0.317406
	 D(4,9,3,6)       =        -0.020733	      -1.187893
	 D(4,9,3,17)      =         3.097621	     177.480605
	 D(4,9,8,11)      =        -0.496624	     -28.454440
	 D(5,10,2,16)     =        -3.115334	    -178.495506
	 D(5,11,8,9)      =         3.132649	     179.487571
	 D(6,3,9,8)       =         3.116915	     178.586082
	 D(6,12,7,21)     =        -3.140283	    -179.924958
	 D(7,4,9,8)       =        -3.123100	    -178.940476
	 D(7,12,6,20)     =        -3.128261	    -179.236148
	 D(8,1,2,10)      =        -0.010989	      -0.629628
	 D(8,1,2,16)      =         3.115108	     178.482513
	 D(8,9,3,17)      =        -0.047917	      -2.745420
	 D(8,9,4,18)      =        -0.000999	      -0.057230
	 D(8,11,5,10)     =        -0.018267	      -1.046646
	 D(8,11,5,19)     =         3.112350	     178.324537
	 D(9,3,6,12)      =         0.015175	       0.869445
	 D(9,3,6,20)      =        -3.141486	    -179.993862
	 D(9,4,7,12)      =        -0.001548	      -0.088672
	 D(9,4,7,21)      =         3.132980	     179.506534
	 D(9,8,1,15)      =        -0.023078	      -1.322296
	 D(9,8,11,14)     =        -0.054198	      -3.105322
	 D(10,2,1,15)     =        -3.106720	    -178.001934
	 D(10,5,11,14)    =        -3.115100	    -178.482074
	 D(11,5,10,13)    =        -3.133273	    -179.523291
	 D(11,8,1,15)     =         3.092460	     177.184898
	 D(12,6,3,17)     =        -3.103329	    -177.807676
	 D(12,7,4,18)     =        -3.123788	    -178.979865
	 D(13,10,2,16)    =         0.020612	       1.180977
	 D(13,10,5,19)    =         0.019246	       1.102689
	 D(14,11,5,19)    =         0.015518	       0.889110
	 D(15,1,2,16)     =         0.019377	       1.110207
	 D(17,3,6,20)     =         0.023196	       1.329017
	 D(18,4,7,21)     =         0.010740	       0.615340
	 R(4,14)          =         5.338514	       2.825020

	Current energy   :      -652.3360894270

	Energy change for the previous step:
		Projected    :        -0.0000037730
		Actual       :         0.0000007992

	Performing BFGS update.
	Previous computed or guess Hessian on step 1.
	Steps to be used in Hessian update: 9 8
	Adding user-defined constraint: Fragment 1; Coordinate 59:
		Value =    -0.521297; Fixed value    =    -0.523600
		Force =    -0.001670; Force constant =     0.725000
	Removing off-diagonal coupling between coordinate 59 and others.
	Taking RFO optimization step.
	Going to follow RFO solution 1.
	Using RFO vector 1.
	Norm of target step-size    0.00583
	Projected energy change by RFO approximation:         0.0000020228

	Back-transformation to cartesian coordinates...
	Could not converge backtransformation.
	Using first guess instead.

	--- Internal Coordinate Step in ANG or DEG, aJ/ANG or AJ/DEG ---
	 ---------------------------------------------------------------------------
	   Coordinate                Previous        Force       Change         New 
	   ----------                --------       ------       ------       ------
	    1 R(1,2)          =      1.372819     0.000019     0.000006     1.372826
	    2 R(1,8)          =      1.409005    -0.000025     0.000002     1.409007
	    3 R(1,15)         =      1.082287    -0.000052    -0.000019     1.082268
	    4 R(2,10)         =      1.436982    -0.000013    -0.000038     1.436944
	    5 R(2,16)         =      1.080951    -0.000062    -0.000015     1.080936
	    6 R(3,6)          =      1.382417    -0.000008    -0.000020     1.382397
	    7 R(3,9)          =      1.402277    -0.000146    -0.000003     1.402274
	    8 R(3,17)         =      1.079543    -0.000045    -0.000017     1.079526
	    9 R(4,7)          =      1.383393    -0.000142    -0.000026     1.383367
	   10 R(4,9)          =      1.402057     0.000088     0.000007     1.402064
	   11 R(4,18)         =      1.077066    -0.000067    -0.000018     1.077048
	   12 R(5,10)         =      1.434557    -0.000072    -0.000045     1.434512
	   13 R(5,11)         =      1.366404    -0.000017     0.000006     1.366410
	   14 R(5,19)         =      1.079120    -0.000001    -0.000003     1.079118
	   15 R(6,12)         =      1.338910    -0.000220    -0.000015     1.338894
	   16 R(6,20)         =      1.082823    -0.000029    -0.000008     1.082815
	   17 R(7,12)         =      1.338917    -0.000081    -0.000012     1.338905
	   18 R(7,21)         =      1.082703    -0.000020    -0.000003     1.082701
	   19 R(8,9)          =      1.441168     0.000098     0.000032     1.441200
	   20 R(8,11)         =      1.398076    -0.000173    -0.000041     1.398035
	   21 R(10,13)        =      1.260180    -0.000103     0.000010     1.260189
	   22 R(11,14)        =      1.371575    -0.000467    -0.000047     1.371528
	   23 B(1,2,10)       =    122.628187    -0.000000    -0.003456   122.624731
	   24 B(1,2,16)       =    120.128514    -0.000001    -0.004204   120.124310
	   25 B(1,8,9)        =    121.289970    -0.000002    -0.009877   121.280093
	   26 B(1,8,11)       =    113.897241     0.000001     0.002636   113.899877
	   27 B(2,1,8)        =    123.352991     0.000000     0.000840   123.353830
	   28 B(2,1,15)       =    118.650005     0.000000     0.000487   118.650491
	   29 B(2,10,5)       =    113.450016    -0.000001     0.002383   113.452399
	   30 B(2,10,13)      =    123.459541     0.000001     0.000089   123.459630
	   31 B(3,6,12)       =    124.313649    -0.000000    -0.000553   124.313096
	   32 B(3,6,20)       =    119.577461     0.000000     0.000928   119.578389
	   33 B(3,9,4)        =    114.539098     0.000001     0.002937   114.542035
	   34 B(3,9,8)        =    121.344713     0.000000    -0.003783   121.340929
	   35 B(4,7,12)       =    124.681255    -0.000001    -0.002422   124.678833
	   36 B(4,7,21)       =    119.351303     0.000001     0.002661   119.353964
	   37 B(4,9,8)        =    124.115770    -0.000001     0.000899   124.116669
	   38 B(5,10,13)      =    123.089609    -0.000000    -0.001739   123.087871
	   39 B(5,11,8)       =    124.748801    -0.000001    -0.004827   124.743974
	   40 B(5,11,14)      =    117.000408     0.000001     0.001578   117.001986
	   41 B(6,3,9)        =    120.866623    -0.000001    -0.002843   120.863780
	   42 B(6,3,17)       =    119.231968     0.000000    -0.000946   119.231022
	   43 B(6,12,7)       =    115.114206     0.000001     0.003809   115.118015
	   44 B(7,4,9)        =    120.475232    -0.000000    -0.001137   120.474095
	   45 B(7,4,18)       =    119.399893     0.000001     0.002875   119.402768
	   46 B(8,1,15)       =    117.947002    -0.000000    -0.000899   117.946103
	   47 B(8,11,14)      =    118.203109     0.000000     0.003033   118.206142
	   48 B(9,3,17)       =    119.888215     0.000000     0.003723   119.891937
	   49 B(9,4,18)       =    120.115562    -0.000001    -0.001978   120.113583
	   50 B(9,8,11)       =    124.794286     0.000001     0.007908   124.802194
	   51 B(10,2,16)      =    117.237663     0.000002     0.007627   117.245290
	   52 B(10,5,11)      =    121.911971     0.000002     0.003018   121.914989
	   53 B(10,5,19)      =    118.809309    -0.000000     0.002941   118.812249
	   54 B(11,5,19)      =    119.275804    -0.000002    -0.005813   119.269991
	   55 B(12,6,20)      =    116.103687     0.000000    -0.000362   116.103325
	   56 B(12,7,21)      =    115.966302     0.000000    -0.000250   115.966052
	   57 D(1,2,10,5)     =      0.640817    -0.000001    -0.090399     0.550418
	   58 D(1,2,10,13)    =   -179.682701     0.000001     0.120532  -179.562169
	   59 D(1,8,9,3)      =    -29.868122     0.000000    -0.002802   -29.870924
	   60 D(1,8,9,4)      =    149.883528     0.000000     0.013252   149.896780
	   61 D(1,8,11,5)     =      1.041005    -0.000000    -0.034570     1.006435
	   62 D(1,8,11,14)    =    178.448112    -0.000000    -0.040380   178.407732
	   63 D(2,1,8,9)      =   -178.711916     0.000000     0.008552  -178.703364
	   64 D(2,1,8,11)     =     -0.204723     0.000000     0.035861    -0.168861
	   65 D(2,10,5,11)    =      0.154559     0.000001     0.091501     0.246060
	   66 D(2,10,5,19)    =   -179.219461     0.000001     0.075711  -179.143750
	   67 D(3,6,12,7)     =     -0.072237     0.000000     0.002888    -0.069349
	   68 D(3,9,4,7)      =      0.826361     0.000000     0.023746     0.850106
	   69 D(3,9,4,18)     =    179.709606    -0.000000     0.009472   179.719078
	   70 D(3,9,8,11)     =    151.793910     0.000000    -0.033086   151.760824
	   71 D(4,7,12,6)     =     -0.317406     0.000000     0.008495    -0.308911
	   72 D(4,9,3,6)      =     -1.187893     0.000000    -0.013368    -1.201261
	   73 D(4,9,3,17)     =    177.480605     0.000000    -0.016738   177.463867
	   74 D(4,9,8,11)     =    -28.454440    -0.000000    -0.017032   -28.471472
	   75 D(5,10,2,16)    =   -178.495506    -0.000001    -0.087883  -178.583389
	   76 D(5,11,8,9)     =    179.487571    -0.000000    -0.006456   179.481115
	   77 D(6,3,9,8)      =    178.586082    -0.000000     0.001241   178.587322
	   78 D(6,12,7,21)    =   -179.924958    -0.000000     0.010480  -179.914478
	   79 D(7,4,9,8)      =   -178.940476     0.000000     0.008687  -178.931789
	   80 D(7,12,6,20)    =   -179.236148    -0.000000     0.001849  -179.234300
	   81 D(8,1,2,10)     =     -0.629628     0.000000     0.029166    -0.600461
	   82 D(8,1,2,16)     =    178.482513     0.000000     0.026679   178.509192
	   83 D(8,9,3,17)     =     -2.745420    -0.000000    -0.002130    -2.747550
	   84 D(8,9,4,18)     =     -0.057230     0.000000    -0.005587    -0.062817
	   85 D(8,11,5,10)    =     -1.046646    -0.000000    -0.032228    -1.078874
	   86 D(8,11,5,19)    =    178.324537    -0.000000    -0.016313   178.308224
	   87 D(9,3,6,12)     =      0.869445    -0.000000     0.000155     0.869600
	   88 D(9,3,6,20)     =   -179.993862     0.000000     0.001218  -179.992644
	   89 D(9,4,7,12)     =     -0.088672    -0.000000    -0.022896    -0.111568
	   90 D(9,4,7,21)     =    179.506534    -0.000000    -0.024956   179.481578
	   91 D(9,8,1,15)     =     -1.322296     0.000000     0.019730    -1.302565
	   92 D(9,8,11,14)    =     -3.105322     0.000000    -0.012267    -3.117589
	   93 D(10,2,1,15)    =   -178.001934     0.000000     0.017947  -177.983987
	   94 D(10,5,11,14)   =   -178.482074    -0.000000    -0.026518  -178.508592
	   95 D(11,5,10,13)   =   -179.523291    -0.000001    -0.118540  -179.641831
	   96 D(11,8,1,15)    =    177.184898     0.000000     0.047040   177.231938
	   97 D(12,6,3,17)    =   -177.807676    -0.000000     0.003442  -177.804234
	   98 D(12,7,4,18)    =   -178.979865    -0.000000    -0.008670  -178.988535
	   99 D(13,10,2,16)   =      1.180977     0.000001     0.123048     1.304024
	  100 D(13,10,5,19)   =      1.102689    -0.000001    -0.134331     0.968358
	  101 D(14,11,5,19)   =      0.889110    -0.000000    -0.010604     0.878506
	  102 D(15,1,2,16)    =      1.110207     0.000000     0.015460     1.125667
	  103 D(17,3,6,20)    =      1.329017     0.000000     0.004505     1.333522
	  104 D(18,4,7,21)    =      0.615340     0.000000    -0.010729     0.604611
	  105 R(4,14)         =      2.825020     0.000185     0.000555     2.825575
	 ---------------------------------------------------------------------------
	Successfully symmetrized geometry.
	 Forces used to impose fixed constraints are not included.
	  Forces zeroed: 59 

  ==> Convergence Check <==

  Measures of convergence in internal coordinates in au.
  Criteria marked as inactive (o), active & met (*), and active & unmet ( ).
  ---------------------------------------------------------------------------------------------
   Step     Total Energy     Delta E     MAX Force     RMS Force      MAX Disp      RMS Disp   
  ---------------------------------------------------------------------------------------------
    Convergence Criteria    1.00e-06 *    3.00e-04 *             o    1.20e-03 *             o
  ---------------------------------------------------------------------------------------------
     10    -652.33608943    7.99e-07 *    5.66e-05 *    1.61e-05 o    2.34e-03      5.69e-04 o  ~
  ---------------------------------------------------------------------------------------------


  **** Optimization is complete! (in 10 steps) ****

  ==> Optimization Summary <==

  Measures of convergence in internal coordinates in au.
  --------------------------------------------------------------------------------------------------------------- ~
   Step         Total Energy             Delta E       MAX Force       RMS Force        MAX Disp        RMS Disp  ~
  --------------------------------------------------------------------------------------------------------------- ~
      1    -652.322750426547   -652.322750426547      0.02678814      0.00743976      0.03253245      0.00975351  ~
      2    -652.328945740348     -0.006195313801      0.01623145      0.00487436      0.03286127      0.00975521  ~
      3    -652.332823624157     -0.003877883809      0.00926200      0.00279855      0.05023755      0.00976084  ~
      4    -652.334813970711     -0.001990346554      0.00637680      0.00124547      0.07721730      0.00976551  ~
      5    -652.335618600797     -0.000804630086      0.00416552      0.00051131      0.08438967      0.00976779  ~
      6    -652.335970171405     -0.000351570608      0.00203115      0.00025423      0.07484342      0.00891035  ~
      7    -652.336089171184     -0.000118999779      0.00047880      0.00012202      0.01516246      0.00211474  ~
      8    -652.336092034261     -0.000002863077      0.00026595      0.00005317      0.00315484      0.00099525  ~
      9    -652.336090226161      0.000001808100      0.00007238      0.00002329      0.00245002      0.00063593  ~
     10    -652.336089427003      0.000000799158      0.00005665      0.00001621      0.00234451      0.00056881  ~
  --------------------------------------------------------------------------------------------------------------- ~

	Writing optimization data to binary file.
	Final energy is   -652.3360894270031
	Final (previous) structure:
	Cartesian Geometry (in Angstrom)
	    C    -1.3455441958   0.7421031993  -0.7365798055
	    C    -2.4188329428   1.3282132968  -0.1127536325
	    C     0.6926323504  -0.9899220989  -2.0222713847
	    C     2.1414998828  -0.5035890250  -0.2251957218
	    C    -1.4664039509   0.7490236742   2.0135060104
	    C     1.7785893297  -1.5162578660  -2.6966192269
	    C     3.1655955295  -1.0572742537  -0.9724830357
	    C    -0.2800226339   0.1377826248  -0.0403350998
	    C     0.8390150866  -0.4407849408  -0.7403196949
	    C    -2.5581952500   1.3660817083   1.3169529424
	    C    -0.4096525246   0.1913440956   1.3506872945
	    N     3.0220867536  -1.5658220197  -2.2027201097
	    O    -3.5391104523   1.8945385738   1.9056730084
	    F     0.5633454251  -0.3997420318   2.1156124709
	    H    -1.2894208610   0.7791603063  -1.8167751586
	    H    -3.1961755558   1.7987451887  -0.6982386344
	    H    -0.2822193865  -1.0240395963  -2.4847796857
	    H     2.3562607043  -0.1034641447   0.7514557113
	    H    -1.4888981588   0.7176161736   3.0919346366
	    H     1.6417862195  -1.9349941850  -3.6857856222
	    H     4.1661740767  -1.0891701490  -0.5600851692
	Saving final (previous) structure.
			--------------------------
			 OPTKING Finished Execution 
			--------------------------

    Final optimized geometry and variables:
    Molecular point group: c1
    Full point group: C1

    Geometry (in Angstrom), charge = -1, multiplicity = 1:

    C           -1.345544195849     0.742103199343    -0.736579805483
    C           -2.418832942790     1.328213296750    -0.112753632480
    C            0.692632350379    -0.989922098889    -2.022271384668
    C            2.141499882773    -0.503589024999    -0.225195721805
    C           -1.466403950878     0.749023674230     2.013506010410
    C            1.778589329749    -1.516257866037    -2.696619226919
    C            3.165595529531    -1.057274253721    -0.972483035722
    C           -0.280022633880     0.137782624782    -0.040335099752
    C            0.839015086623    -0.440784940835    -0.740319694911
    C           -2.558195250011     1.366081708279     1.316952942430
    C           -0.409652524607     0.191344095574     1.350687294527
    N            3.022086753556    -1.565822019701    -2.202720109673
    O           -3.539110452299     1.894538573830     1.905673008380
    F            0.563345425085    -0.399742031816     2.115612470857
    H           -1.289420861017     0.779160306345    -1.816775158594
    H           -3.196175555810     1.798745188694    -0.698238634419
    H           -0.282219386494    -1.024039596295    -2.484779685704
    H            2.356260704260    -0.103464144724     0.751455711309
    H           -1.488898158759     0.717616173629     3.091934636585
    H            1.641786219538    -1.934994185006    -3.685785622155
    H            4.166174076698    -1.089170148968    -0.560085169199

	Cleaning optimization helper files.

*** Psi4 exiting successfully. Buy a developer a beer!
