
    -----------------------------------------------------------------------
          Psi4: An Open-Source Ab Initio Electronic Structure Package
                               Psi4 1.1 release

                         Git: Rev {HEAD} add49b9 


    R. M. Parrish, L. A. Burns, D. G. A. Smith, A. C. Simmonett,
    A. E. DePrince III, E. G. Hohenstein, U. Bozkaya, A. Yu. Sokolov,
    R. Di Remigio, R. M. Richard, J. F. Gonthier, A. M. James,
    H. R. McAlexander, A. Kumar, M. Saitow, X. Wang, B. P. Pritchard,
    P. Verma, H. F. Schaefer III, K. Patkowski, R. A. King, E. F. Valeev,
    F. A. Evangelista, J. M. Turney, T. D. Crawford, and C. D. Sherrill,
    J. Chem. Theory Comput. in press (2017).
    (doi: 10.1021/acs.jctc.7b00174)

    -----------------------------------------------------------------------


    Psi4 started on: Sunday, 12 November 2017 01:37AM

    Process ID:  20379
    PSIDATADIR: /cbio/jclab/home/chayas/anaconda/envs/py35/share/psi4
    Memory:     500.0 MiB
    Threads:    8
    
  ==> Input File <==

--------------------------------------------------------------------------

memory 5 Gb

molecule phepyrFOH_zwitterion {
  symmetry C1
  0 1 
  C      1.885   -1.036   -0.112
  C      0.807   -0.463   0.561
  C      3.823   -3.268   -0.989
  C      5.329   -1.752   0.122
  C      1.800   -1.079   2.676
  C      4.913   -3.818   -1.649
  C      6.381   -2.340   -0.565
  C      2.921   -1.631   0.608
  C      4.038   -2.224   -0.095
  C      0.764   -0.484   1.955
  C      2.878   -1.652   2.002
  N      6.145   -3.344   -1.421
  O      -0.227   0.043   2.574
  F      3.866   -2.220   2.709
  H      1.904   -1.013   -1.200
  H      0.011   -0.007   -0.025
  H      2.827   -3.657   -1.178
  H      5.526   -0.938   0.815
  H      1.791   -1.109   3.764
  H      4.840   -4.630   -2.360
  H      7.413   -2.039   -0.460
  H      6.932   -3.763   -1.915
  units Angstrom
}

dih_string = "1 8 9 3 300"
set optking fixed_dihedral = $dih_string

optimize('MP2/aug-cc-PVTZ')
--------------------------------------------------------------------------

  Memory set to   4.657 GiB by Python driver.
gradient() will perform analytic gradient computation.

*** tstart() called on gpu-2-4.local
*** at Sun Nov 12 01:37:03 2017

    SCF Algorithm Type (re)set to DF.

*** tstart() called on gpu-2-4.local
*** at Sun Nov 12 01:37:03 2017

   => Loading Basis Set <=

    Name: AUG-CC-PVTZ
    Role: ORBITAL
    Keyword: BASIS
    atoms 1-11  entry C          line   221 file /cbio/jclab/home/chayas/anaconda/envs/py35/share/psi4/basis/aug-cc-pvtz.gbs 
    atoms 12    entry N          line   267 file /cbio/jclab/home/chayas/anaconda/envs/py35/share/psi4/basis/aug-cc-pvtz.gbs 
    atoms 13    entry O          line   313 file /cbio/jclab/home/chayas/anaconda/envs/py35/share/psi4/basis/aug-cc-pvtz.gbs 
    atoms 14    entry F          line   359 file /cbio/jclab/home/chayas/anaconda/envs/py35/share/psi4/basis/aug-cc-pvtz.gbs 
    atoms 15-22 entry H          line    34 file /cbio/jclab/home/chayas/anaconda/envs/py35/share/psi4/basis/aug-cc-pvtz.gbs 


         ---------------------------------------------------------
                                   SCF
            by Justin Turney, Rob Parrish, and Andy Simmonett
                              RHF Reference
                        8 Threads,   4768 MiB Core
         ---------------------------------------------------------

  ==> Geometry <==

    Molecular point group: c1
    Full point group: C1

    Geometry (in Angstrom), charge = 0, multiplicity = 1:

       Center              X                  Y                   Z               Mass       
    ------------   -----------------  -----------------  -----------------  -----------------
           C         -1.361723943002     0.775969881659    -0.769615862448    12.000000000000
           C         -2.439723943002     1.348969881659    -0.096615862448    12.000000000000
           C          0.576276056998    -1.456030118341    -1.646615862448    12.000000000000
           C          2.082276056998     0.059969881659    -0.535615862448    12.000000000000
           C         -1.446723943002     0.732969881659     2.018384137552    12.000000000000
           C          1.666276056998    -2.006030118341    -2.306615862448    12.000000000000
           C          3.134276056998    -0.528030118341    -1.222615862448    12.000000000000
           C         -0.325723943002     0.180969881659    -0.049615862448    12.000000000000
           C          0.791276056998    -0.412030118341    -0.752615862448    12.000000000000
           C         -2.482723943002     1.327969881659     1.297384137552    12.000000000000
           C         -0.368723943002     0.159969881659     1.344384137552    12.000000000000
           N          2.898276056998    -1.532030118341    -2.078615862448    14.003074004780
           O         -3.473723943002     1.854969881659     1.916384137552    15.994914619560
           F          0.619276056998    -0.408030118341     2.051384137552    18.998403224000
           H         -1.342723943002     0.798969881659    -1.857615862448     1.007825032070
           H         -3.235723943002     1.804969881659    -0.682615862448     1.007825032070
           H         -0.419723943002    -1.845030118341    -1.835615862448     1.007825032070
           H          2.279276056998     0.873969881659     0.157384137552     1.007825032070
           H         -1.455723943002     0.702969881659     3.106384137552     1.007825032070
           H          1.593276056998    -2.818030118341    -3.017615862448     1.007825032070
           H          4.166276056998    -0.227030118341    -1.117615862448     1.007825032070
           H          3.685276056998    -1.951030118341    -2.572615862448     1.007825032070

  Running in c1 symmetry.

  Rotational constants: A =      0.06298  B =      0.01324  C =      0.01178 [cm^-1]
  Rotational constants: A =   1887.97341  B =    396.87504  C =    353.15534 [MHz]
  Nuclear repulsion =  817.059897514818545

  Charge       = 0
  Multiplicity = 1
  Electrons    = 98
  Nalpha       = 49
  Nbeta        = 49

  ==> Algorithm <==

  SCF Algorithm Type is DF.
  DIIS enabled.
  MOM disabled.
  Fractional occupation disabled.
  Guess Type is SAD.
  Energy threshold   = 1.00e-10
  Density threshold  = 1.00e-10
  Integral threshold = 0.00e+00

  ==> Primary Basis <==

  Basis Set: AUG-CC-PVTZ
    Blend: AUG-CC-PVTZ
    Number of shells: 268
    Number of basis function: 828
    Number of Cartesian functions: 970
    Spherical Harmonics?: true
    Max angular momentum: 3

   => Loading Basis Set <=

    Name: (AUG-CC-PVTZ AUX)
    Role: JKFIT
    Keyword: DF_BASIS_SCF
    atoms 1-11  entry C          line   161 file /cbio/jclab/home/chayas/anaconda/envs/py35/share/psi4/basis/aug-cc-pvtz-jkfit.gbs 
    atoms 12    entry N          line   223 file /cbio/jclab/home/chayas/anaconda/envs/py35/share/psi4/basis/aug-cc-pvtz-jkfit.gbs 
    atoms 13    entry O          line   285 file /cbio/jclab/home/chayas/anaconda/envs/py35/share/psi4/basis/aug-cc-pvtz-jkfit.gbs 
    atoms 14    entry F          line   347 file /cbio/jclab/home/chayas/anaconda/envs/py35/share/psi4/basis/aug-cc-pvtz-jkfit.gbs 
    atoms 15-22 entry H          line    69 file /cbio/jclab/home/chayas/anaconda/envs/py35/share/psi4/basis/aug-cc-pvtz-jkfit.gbs 

  ==> Pre-Iterations <==

   -------------------------------------------------------
    Irrep   Nso     Nmo     Nalpha   Nbeta   Ndocc  Nsocc
   -------------------------------------------------------
     A        828     828       0       0       0       0
   -------------------------------------------------------
    Total     828     828      49      49      49       0
   -------------------------------------------------------

  ==> Integral Setup <==

  ==> DFJK: Density-Fitted J/K Matrices <==

    J tasked:                  Yes
    K tasked:                  Yes
    wK tasked:                  No
    OpenMP threads:              8
    Integrals threads:           8
    Memory (MB):              3576
    Algorithm:                Disk
    Integral Cache:           NONE
    Schwarz Cutoff:          1E-12
    Fitting Condition:       1E-12

   => Auxiliary Basis Set <=

  Basis Set: (AUG-CC-PVTZ AUX)
    Blend: AUG-CC-PVTZ-JKFIT
    Number of shells: 532
    Number of basis function: 1824
    Number of Cartesian functions: 2274
    Spherical Harmonics?: true
    Max angular momentum: 4

  Minimum eigenvalue in the overlap matrix is 7.8630839173E-07.
  Using Symmetric Orthogonalization.

  SCF Guess: Superposition of Atomic Densities via on-the-fly atomic UHF.

  ==> Iterations <==

                           Total Energy        Delta E     RMS |[F,P]|

   @DF-RHF iter   0:  -658.36100160482010   -6.58361e+02   2.42806e-02 
   @DF-RHF iter   1:  -649.62132781890091    8.73967e+00   2.19596e-03 
   @DF-RHF iter   2:  -649.89845720666949   -2.77129e-01   1.99408e-03 DIIS
   @DF-RHF iter   3:  -650.06381541224050   -1.65358e-01   5.03625e-04 DIIS
   @DF-RHF iter   4:  -650.08870812548025   -2.48927e-02   1.70696e-04 DIIS
   @DF-RHF iter   5:  -650.09230458035870   -3.59645e-03   5.85350e-05 DIIS
   @DF-RHF iter   6:  -650.09304525014568   -7.40670e-04   3.19170e-05 DIIS
   @DF-RHF iter   7:  -650.09318168826269   -1.36438e-04   1.26499e-05 DIIS
   @DF-RHF iter   8:  -650.09319927569788   -1.75874e-05   3.90032e-06 DIIS
   @DF-RHF iter   9:  -650.09320342668855   -4.15099e-06   1.87965e-06 DIIS
   @DF-RHF iter  10:  -650.09320428338071   -8.56692e-07   8.09567e-07 DIIS
   @DF-RHF iter  11:  -650.09320442820786   -1.44827e-07   3.24632e-07 DIIS
   @DF-RHF iter  12:  -650.09320444463901   -1.64312e-08   8.37065e-08 DIIS
   @DF-RHF iter  13:  -650.09320444708953   -2.45052e-09   4.83842e-08 DIIS
   @DF-RHF iter  14:  -650.09320444768127   -5.91740e-10   1.76721e-08 DIIS
   @DF-RHF iter  15:  -650.09320444779723   -1.15961e-10   8.38457e-09 DIIS
   @DF-RHF iter  16:  -650.09320444782702   -2.97860e-11   3.80679e-09 DIIS
   @DF-RHF iter  17:  -650.09320444781974    7.27596e-12   1.07901e-09 DIIS
   @DF-RHF iter  18:  -650.09320444783646   -1.67120e-11   6.94158e-10 DIIS
   @DF-RHF iter  19:  -650.09320444783191    4.54747e-12   2.86001e-10 DIIS
   @DF-RHF iter  20:  -650.09320444783953   -7.61702e-12   8.77858e-11 DIIS

  ==> Post-Iterations <==

    Orbital Energies (a.u.)
    -----------------------

    Doubly Occupied:                                                      

       1A    -26.303148     2A    -20.412588     3A    -15.725948  
       4A    -11.375792     5A    -11.373850     6A    -11.324624  
       7A    -11.310074     8A    -11.302724     9A    -11.301653  
      10A    -11.234867    11A    -11.227803    12A    -11.212170  
      13A    -11.178297    14A    -11.177385    15A     -1.622429  
      16A     -1.405000    17A     -1.241471    18A     -1.191851  
      19A     -1.128343    20A     -1.110615    21A     -1.000037  
      22A     -0.988048    23A     -0.955332    24A     -0.913188  
      25A     -0.855809    26A     -0.822678    27A     -0.801247  
      28A     -0.756477    29A     -0.741291    30A     -0.706799  
      31A     -0.694937    32A     -0.692306    33A     -0.681832  
      34A     -0.674846    35A     -0.664906    36A     -0.616755  
      37A     -0.601263    38A     -0.586399    39A     -0.575689  
      40A     -0.532445    41A     -0.505905    42A     -0.490699  
      43A     -0.468475    44A     -0.461258    45A     -0.431148  
      46A     -0.396494    47A     -0.328945    48A     -0.314320  
      49A     -0.230009  

    Virtual:                                                              

      50A     -0.015161    51A      0.006794    52A      0.007948  
      53A      0.020095    54A      0.030899    55A      0.038520  
      56A      0.041024    57A      0.044481    58A      0.051131  
      59A      0.057647    60A      0.062844    61A      0.065379  
      62A      0.069713    63A      0.075530    64A      0.079226  
      65A      0.088824    66A      0.095720    67A      0.099840  
      68A      0.102526    69A      0.105337    70A      0.115392  
      71A      0.119635    72A      0.124525    73A      0.125426  
      74A      0.126181    75A      0.129972    76A      0.132042  
      77A      0.138444    78A      0.143434    79A      0.149358  
      80A      0.152115    81A      0.159049    82A      0.160705  
      83A      0.163510    84A      0.166934    85A      0.177065  
      86A      0.178167    87A      0.181193    88A      0.185751  
      89A      0.188877    90A      0.193032    91A      0.195483  
      92A      0.202947    93A      0.203348    94A      0.206143  
      95A      0.210915    96A      0.215157    97A      0.221482  
      98A      0.225850    99A      0.229887   100A      0.235490  
     101A      0.241576   102A      0.246761   103A      0.248999  
     104A      0.250054   105A      0.255005   106A      0.258672  
     107A      0.260995   108A      0.267198   109A      0.268707  
     110A      0.272537   111A      0.279863   112A      0.282188  
     113A      0.291568   114A      0.294745   115A      0.296073  
     116A      0.300962   117A      0.304252   118A      0.311594  
     119A      0.313675   120A      0.318981   121A      0.323379  
     122A      0.326697   123A      0.331228   124A      0.339308  
     125A      0.340657   126A      0.342802   127A      0.348530  
     128A      0.349315   129A      0.359822   130A      0.361730  
     131A      0.365466   132A      0.368345   133A      0.370197  
     134A      0.374240   135A      0.376488   136A      0.381326  
     137A      0.384386   138A      0.395289   139A      0.396782  
     140A      0.398794   141A      0.408979   142A      0.414560  
     143A      0.417533   144A      0.418897   145A      0.422849  
     146A      0.428523   147A      0.431872   148A      0.437172  
     149A      0.437254   150A      0.444129   151A      0.453672  
     152A      0.455692   153A      0.458318   154A      0.461766  
     155A      0.467511   156A      0.471126   157A      0.473872  
     158A      0.475248   159A      0.479539   160A      0.486765  
     161A      0.488382   162A      0.489590   163A      0.491844  
     164A      0.497221   165A      0.498518   166A      0.501632  
     167A      0.503196   168A      0.507789   169A      0.514872  
     170A      0.521335   171A      0.523228   172A      0.530831  
     173A      0.537523   174A      0.538526   175A      0.544049  
     176A      0.545773   177A      0.550381   178A      0.559927  
     179A      0.565169   180A      0.569894   181A      0.574925  
     182A      0.582153   183A      0.587227   184A      0.593717  
     185A      0.596435   186A      0.600202   187A      0.602806  
     188A      0.609784   189A      0.610856   190A      0.625620  
     191A      0.631578   192A      0.632693   193A      0.637190  
     194A      0.645288   195A      0.649067   196A      0.663583  
     197A      0.666280   198A      0.668979   199A      0.669536  
     200A      0.673367   201A      0.678973   202A      0.687522  
     203A      0.696781   204A      0.699675   205A      0.702999  
     206A      0.711893   207A      0.712510   208A      0.718962  
     209A      0.723733   210A      0.727964   211A      0.732445  
     212A      0.738542   213A      0.742442   214A      0.753652  
     215A      0.756303   216A      0.758671   217A      0.768572  
     218A      0.769625   219A      0.772118   220A      0.789577  
     221A      0.794695   222A      0.799235   223A      0.807027  
     224A      0.811927   225A      0.822006   226A      0.827310  
     227A      0.831972   228A      0.834563   229A      0.844977  
     230A      0.851122   231A      0.858949   232A      0.864936  
     233A      0.869929   234A      0.873073   235A      0.876950  
     236A      0.881831   237A      0.891199   238A      0.894415  
     239A      0.896209   240A      0.900403   241A      0.906879  
     242A      0.909739   243A      0.911948   244A      0.917536  
     245A      0.923082   246A      0.925499   247A      0.928236  
     248A      0.928701   249A      0.935749   250A      0.942474  
     251A      0.948756   252A      0.957926   253A      0.960884  
     254A      0.962780   255A      0.971085   256A      0.975959  
     257A      0.981166   258A      0.987277   259A      0.996330  
     260A      0.999467   261A      1.002431   262A      1.007311  
     263A      1.014150   264A      1.015823   265A      1.017345  
     266A      1.020877   267A      1.027521   268A      1.033123  
     269A      1.038925   270A      1.043942   271A      1.044564  
     272A      1.050004   273A      1.054361   274A      1.057086  
     275A      1.062163   276A      1.069665   277A      1.073759  
     278A      1.078686   279A      1.079684   280A      1.085120  
     281A      1.090378   282A      1.097647   283A      1.097726  
     284A      1.103534   285A      1.106993   286A      1.108696  
     287A      1.110414   288A      1.125224   289A      1.126511  
     290A      1.133416   291A      1.135179   292A      1.142997  
     293A      1.146179   294A      1.151452   295A      1.159293  
     296A      1.164851   297A      1.172882   298A      1.174323  
     299A      1.184779   300A      1.189452   301A      1.194169  
     302A      1.196747   303A      1.200823   304A      1.211262  
     305A      1.215669   306A      1.222381   307A      1.225639  
     308A      1.226236   309A      1.233503   310A      1.241252  
     311A      1.248352   312A      1.250401   313A      1.253029  
     314A      1.260203   315A      1.267742   316A      1.272320  
     317A      1.273906   318A      1.278389   319A      1.286146  
     320A      1.291758   321A      1.301862   322A      1.309739  
     323A      1.311921   324A      1.319895   325A      1.324000  
     326A      1.331374   327A      1.338475   328A      1.349005  
     329A      1.354799   330A      1.358081   331A      1.366998  
     332A      1.372474   333A      1.382085   334A      1.386409  
     335A      1.394777   336A      1.397262   337A      1.406379  
     338A      1.410201   339A      1.416982   340A      1.425587  
     341A      1.432405   342A      1.435494   343A      1.440133  
     344A      1.451646   345A      1.456657   346A      1.459610  
     347A      1.470484   348A      1.476154   349A      1.487140  
     350A      1.487890   351A      1.498840   352A      1.500975  
     353A      1.512991   354A      1.522096   355A      1.535734  
     356A      1.537490   357A      1.545466   358A      1.553068  
     359A      1.561766   360A      1.573814   361A      1.575086  
     362A      1.585214   363A      1.590689   364A      1.605617  
     365A      1.613222   366A      1.617093   367A      1.625307  
     368A      1.627751   369A      1.636889   370A      1.639941  
     371A      1.648288   372A      1.651136   373A      1.658936  
     374A      1.663653   375A      1.673003   376A      1.683947  
     377A      1.689512   378A      1.708714   379A      1.711763  
     380A      1.717017   381A      1.731174   382A      1.734887  
     383A      1.745759   384A      1.748621   385A      1.759473  
     386A      1.771367   387A      1.775897   388A      1.796388  
     389A      1.800092   390A      1.804686   391A      1.811114  
     392A      1.815133   393A      1.825910   394A      1.833673  
     395A      1.835292   396A      1.842570   397A      1.850681  
     398A      1.863822   399A      1.871675   400A      1.875530  
     401A      1.896679   402A      1.906772   403A      1.911649  
     404A      1.922306   405A      1.926222   406A      1.932374  
     407A      1.941083   408A      1.948644   409A      1.948747  
     410A      1.955906   411A      1.958036   412A      1.967173  
     413A      1.979244   414A      1.986761   415A      1.990590  
     416A      1.999232   417A      2.009171   418A      2.015851  
     419A      2.018455   420A      2.025870   421A      2.030836  
     422A      2.037130   423A      2.049561   424A      2.055684  
     425A      2.065107   426A      2.073710   427A      2.082641  
     428A      2.086393   429A      2.101039   430A      2.118541  
     431A      2.123149   432A      2.131810   433A      2.138487  
     434A      2.147588   435A      2.154474   436A      2.161056  
     437A      2.166068   438A      2.182790   439A      2.187889  
     440A      2.194203   441A      2.204133   442A      2.208030  
     443A      2.212897   444A      2.216528   445A      2.232334  
     446A      2.244720   447A      2.254906   448A      2.272453  
     449A      2.283719   450A      2.302667   451A      2.303342  
     452A      2.310285   453A      2.317473   454A      2.325389  
     455A      2.341784   456A      2.353428   457A      2.355862  
     458A      2.366432   459A      2.380865   460A      2.384280  
     461A      2.398569   462A      2.414788   463A      2.420675  
     464A      2.429473   465A      2.434819   466A      2.442190  
     467A      2.459938   468A      2.469057   469A      2.486702  
     470A      2.492516   471A      2.496972   472A      2.506610  
     473A      2.517484   474A      2.518552   475A      2.528199  
     476A      2.549011   477A      2.551017   478A      2.560276  
     479A      2.577263   480A      2.597998   481A      2.615348  
     482A      2.626875   483A      2.636363   484A      2.640139  
     485A      2.659204   486A      2.675571   487A      2.679175  
     488A      2.695728   489A      2.701594   490A      2.713414  
     491A      2.732864   492A      2.751116   493A      2.766978  
     494A      2.770777   495A      2.784042   496A      2.801516  
     497A      2.821797   498A      2.844820   499A      2.866008  
     500A      2.884233   501A      2.905360   502A      2.916061  
     503A      2.925038   504A      2.960702   505A      2.985672  
     506A      3.014018   507A      3.025944   508A      3.049852  
     509A      3.053004   510A      3.064543   511A      3.072610  
     512A      3.093868   513A      3.107785   514A      3.114169  
     515A      3.132588   516A      3.141757   517A      3.151859  
     518A      3.178461   519A      3.180405   520A      3.192845  
     521A      3.208773   522A      3.217638   523A      3.240567  
     524A      3.243140   525A      3.257896   526A      3.264175  
     527A      3.274854   528A      3.282929   529A      3.302180  
     530A      3.321710   531A      3.323634   532A      3.345356  
     533A      3.352906   534A      3.362114   535A      3.371518  
     536A      3.378792   537A      3.390090   538A      3.397401  
     539A      3.409915   540A      3.424809   541A      3.433759  
     542A      3.439934   543A      3.443765   544A      3.461575  
     545A      3.475429   546A      3.483308   547A      3.493219  
     548A      3.504145   549A      3.507400   550A      3.513206  
     551A      3.523442   552A      3.528723   553A      3.536576  
     554A      3.544069   555A      3.548711   556A      3.560638  
     557A      3.568162   558A      3.577695   559A      3.590524  
     560A      3.600394   561A      3.613905   562A      3.614414  
     563A      3.620605   564A      3.639457   565A      3.641166  
     566A      3.653271   567A      3.668564   568A      3.675928  
     569A      3.683319   570A      3.696515   571A      3.699481  
     572A      3.703027   573A      3.709337   574A      3.721745  
     575A      3.729247   576A      3.744902   577A      3.750878  
     578A      3.758756   579A      3.774572   580A      3.778041  
     581A      3.785385   582A      3.790672   583A      3.800267  
     584A      3.807851   585A      3.822869   586A      3.834255  
     587A      3.841600   588A      3.844162   589A      3.852682  
     590A      3.858265   591A      3.869418   592A      3.883501  
     593A      3.892934   594A      3.896876   595A      3.902984  
     596A      3.916459   597A      3.923693   598A      3.925456  
     599A      3.944056   600A      3.948646   601A      3.960970  
     602A      3.966779   603A      3.977819   604A      3.988949  
     605A      3.992903   606A      4.002520   607A      4.006490  
     608A      4.012270   609A      4.017900   610A      4.027229  
     611A      4.029327   612A      4.044497   613A      4.055042  
     614A      4.066934   615A      4.081868   616A      4.087601  
     617A      4.088827   618A      4.102496   619A      4.111148  
     620A      4.120226   621A      4.133751   622A      4.142734  
     623A      4.149306   624A      4.152490   625A      4.160772  
     626A      4.182357   627A      4.190641   628A      4.195852  
     629A      4.201774   630A      4.220512   631A      4.227031  
     632A      4.232022   633A      4.251293   634A      4.255523  
     635A      4.263556   636A      4.278124   637A      4.288545  
     638A      4.294182   639A      4.310526   640A      4.311192  
     641A      4.325745   642A      4.328477   643A      4.340030  
     644A      4.342004   645A      4.344872   646A      4.356376  
     647A      4.368919   648A      4.383733   649A      4.390924  
     650A      4.397599   651A      4.401042   652A      4.414893  
     653A      4.416121   654A      4.418651   655A      4.432434  
     656A      4.436894   657A      4.449323   658A      4.457996  
     659A      4.476697   660A      4.486090   661A      4.504123  
     662A      4.506376   663A      4.513700   664A      4.531325  
     665A      4.554651   666A      4.558424   667A      4.568893  
     668A      4.580013   669A      4.588197   670A      4.609348  
     671A      4.615387   672A      4.633436   673A      4.646980  
     674A      4.658992   675A      4.682056   676A      4.701312  
     677A      4.710872   678A      4.724625   679A      4.742478  
     680A      4.752062   681A      4.757924   682A      4.763742  
     683A      4.787909   684A      4.789823   685A      4.805637  
     686A      4.815936   687A      4.833815   688A      4.863768  
     689A      4.865437   690A      4.875065   691A      4.885890  
     692A      4.894699   693A      4.913847   694A      4.920606  
     695A      4.937162   696A      4.942165   697A      4.950290  
     698A      4.967030   699A      4.972556   700A      4.993569  
     701A      5.014591   702A      5.027113   703A      5.037010  
     704A      5.053264   705A      5.060343   706A      5.063529  
     707A      5.072998   708A      5.085090   709A      5.113246  
     710A      5.126147   711A      5.140824   712A      5.144309  
     713A      5.154135   714A      5.169033   715A      5.183253  
     716A      5.189406   717A      5.193952   718A      5.202477  
     719A      5.226854   720A      5.233791   721A      5.244097  
     722A      5.274277   723A      5.288515   724A      5.297942  
     725A      5.314347   726A      5.338190   727A      5.359114  
     728A      5.362425   729A      5.376544   730A      5.380023  
     731A      5.392278   732A      5.409406   733A      5.440885  
     734A      5.457607   735A      5.497149   736A      5.498926  
     737A      5.508665   738A      5.531967   739A      5.568286  
     740A      5.597469   741A      5.614110   742A      5.637710  
     743A      5.665685   744A      5.682635   745A      5.705726  
     746A      5.718979   747A      5.730208   748A      5.742656  
     749A      5.775382   750A      5.792883   751A      5.807021  
     752A      5.815353   753A      5.839879   754A      5.885573  
     755A      5.913827   756A      5.945893   757A      5.968884  
     758A      6.016749   759A      6.043511   760A      6.062301  
     761A      6.092067   762A      6.106401   763A      6.140341  
     764A      6.180217   765A      6.250232   766A      6.269906  
     767A      6.301296   768A      6.317371   769A      6.345807  
     770A      6.405331   771A      6.438165   772A      6.475451  
     773A      6.498615   774A      6.549772   775A      6.564806  
     776A      6.626284   777A      6.675798   778A      6.702967  
     779A      6.769271   780A      6.789654   781A      6.794991  
     782A      6.855057   783A      6.876554   784A      6.890604  
     785A      6.945985   786A      6.984470   787A      7.038555  
     788A      7.079449   789A      7.083303   790A      7.191688  
     791A      7.215933   792A      7.247109   793A      7.477737  
     794A      7.501286   795A      7.533645   796A      7.559163  
     797A      7.649412   798A      7.807633   799A      7.832097  
     800A      7.912781   801A      8.038947   802A      8.107595  
     803A      9.024157   804A      9.064111   805A      9.289314  
     806A      9.309632   807A      9.425154   808A      9.538048  
     809A      9.560266   810A      9.607552   811A      9.661326  
     812A      9.737819   813A     10.053120   814A     10.097503  
     815A     15.847428   816A     16.119978   817A     16.235844  
     818A     16.575628   819A     16.781170   820A     17.075873  
     821A     18.851252   822A     19.285890   823A     19.663594  
     824A     19.865742   825A     20.248497   826A     20.250700  
     827A     20.454203   828A     21.782336  

    Final Occupation by Irrep:
              A 
    DOCC [    49 ]

  Energy converged.

  @DF-RHF Final Energy:  -650.09320444783953

   => Energetics <=

    Nuclear Repulsion Energy =            817.0598975148185446
    One-Electron Energy =               -2509.0058688661238193
    Two-Electron Energy =                1041.8527669034656356
    DFT Exchange-Correlation Energy =       0.0000000000000000
    Empirical Dispersion Energy =           0.0000000000000000
    PCM Polarization Energy =               0.0000000000000000
    EFP Energy =                            0.0000000000000000
    Total Energy =                       -650.0932044478395255



Properties will be evaluated at   0.000000,   0.000000,   0.000000 Bohr

Properties computed using the SCF density matrix

  Nuclear Dipole Moment: (a.u.)
     X:     4.3314      Y:    -2.0956      Z:    -9.2509

  Electronic Dipole Moment: (a.u.)
     X:     1.9378      Y:    -1.2088      Z:     4.7076

  Dipole Moment: (a.u.)
     X:     6.2691      Y:    -3.3044      Z:    -4.5433     Total:     8.4180

  Dipole Moment: (Debye)
     X:    15.9345      Y:    -8.3989      Z:   -11.5479     Total:    21.3963


*** tstop() called on gpu-2-4.local at Sun Nov 12 01:46:13 2017
Module time:
	user time   =    1236.40 seconds =      20.61 minutes
	system time =      55.99 seconds =       0.93 minutes
	total time  =        550 seconds =       9.17 minutes
Total time:
	user time   =    1236.41 seconds =      20.61 minutes
	system time =      55.99 seconds =       0.93 minutes
	total time  =        550 seconds =       9.17 minutes

  //>>>>>>>>>>>>>>>>>>>>>>>>>>>>>>>>>>>//
  //               DFMP2               //
  //<<<<<<<<<<<<<<<<<<<<<<<<<<<<<<<<<<<//

   => Loading Basis Set <=

    Name: (AUG-CC-PVTZ AUX)
    Role: RIFIT
    Keyword: DF_BASIS_MP2
    atoms 1-11  entry C          line   147 file /cbio/jclab/home/chayas/anaconda/envs/py35/share/psi4/basis/aug-cc-pvtz-ri.gbs 
    atoms 12    entry N          line   205 file /cbio/jclab/home/chayas/anaconda/envs/py35/share/psi4/basis/aug-cc-pvtz-ri.gbs 
    atoms 13    entry O          line   263 file /cbio/jclab/home/chayas/anaconda/envs/py35/share/psi4/basis/aug-cc-pvtz-ri.gbs 
    atoms 14    entry F          line   321 file /cbio/jclab/home/chayas/anaconda/envs/py35/share/psi4/basis/aug-cc-pvtz-ri.gbs 
    atoms 15-22 entry H          line    29 file /cbio/jclab/home/chayas/anaconda/envs/py35/share/psi4/basis/aug-cc-pvtz-ri.gbs 

	 --------------------------------------------------------
	                          DF-MP2                         
	      2nd-Order Density-Fitted Moller-Plesset Theory     
	              RMP2 Wavefunction,   8 Threads             
	                                                         
	        Rob Parrish, Justin Turney, Andy Simmonett,      
	           Ed Hohenstein, and C. David Sherrill          
	 --------------------------------------------------------

   => Auxiliary Basis Set <=

  Basis Set: (AUG-CC-PVTZ AUX)
    Blend: AUG-CC-PVTZ-RI
    Number of shells: 504
    Number of basis function: 1852
    Number of Cartesian functions: 2344
    Spherical Harmonics?: true
    Max angular momentum: 4

	 --------------------------------------------------------
	                 NBF =   828, NAUX =  1852
	 --------------------------------------------------------
	   CLASS    FOCC     OCC    AOCC    AVIR     VIR    FVIR
	   PAIRS       0      49      49     779     779       0
	 --------------------------------------------------------


         ------------------------------------------------------------
                                     CPHF                           
                                  Rob Parrish                       
         ------------------------------------------------------------

  ==> Geometry <==

    Molecular point group: c1
    Full point group: C1

    Geometry (in Angstrom), charge = 0, multiplicity = 1:

       Center              X                  Y                   Z               Mass       
    ------------   -----------------  -----------------  -----------------  -----------------
           C         -1.361723943002     0.775969881659    -0.769615862448    12.000000000000
           C         -2.439723943002     1.348969881659    -0.096615862448    12.000000000000
           C          0.576276056998    -1.456030118341    -1.646615862448    12.000000000000
           C          2.082276056998     0.059969881659    -0.535615862448    12.000000000000
           C         -1.446723943002     0.732969881659     2.018384137552    12.000000000000
           C          1.666276056998    -2.006030118341    -2.306615862448    12.000000000000
           C          3.134276056998    -0.528030118341    -1.222615862448    12.000000000000
           C         -0.325723943002     0.180969881659    -0.049615862448    12.000000000000
           C          0.791276056998    -0.412030118341    -0.752615862448    12.000000000000
           C         -2.482723943002     1.327969881659     1.297384137552    12.000000000000
           C         -0.368723943002     0.159969881659     1.344384137552    12.000000000000
           N          2.898276056998    -1.532030118341    -2.078615862448    14.003074004780
           O         -3.473723943002     1.854969881659     1.916384137552    15.994914619560
           F          0.619276056998    -0.408030118341     2.051384137552    18.998403224000
           H         -1.342723943002     0.798969881659    -1.857615862448     1.007825032070
           H         -3.235723943002     1.804969881659    -0.682615862448     1.007825032070
           H         -0.419723943002    -1.845030118341    -1.835615862448     1.007825032070
           H          2.279276056998     0.873969881659     0.157384137552     1.007825032070
           H         -1.455723943002     0.702969881659     3.106384137552     1.007825032070
           H          1.593276056998    -2.818030118341    -3.017615862448     1.007825032070
           H          4.166276056998    -0.227030118341    -1.117615862448     1.007825032070
           H          3.685276056998    -1.951030118341    -2.572615862448     1.007825032070

  Nuclear repulsion =  817.059897514818545
  Reference energy  = -650.093204447839526

  ==> Basis Set <==

  Basis Set: AUG-CC-PVTZ
    Blend: AUG-CC-PVTZ
    Number of shells: 268
    Number of basis function: 828
    Number of Cartesian functions: 970
    Spherical Harmonics?: true
    Max angular momentum: 3

  ==> CGRSolver (by Rob Parrish) <==

   Number of roots    =         1
   Preconditioning    =    JACOBI
   Convergence cutoff =     1E-06
   Maximum iterations =       100

  ==> CPHFRHamiltonian (by Rob Parrish) <== 

  ==> DFJK: Density-Fitted J/K Matrices <==

    J tasked:                  Yes
    K tasked:                  Yes
    wK tasked:                  No
    OpenMP threads:              8
    Integrals threads:           8
    Memory (MB):              3576
    Algorithm:                Disk
    Integral Cache:           NONE
    Schwarz Cutoff:          1E-12
    Fitting Condition:       1E-12

   => Auxiliary Basis Set <=

  Basis Set: (AUG-CC-PVTZ AUX)
    Blend: AUG-CC-PVTZ-JKFIT
    Number of shells: 532
    Number of basis function: 1824
    Number of Cartesian functions: 2274
    Spherical Harmonics?: true
    Max angular momentum: 4

  ==> CPHF Iterations <==

  => Iterations <=

             Iter  Converged  Remaining    Residual
  CGR           1          0          1   1.556E-01
  CGR           2          0          1   6.181E-02
  CGR           3          0          1   3.193E-02
  CGR           4          0          1   9.430E-03
  CGR           5          0          1   3.499E-03
  CGR           6          0          1   1.526E-03
  CGR           7          0          1   6.831E-04
  CGR           8          0          1   3.307E-04
  CGR           9          0          1   1.453E-04
  CGR          10          0          1   5.556E-05
  CGR          11          0          1   2.348E-05
  CGR          12          0          1   7.367E-06
  CGR          13          0          1   3.006E-06
  CGR          14          0          1   1.090E-06
  CGR          15          1          0   3.813E-07

    CGRSolver converged.

  ==> DFCorrGrad: Density-Fitted Correlated Gradients <==

    OpenMP threads:              8
    Integrals threads:           8
    Memory (MB):              3576
    Schwarz Cutoff:          0E+00
    Fitting Condition:       1E-12

   => Auxiliary Basis Set <=

  Basis Set: (AUG-CC-PVTZ AUX)
    Blend: AUG-CC-PVTZ-JKFIT
    Number of shells: 532
    Number of basis function: 1824
    Number of Cartesian functions: 2274
    Spherical Harmonics?: true
    Max angular momentum: 4

	-----------------------------------------------------------
	 ==================> DF-MP2 Energies <==================== 
	-----------------------------------------------------------
	 Reference Energy          =    -650.0932044478395255 [Eh]
	 Singles Energy            =      -0.0000000000000005 [Eh]
	 Same-Spin Energy          =      -0.6786534611286453 [Eh]
	 Opposite-Spin Energy      =      -2.0244779011298446 [Eh]
	 Correlation Energy        =      -2.7031313622584903 [Eh]
	 Total Energy              =    -652.7963358100980713 [Eh]
	-----------------------------------------------------------
	 ================> DF-SCS-MP2 Energies <================== 
	-----------------------------------------------------------
	 SCS Same-Spin Scale       =       0.3333333333333333 [-]
	 SCS Opposite-Spin Scale   =       1.2000000000000000 [-]
	 SCS Same-Spin Energy      =      -0.2262178203762151 [Eh]
	 SCS Opposite-Spin Energy  =      -2.4293734813558134 [Eh]
	 SCS Correlation Energy    =      -2.6555913017320290 [Eh]
	 SCS Total Energy          =    -652.7487957495715136 [Eh]
	-----------------------------------------------------------


  -Total Gradient:
     Atom            X                  Y                   Z
    ------   -----------------  -----------------  -----------------
       1        0.036964095076    -0.003651057950    -0.005562711695
       2       -0.025848376414     0.012397110544     0.050339620853
       3       -0.017709744136     0.010283825352     0.026940676907
       4       -0.030546922918     0.014092144107     0.002737805383
       5       -0.053248326716     0.029842781561    -0.002425770731
       6        0.025132752552     0.002181839891     0.002164055345
       7        0.003068625521    -0.016642762854    -0.018313367192
       8       -0.034345698725     0.018796905036     0.015204576654
       9        0.033355106990    -0.017957175984    -0.023398278334
      10        0.061912194394    -0.033472872258    -0.038505307205
      11        0.037632076316    -0.035889711271    -0.016378900129
      12       -0.012298969521     0.006672165632     0.007532453286
      13       -0.018408722091     0.010018112838     0.010681493798
      14       -0.010767345167     0.005936765579     0.000441201812
      15       -0.003027741605     0.001360291401    -0.004684682728
      16       -0.003698331313     0.000155612240    -0.008837350140
      17       -0.005247261199    -0.002259224687    -0.002540945987
      18        0.002334968178     0.004966313851     0.004631609023
      19        0.004168164137    -0.000522770534     0.007565870026
      20        0.000806548111    -0.001362256617    -0.003113632137
      21        0.002326448092    -0.001073249310     0.000204074374
      22        0.007446460445    -0.003872786560    -0.004682491184


*** tstop() called on gpu-2-4.local at Sun Nov 12 02:23:57 2017
Module time:
	user time   =    6186.61 seconds =     103.11 minutes
	system time =     121.01 seconds =       2.02 minutes
	total time  =       2814 seconds =      46.90 minutes
Total time:
	user time   =    6186.62 seconds =     103.11 minutes
	system time =     121.01 seconds =       2.02 minutes
	total time  =       2814 seconds =      46.90 minutes

			-----------------------------------------
			 OPTKING 2.0: for geometry optimizations 
			  - R.A. King,  Bethel University        
			-----------------------------------------

	Internal coordinates to be generated automatically.
	Detected frag 1 with atoms:  1 2 3 4 5 6 7 8 9 10 11 12 13 14 15 16 17 18 19 20
	 21 22
	---Fragment 1 Bond Connectivity---
	 1 : 2 8 15
	 2 : 1 10 16
	 3 : 6 9 17
	 4 : 7 9 18
	 5 : 10 11 19
	 6 : 3 12 20
	 7 : 4 12 21
	 8 : 1 9 11
	 9 : 3 4 8
	 10 : 2 5 13
	 11 : 5 8 14
	 12 : 6 7 22
	 13 : 10
	 14 : 11
	 15 : 1
	 16 : 2
	 17 : 3
	 18 : 4
	 19 : 5
	 20 : 6
	 21 : 7
	 22 : 12

	Assuming in current code that numbering for constraints corresponds to unified fragment.
	Fixed dihedral atom list: 
	     1     8     9     3
	---Fragment 1 Geometry and Gradient---
	 C          -2.5732853209        1.4663705637       -1.4543632076
	 C          -4.6104100921        2.5491836378       -0.1825775201
	 C           1.0890039247       -2.7514981649       -3.1116530261
	 C           3.9349314808        0.1133266526       -1.0121672925
	 C          -2.7339120422        1.3851123400        3.8141932509
	 C           3.1488054095       -3.7908475380       -4.3588722738
	 C           5.9229233726       -0.9978323136       -2.3104091457
	 C          -0.6155290472        0.3419835146       -0.0937603919
	 C           1.4952950432       -0.7786240822       -1.4222378633
	 C          -4.6916683158        2.5094993891        2.4517007091
	 C          -0.6967872709        0.3022992658        2.5405178374
	 N           5.4769480052       -2.8951173510       -3.9280147155
	 O          -6.5643869135        3.5053850611        3.6214411854
	 F           1.1702621484       -0.7710651776        3.8765542133
	 H          -2.5373805243        1.5098342648       -3.5103852401
	 H          -6.1146320939        3.4108987544       -1.2899570340
	 H          -0.7931633037       -3.4866016306       -3.4688112652
	 H           4.3072075290        1.6515637247        0.2974129176
	 H          -2.7509195774        1.3284205560        5.8702152835
	 H           3.0108554018       -5.3253051579       -5.7024675543
	 H           7.8731207417       -0.4290247476       -2.1119879018
	 H           6.9641624718       -3.6869126007       -4.8615394251
	             0.0369640951       -0.0036510580       -0.0055627117
	            -0.0258483764        0.0123971105        0.0503396209
	            -0.0177097441        0.0102838254        0.0269406769
	            -0.0305469229        0.0140921441        0.0027378054
	            -0.0532483267        0.0298427816       -0.0024257707
	             0.0251327526        0.0021818399        0.0021640553
	             0.0030686255       -0.0166427629       -0.0183133672
	            -0.0343456987        0.0187969050        0.0152045767
	             0.0333551070       -0.0179571760       -0.0233982783
	             0.0619121944       -0.0334728723       -0.0385053072
	             0.0376320763       -0.0358897113       -0.0163789001
	            -0.0122989695        0.0066721656        0.0075324533
	            -0.0184087221        0.0100181128        0.0106814938
	            -0.0107673452        0.0059367656        0.0004412018
	            -0.0030277416        0.0013602914       -0.0046846827
	            -0.0036983313        0.0001556122       -0.0088373501
	            -0.0052472612       -0.0022592247       -0.0025409460
	             0.0023349682        0.0049663139        0.0046316090
	             0.0041681641       -0.0005227705        0.0075658700
	             0.0008065481       -0.0013622566       -0.0031136321
	             0.0023264481       -0.0010732493        0.0002040744
	             0.0074464604       -0.0038727866       -0.0046824912

	Previous optimization step data not found.  Starting new optimization.

	---Fragment 1 Intrafragment Coordinates---
	 - Coordinate -           - BOHR/RAD -       - ANG/DEG -
	 R(1,2)           =         2.634350	       1.394038
	 R(1,8)           =         2.635962	       1.394891
	 R(1,15)          =         2.056795	       1.088409
	 R(2,10)          =         2.635830	       1.394821
	 R(2,16)          =         2.057067	       1.088553
	 R(3,6)           =         2.622706	       1.387876
	 R(3,9)           =         2.628960	       1.391185
	 R(3,17)          =         2.051948	       1.085844
	 R(4,7)           =         2.621492	       1.387234
	 R(4,9)           =         2.629745	       1.391601
	 R(4,18)          =         2.054206	       1.087039
	 R(5,10)          =         2.636938	       1.395407
	 R(5,11)          =         2.635263	       1.394521
	 R(5,19)          =         2.056874	       1.088451
	 R(6,12)          =         2.531446	       1.339584
	 R(6,20)          =         2.044221	       1.081755
	 R(7,12)          =         2.532831	       1.340316
	 R(7,21)          =         2.041123	       1.080116
	 R(8,9)           =         2.734263	       1.446909
	 R(8,11)          =         2.635830	       1.394821
	 R(10,13)         =         2.422221	       1.281784
	 R(11,14)         =         2.534359	       1.341125
	 R(12,22)         =         1.926192	       1.019297
	 B(1,2,10)        =         2.094553	     120.009056
	 B(1,2,16)        =         2.068903	     118.539404
	 B(1,8,9)         =         2.091392	     119.827938
	 B(1,8,11)        =         2.093692	     119.959722
	 B(2,1,8)         =         2.094940	     120.031219
	 B(2,1,15)        =         2.079908	     119.169966
	 B(2,10,5)        =         2.094306	     119.994870
	 B(2,10,13)       =         2.094719	     120.018581
	 B(3,6,12)        =         2.095707	     120.075186
	 B(3,6,20)        =         2.161600	     123.850535
	 B(3,9,4)         =         2.092215	     119.875115
	 B(3,9,8)         =         2.094945	     120.031534
	 B(4,7,12)        =         2.094697	     120.017297
	 B(4,7,21)        =         2.163131	     123.938288
	 B(4,9,8)         =         2.096024	     120.093343
	 B(5,10,13)       =         2.094160	     119.986548
	 B(5,11,8)        =         2.095181	     120.045019
	 B(5,11,14)       =         2.081414	     119.256220
	 B(6,3,9)         =         2.073288	     118.790633
	 B(6,3,17)        =         2.089377	     119.712482
	 B(6,12,7)        =         2.136123	     122.390830
	 B(6,12,22)       =         2.073905	     118.826030
	 B(7,4,9)         =         2.074340	     118.850921
	 B(7,4,18)        =         2.089418	     119.714814
	 B(7,12,22)       =         2.073155	     118.783043
	 B(8,1,15)        =         2.108336	     120.798746
	 B(8,11,14)       =         2.106591	     120.698759
	 B(9,3,17)        =         2.120521	     121.496885
	 B(9,4,18)        =         2.119428	     121.434251
	 B(9,8,11)        =         2.098101	     120.212327
	 B(10,2,16)       =         2.119728	     121.451467
	 B(10,5,11)       =         2.093699	     119.960108
	 B(10,5,19)       =         2.120101	     121.472852
	 B(11,5,19)       =         2.069385	     118.567038
	 B(12,6,20)       =         2.025878	     116.074273
	 B(12,7,21)       =         2.025356	     116.044372
	 D(1,2,10,5)      =        -0.000325	      -0.018609
	 D(1,2,10,13)     =         3.141392	     179.988520
	 D(1,8,9,3)       =        -1.047531	     -60.019122
	 D(1,8,9,4)       =         2.094602	     120.011863
	 D(1,8,11,5)      =         0.000325	       0.018608
	 D(1,8,11,14)     =        -3.141528	    -179.996269
	 D(2,1,8,9)       =        -3.141211	    -179.978157
	 D(2,1,8,11)      =        -0.000348	      -0.019945
	 D(2,10,5,11)     =         0.000301	       0.017261
	 D(2,10,5,19)     =        -3.141543	    -179.997173
	 D(3,6,12,7)      =         0.000349	       0.020007
	 D(3,6,12,22)     =         3.139937	     179.905166
	 D(3,9,4,7)       =        -0.000278	      -0.015918
	 D(3,9,4,18)      =        -3.141146	    -179.974385
	 D(3,9,8,11)      =         2.094793	     120.022772
	 D(4,7,12,6)      =        -0.000862	      -0.049373
	 D(4,7,12,22)     =        -3.140451	    -179.934579
	 D(4,9,3,6)       =        -0.000216	      -0.012391
	 D(4,9,3,17)      =         3.141191	     179.977013
	 D(4,9,8,11)      =        -1.046259	     -59.946243
	 D(5,10,2,16)     =         3.139529	     179.881752
	 D(5,11,8,9)      =         3.141185	     179.976658
	 D(6,3,9,8)       =        -3.141269	    -179.981474
	 D(6,12,7,21)     =        -3.141176	    -179.976103
	 D(7,4,9,8)       =         3.140775	     179.953146
	 D(7,12,6,20)     =         3.141462	     179.992508
	 D(8,1,2,10)      =         0.000348	       0.019955
	 D(8,1,2,16)      =        -3.139556	    -179.883288
	 D(8,9,3,17)      =         0.000138	       0.007931
	 D(8,9,4,18)      =        -0.000093	      -0.005322
	 D(8,11,5,10)     =        -0.000301	      -0.017270
	 D(8,11,5,19)     =         3.141536	     179.996748
	 D(9,3,6,12)      =         0.000196	       0.011220
	 D(9,3,6,20)      =        -3.140878	    -179.959038
	 D(9,4,7,12)      =         0.000810	       0.046423
	 D(9,4,7,21)      =         3.141018	     179.967077
	 D(9,8,1,15)      =         0.002066	       0.118384
	 D(9,8,11,14)     =        -0.000667	      -0.038219
	 D(10,2,1,15)     =         3.140283	     179.924984
	 D(10,5,11,14)    =         3.141547	     179.997392
	 D(11,5,10,13)    =        -3.141416	    -179.989865
	 D(11,8,1,15)     =        -3.140256	    -179.923403
	 D(12,6,3,17)     =        -3.141215	    -179.978378
	 D(12,7,4,18)     =        -3.141495	    -179.994379
	 D(13,10,2,16)    =        -0.001939	      -0.111119
	 D(13,10,5,19)    =        -0.000075	      -0.004300
	 D(14,11,5,19)    =         0.000199	       0.011410
	 D(15,1,2,16)     =         0.000379	       0.021741
	 D(17,3,6,20)     =         0.000896	       0.051364
	 D(18,4,7,21)     =        -0.001287	      -0.073726
	 D(20,6,12,22)    =        -0.002135	      -0.122333
	 D(21,7,12,22)    =         0.002421	       0.138691
	 R(4,14)          =         5.685521	       3.008648

	Current energy   :      -652.7963358101

	Generating empirical Hessian (Schlegel '84) for each fragment.
	Adding user-defined constraint: Fragment 1; Coordinate 62:
		Value =    -1.047531; Fixed value    =    -1.047198
		Force =     0.000167; Force constant =     0.500000
	Removing off-diagonal coupling between coordinate 62 and others.
	Taking RFO optimization step.
	Going to follow RFO solution 1.
	Using RFO vector 1.

	Determining step-restricting scale parameter for RS-RFO.
	Maximum step size allowed    0.10000

	 Iter      |step|        alpha        rfo_root  
	------------------------------------------------
	    0     0.40596       1.00000           1
	    1     0.26842       3.09165           1
	    2     0.19078       8.56260           1
	    3     0.14187      21.20175           1
	    4     0.11390      39.74872           1
	    5     0.10234      53.14349           1
	    6     0.10009      56.39382           1
	    7     0.10000      56.52307           1
	------------------------------------------------
	Norm of target step-size    0.10000
	Projected energy change by RFO approximation:        -0.0082922559

	Back-transformation to cartesian coordinates...
	Could not converge backtransformation.
	Using first guess instead.

	--- Internal Coordinate Step in ANG or DEG, aJ/ANG or AJ/DEG ---
	 ---------------------------------------------------------------------------
	   Coordinate                Previous        Force       Change         New 
	   ----------                --------       ------       ------       ------
	    1 R(1,2)          =      1.394038    -0.150062    -0.010172     1.383866
	    2 R(1,8)          =      1.394891     0.104355     0.006968     1.401859
	    3 R(1,15)         =      1.088409    -0.038382    -0.002958     1.085451
	    4 R(2,10)         =      1.394821     0.265298     0.018454     1.413275
	    5 R(2,16)         =      1.088553    -0.062012    -0.004815     1.083738
	    6 R(3,6)          =      1.387876    -0.141327    -0.009515     1.378361
	    7 R(3,9)          =      1.391185     0.116178     0.007902     1.399088
	    8 R(3,17)         =      1.085844    -0.049966    -0.003860     1.081984
	    9 R(4,7)          =      1.387234    -0.141333    -0.009508     1.377726
	   10 R(4,9)          =      1.391601     0.124838     0.008592     1.400193
	   11 R(4,18)         =      1.087039    -0.058451    -0.004514     1.082525
	   12 R(5,10)         =      1.395407     0.249591     0.017351     1.412758
	   13 R(5,11)         =      1.394521    -0.210908    -0.014405     1.380117
	   14 R(5,19)         =      1.088451    -0.062143    -0.004821     1.083630
	   15 R(6,12)         =      1.339584     0.092533     0.005705     1.345288
	   16 R(6,20)         =      1.081755    -0.024837    -0.001895     1.079860
	   17 R(7,12)         =      1.340316     0.093162     0.005759     1.346076
	   18 R(7,21)         =      1.080116    -0.016012    -0.001216     1.078900
	   19 R(8,9)          =      1.446909    -0.089827    -0.006563     1.440347
	   20 R(8,11)         =      1.394821     0.071303     0.004856     1.399677
	   21 R(10,13)        =      1.281784    -0.193690    -0.010354     1.271430
	   22 R(11,14)        =      1.341125     0.087120     0.005419     1.346544
	   23 R(12,22)        =      1.019297    -0.079180    -0.005522     1.013774
	   24 B(1,2,10)       =    120.009056     0.000409     0.470730   120.479786
	   25 B(1,2,16)       =    118.539404     0.000235     0.281256   118.820660
	   26 B(1,8,9)        =    119.827938     0.000206     0.221734   120.049672
	   27 B(1,8,11)       =    119.959722    -0.000649    -0.752917   119.206804
	   28 B(2,1,8)        =    120.031219     0.000427     0.438057   120.469276
	   29 B(2,1,15)       =    119.169966     0.000047     0.088623   119.258589
	   30 B(2,10,5)       =    119.994870    -0.001369    -1.343951   118.650919
	   31 B(2,10,13)      =    120.018581     0.000756     0.745755   120.764337
	   32 B(3,6,12)       =    120.075186    -0.000187    -0.206535   119.868652
	   33 B(3,6,20)       =    123.850535     0.000002    -0.005027   123.845508
	   34 B(3,9,4)        =    119.875115    -0.000841    -0.886978   118.988137
	   35 B(3,9,8)        =    120.031534     0.000237     0.235958   120.267492
	   36 B(4,7,12)       =    120.017297    -0.000182    -0.198557   119.818739
	   37 B(4,7,21)       =    123.938288    -0.000006    -0.015491   123.922797
	   38 B(4,9,8)        =    120.093343     0.000604     0.650616   120.743959
	   39 B(5,10,13)      =    119.986548     0.000613     0.598196   120.584745
	   40 B(5,11,8)       =    120.045019     0.000891     0.866256   120.911275
	   41 B(5,11,14)      =    119.256220     0.000016     0.016371   119.272591
	   42 B(6,3,9)        =    118.790633     0.000572     0.610050   119.400683
	   43 B(6,3,17)       =    119.712482    -0.000197    -0.202119   119.510363
	   44 B(6,12,7)       =    122.390830     0.000089     0.097760   122.488589
	   45 B(6,12,22)      =    118.826030    -0.000048    -0.054165   118.771865
	   46 B(7,4,9)        =    118.850921     0.000549     0.584148   119.435070
	   47 B(7,4,18)       =    119.714814    -0.000195    -0.200696   119.514119
	   48 B(7,12,22)      =    118.783043    -0.000040    -0.043647   118.739396
	   49 B(8,1,15)       =    120.798746    -0.000474    -0.526638   120.272108
	   50 B(8,11,14)      =    120.698759    -0.000907    -0.882974   119.815785
	   51 B(9,3,17)       =    121.496885    -0.000375    -0.407947   121.088938
	   52 B(9,4,18)       =    121.434251    -0.000355    -0.383440   121.050812
	   53 B(9,8,11)       =    120.212327     0.000442     0.530503   120.742830
	   54 B(10,2,16)      =    121.451467    -0.000644    -0.751971   120.699496
	   55 B(10,5,11)      =    119.960108     0.000290     0.321319   120.281428
	   56 B(10,5,19)      =    121.472852    -0.000447    -0.514223   120.958629
	   57 B(11,5,19)      =    118.567038     0.000157     0.192894   118.759932
	   58 B(12,6,20)      =    116.074273     0.000185     0.211499   116.285771
	   59 B(12,7,21)      =    116.044372     0.000188     0.213946   116.258318
	   60 D(1,2,10,5)     =     -0.018609     0.000014     0.103973     0.085364
	   61 D(1,2,10,13)    =    179.988520     0.000015     0.097489   180.086009
	   62 D(1,8,9,3)      =    -60.019122     0.000117     0.554587   -59.464535
	   63 D(1,8,9,4)      =    120.011863     0.000136     0.759472   120.771336
	   64 D(1,8,11,5)     =      0.018608     0.000023     0.195478     0.214085
	   65 D(1,8,11,14)    =   -179.996269    -0.000005    -0.006235  -180.002504
	   66 D(2,1,8,9)      =   -179.978157     0.000031     0.256256  -179.721901
	   67 D(2,1,8,11)     =     -0.019945     0.000005    -0.002556    -0.022500
	   68 D(2,10,5,11)    =      0.017261     0.000013     0.086683     0.103944
	   69 D(2,10,5,19)    =   -179.997173     0.000011     0.062205  -179.934968
	   70 D(3,6,12,7)     =      0.020007    -0.000002    -0.005076     0.014931
	   71 D(3,6,12,22)    =    179.905166    -0.000005    -0.032759   179.872406
	   72 D(3,9,4,7)      =     -0.015918     0.000008     0.087511     0.071594
	   73 D(3,9,4,18)     =   -179.974385     0.000002     0.047710  -179.926675
	   74 D(3,9,8,11)     =    120.022772     0.000144     0.817977   120.840749
	   75 D(4,7,12,6)     =     -0.049373    -0.000003    -0.024320    -0.073693
	   76 D(4,7,12,22)    =   -179.934579    -0.000000     0.003366  -179.931213
	   77 D(4,9,3,6)      =     -0.012391    -0.000012    -0.116432    -0.128823
	   78 D(4,9,3,17)     =    179.977013    -0.000019    -0.151782   179.825232
	   79 D(4,9,8,11)     =    -59.946243     0.000162     1.022862   -58.923380
	   80 D(5,10,2,16)    =    179.881752     0.000016     0.114820   179.996572
	   81 D(5,11,8,9)     =    179.976658    -0.000004    -0.065313   179.911345
	   82 D(6,3,9,8)      =   -179.981474     0.000006     0.084407  -179.897067
	   83 D(6,12,7,21)    =   -179.976103     0.000007     0.035970  -179.940134
	   84 D(7,4,9,8)      =    179.953146    -0.000011    -0.114446   179.838700
	   85 D(7,12,6,20)    =    179.992508     0.000016     0.114050   180.106558
	   86 D(8,1,2,10)     =      0.019955    -0.000024    -0.145403    -0.125448
	   87 D(8,1,2,16)     =   -179.883288    -0.000025    -0.155017  -180.038305
	   88 D(8,9,3,17)     =      0.007931    -0.000000     0.049056     0.056987
	   89 D(8,9,4,18)     =     -0.005322    -0.000016    -0.154247    -0.159569
	   90 D(8,11,5,10)    =     -0.017270    -0.000032    -0.237721    -0.254991
	   91 D(8,11,5,19)    =    179.996748    -0.000030    -0.213675   179.783073
	   92 D(9,3,6,12)     =      0.011220     0.000010     0.076158     0.087378
	   93 D(9,3,6,20)     =   -179.959038    -0.000009    -0.052498  -180.011536
	   94 D(9,4,7,12)     =      0.046423    -0.000000    -0.018166     0.028258
	   95 D(9,4,7,21)     =    179.967077    -0.000011    -0.083165   179.883912
	   96 D(9,8,1,15)     =      0.118384     0.000007     0.098566     0.216950
	   97 D(9,8,11,14)    =     -0.038219    -0.000032    -0.267025    -0.305244
	   98 D(10,2,1,15)    =    179.924984     0.000001     0.010101   179.935085
	   99 D(10,5,11,14)   =    179.997392    -0.000004    -0.036955   179.960437
	  100 D(11,5,10,13)   =   -179.989865     0.000013     0.093165  -179.896700
	  101 D(11,8,1,15)    =   -179.923403    -0.000020    -0.160246  -180.083649
	  102 D(12,6,3,17)    =   -179.978378     0.000016     0.110968  -179.867410
	  103 D(12,7,4,18)    =   -179.994379     0.000005     0.020932  -179.973447
	  104 D(13,10,2,16)   =     -0.111119     0.000016     0.108336    -0.002783
	  105 D(13,10,5,19)   =     -0.004300     0.000011     0.068688     0.064388
	  106 D(14,11,5,19)   =      0.011410    -0.000002    -0.012909    -0.001499
	  107 D(15,1,2,16)    =      0.021741    -0.000001     0.000487     0.022228
	  108 D(17,3,6,20)    =      0.051364    -0.000003    -0.017688     0.033675
	  109 D(18,4,7,21)    =     -0.073726    -0.000006    -0.044067    -0.117793
	  110 D(20,6,12,22)   =     -0.122333     0.000013     0.086367    -0.035966
	  111 D(21,7,12,22)   =      0.138691     0.000010     0.063656     0.202347
	  112 R(4,14)         =      3.008648    -0.018458    -0.002598     3.006050
	 ---------------------------------------------------------------------------
	Successfully symmetrized geometry.
	 Forces used to impose fixed constraints are not included.
	  Forces zeroed: 62 

  ==> Convergence Check <==

  Measures of convergence in internal coordinates in au.
  Criteria marked as inactive (o), active & met (*), and active & unmet ( ).
  --------------------------------------------------------------------------------------------- ~
   Step     Total Energy     Delta E     MAX Force     RMS Force      MAX Disp      RMS Disp    ~
  --------------------------------------------------------------------------------------------- ~
    Convergence Criteria    1.00e-06 *    3.00e-04 *             o    1.20e-03 *             o  ~
  --------------------------------------------------------------------------------------------- ~
      1    -652.79633581   -6.53e+02      3.22e-02      8.08e-03 o    3.49e-02      9.45e-03 o  ~
  ---------------------------------------------------------------------------------------------

	Writing optimization data to binary file.
	Structure for next step:
	Cartesian Geometry (in Angstrom)
	    C    -1.3718882928   0.7712191617  -0.7695370444
	    C    -2.4435169285   1.3425333015  -0.1059876541
	    C     0.5815152168  -1.4535067651  -1.6560014189
	    C     2.0938811847   0.0527555311  -0.5332013662
	    C    -1.4391496761   0.7350595401   2.0224145811
	    C     1.6606019823  -2.0032350403  -2.3142188014
	    C     3.1398174006  -0.5302037074  -1.2145998734
	    C    -0.3243969386   0.1789292393  -0.0503968508
	    C     0.7895021540  -0.4077696111  -0.7501193837
	    C    -2.4988961430   1.3349204820   1.3061811878
	    C    -0.3744059385   0.1722922595   1.3483705037
	    N     2.8990013929  -1.5329282531  -2.0797421163
	    O    -3.4816431827   1.8567990373   1.9213115330
	    F     0.6251079010  -0.3933370456   2.0513760408
	    H    -1.3501339725   0.7872798693  -1.8546507019
	    H    -3.2383568228   1.7935989334  -0.6884462571
	    H    -0.4117034121  -1.8376722526  -1.8473735550
	    H     2.2931221766   0.8590833493   0.1610594165
	    H    -1.4438519018   0.7073186838   3.1056791719
	    H     1.5827877572  -2.8111242005  -3.0265093388
	    H     4.1708163841  -0.2319191083  -1.1046313850
	    H     3.6808629130  -1.9507560079  -2.5715256619
			--------------------------
			 OPTKING Finished Execution 
			--------------------------

    Structure for next step:
    Molecular point group: c1
    Full point group: C1

    Geometry (in Angstrom), charge = 0, multiplicity = 1:

    C           -1.371169220052     0.769253655681    -0.770005188123
    C           -2.442797855741     1.340567795492    -0.106455797843
    C            0.582234289582    -1.455472271122    -1.656469562589
    C            2.094600257423     0.050790025112    -0.533669509895
    C           -1.438430603332     0.733094034142     2.021946437422
    C            1.661321055069    -2.005200546319    -2.314686945110
    C            3.140536473302    -0.532169213379    -1.215068017084
    C           -0.323677865816     0.176963733269    -0.050864994525
    C            0.790221226711    -0.409735117103    -0.750587527403
    C           -2.498177070259     1.332954975974     1.305713044096
    C           -0.373686865711     0.170326753534     1.347902360015
    N            2.899720465647    -1.534893759080    -2.080210259987
    O           -3.480924109916     1.854833531298     1.920843389296
    F            0.625826973729    -0.395302551608     2.050907897076
    H           -1.349414899763     0.785314363322    -1.855118845610
    H           -3.237637750013     1.791633427413    -0.688914400857
    H           -0.410984339373    -1.839637758556    -1.847841698754
    H            2.293841249388     0.857117843263     0.160591272767
    H           -1.443132829087     0.705353177811     3.105211028208
    H            1.583506829970    -2.813089706475    -3.026977482478
    H            4.171535456800    -0.233884614316    -1.105099528674
    H            3.681581985748    -1.952721513902    -2.571993805626

gradient() will perform analytic gradient computation.

*** tstart() called on gpu-2-4.local
*** at Sun Nov 12 02:23:59 2017

    SCF Algorithm Type (re)set to DF.

*** tstart() called on gpu-2-4.local
*** at Sun Nov 12 02:23:59 2017

   => Loading Basis Set <=

    Name: AUG-CC-PVTZ
    Role: ORBITAL
    Keyword: BASIS
    atoms 1-11  entry C          line   221 file /cbio/jclab/home/chayas/anaconda/envs/py35/share/psi4/basis/aug-cc-pvtz.gbs 
    atoms 12    entry N          line   267 file /cbio/jclab/home/chayas/anaconda/envs/py35/share/psi4/basis/aug-cc-pvtz.gbs 
    atoms 13    entry O          line   313 file /cbio/jclab/home/chayas/anaconda/envs/py35/share/psi4/basis/aug-cc-pvtz.gbs 
    atoms 14    entry F          line   359 file /cbio/jclab/home/chayas/anaconda/envs/py35/share/psi4/basis/aug-cc-pvtz.gbs 
    atoms 15-22 entry H          line    34 file /cbio/jclab/home/chayas/anaconda/envs/py35/share/psi4/basis/aug-cc-pvtz.gbs 


         ---------------------------------------------------------
                                   SCF
            by Justin Turney, Rob Parrish, and Andy Simmonett
                              RHF Reference
                        8 Threads,   4768 MiB Core
         ---------------------------------------------------------

  ==> Geometry <==

    Molecular point group: c1
    Full point group: C1

    Geometry (in Angstrom), charge = 0, multiplicity = 1:

       Center              X                  Y                   Z               Mass       
    ------------   -----------------  -----------------  -----------------  -----------------
           C         -1.371169220052     0.769253655681    -0.770005188123    12.000000000000
           C         -2.442797855741     1.340567795492    -0.106455797843    12.000000000000
           C          0.582234289582    -1.455472271122    -1.656469562589    12.000000000000
           C          2.094600257423     0.050790025112    -0.533669509895    12.000000000000
           C         -1.438430603332     0.733094034142     2.021946437422    12.000000000000
           C          1.661321055069    -2.005200546319    -2.314686945110    12.000000000000
           C          3.140536473302    -0.532169213379    -1.215068017084    12.000000000000
           C         -0.323677865816     0.176963733269    -0.050864994525    12.000000000000
           C          0.790221226711    -0.409735117103    -0.750587527403    12.000000000000
           C         -2.498177070259     1.332954975974     1.305713044096    12.000000000000
           C         -0.373686865711     0.170326753534     1.347902360015    12.000000000000
           N          2.899720465647    -1.534893759080    -2.080210259987    14.003074004780
           O         -3.480924109916     1.854833531298     1.920843389296    15.994914619560
           F          0.625826973729    -0.395302551608     2.050907897076    18.998403224000
           H         -1.349414899763     0.785314363322    -1.855118845610     1.007825032070
           H         -3.237637750013     1.791633427413    -0.688914400857     1.007825032070
           H         -0.410984339373    -1.839637758556    -1.847841698754     1.007825032070
           H          2.293841249388     0.857117843263     0.160591272767     1.007825032070
           H         -1.443132829087     0.705353177811     3.105211028208     1.007825032070
           H          1.583506829970    -2.813089706475    -3.026977482478     1.007825032070
           H          4.171535456800    -0.233884614316    -1.105099528674     1.007825032070
           H          3.681581985748    -1.952721513902    -2.571993805626     1.007825032070

  Running in c1 symmetry.

  Rotational constants: A =      0.06278  B =      0.01321  C =      0.01174 [cm^-1]
  Rotational constants: A =   1882.15273  B =    396.07168  C =    351.88725 [MHz]
  Nuclear repulsion =  816.177272573766800

  Charge       = 0
  Multiplicity = 1
  Electrons    = 98
  Nalpha       = 49
  Nbeta        = 49

  ==> Algorithm <==

  SCF Algorithm Type is DF.
  DIIS enabled.
  MOM disabled.
  Fractional occupation disabled.
  Guess Type is READ.
  Energy threshold   = 1.00e-10
  Density threshold  = 1.00e-10
  Integral threshold = 0.00e+00

  ==> Primary Basis <==

  Basis Set: AUG-CC-PVTZ
    Blend: AUG-CC-PVTZ
    Number of shells: 268
    Number of basis function: 828
    Number of Cartesian functions: 970
    Spherical Harmonics?: true
    Max angular momentum: 3

   => Loading Basis Set <=

    Name: (AUG-CC-PVTZ AUX)
    Role: JKFIT
    Keyword: DF_BASIS_SCF
    atoms 1-11  entry C          line   161 file /cbio/jclab/home/chayas/anaconda/envs/py35/share/psi4/basis/aug-cc-pvtz-jkfit.gbs 
    atoms 12    entry N          line   223 file /cbio/jclab/home/chayas/anaconda/envs/py35/share/psi4/basis/aug-cc-pvtz-jkfit.gbs 
    atoms 13    entry O          line   285 file /cbio/jclab/home/chayas/anaconda/envs/py35/share/psi4/basis/aug-cc-pvtz-jkfit.gbs 
    atoms 14    entry F          line   347 file /cbio/jclab/home/chayas/anaconda/envs/py35/share/psi4/basis/aug-cc-pvtz-jkfit.gbs 
    atoms 15-22 entry H          line    69 file /cbio/jclab/home/chayas/anaconda/envs/py35/share/psi4/basis/aug-cc-pvtz-jkfit.gbs 

  Reading orbitals from file 180, no projection.

  ==> Pre-Iterations <==

   -------------------------------------------------------
    Irrep   Nso     Nmo     Nalpha   Nbeta   Ndocc  Nsocc
   -------------------------------------------------------
     A        828     828       0       0       0       0
   -------------------------------------------------------
    Total     828     828      49      49      49       0
   -------------------------------------------------------

  ==> Integral Setup <==

  ==> DFJK: Density-Fitted J/K Matrices <==

    J tasked:                  Yes
    K tasked:                  Yes
    wK tasked:                  No
    OpenMP threads:              8
    Integrals threads:           8
    Memory (MB):              3576
    Algorithm:                Disk
    Integral Cache:           NONE
    Schwarz Cutoff:          1E-12
    Fitting Condition:       1E-12

   => Auxiliary Basis Set <=

  Basis Set: (AUG-CC-PVTZ AUX)
    Blend: AUG-CC-PVTZ-JKFIT
    Number of shells: 532
    Number of basis function: 1824
    Number of Cartesian functions: 2274
    Spherical Harmonics?: true
    Max angular momentum: 4

  Minimum eigenvalue in the overlap matrix is 7.8890788329E-07.
  Using Symmetric Orthogonalization.

  SCF Guess: Orbitals guess was supplied from a previous computation.

  ==> Iterations <==

                           Total Energy        Delta E     RMS |[F,P]|

   @DF-RHF iter   0:  -650.15212763978957   -6.50152e+02   4.91684e-04 
   @DF-RHF iter   1:  -650.10148131721212    5.06463e-02   9.14978e-05 
   @DF-RHF iter   2:  -650.10184004243376   -3.58725e-04   6.31288e-05 DIIS
   @DF-RHF iter   3:  -650.10203889196225   -1.98850e-04   1.03873e-05 DIIS
   @DF-RHF iter   4:  -650.10205898666084   -2.00947e-05   5.73922e-06 DIIS
   @DF-RHF iter   5:  -650.10206906012297   -1.00735e-05   3.12123e-06 DIIS
   @DF-RHF iter   6:  -650.10207335969608   -4.29957e-06   1.86417e-06 DIIS
   @DF-RHF iter   7:  -650.10207450394375   -1.14425e-06   6.43064e-07 DIIS
   @DF-RHF iter   8:  -650.10207461772450   -1.13781e-07   1.88264e-07 DIIS
   @DF-RHF iter   9:  -650.10207462599669   -8.27220e-09   9.31790e-08 DIIS
   @DF-RHF iter  10:  -650.10207462754556   -1.54887e-09   2.80277e-08 DIIS
   @DF-RHF iter  11:  -650.10207462783274   -2.87173e-10   1.51702e-08 DIIS
   @DF-RHF iter  12:  -650.10207462790356   -7.08269e-11   6.39465e-09 DIIS
   @DF-RHF iter  13:  -650.10207462789799    5.57066e-12   2.03957e-09 DIIS
   @DF-RHF iter  14:  -650.10207462789481    3.18323e-12   8.11210e-10 DIIS
   @DF-RHF iter  15:  -650.10207462789879   -3.97904e-12   2.99822e-10 DIIS
   @DF-RHF iter  16:  -650.10207462789947   -6.82121e-13   9.71836e-11 DIIS

  ==> Post-Iterations <==

    Orbital Energies (a.u.)
    -----------------------

    Doubly Occupied:                                                      

       1A    -26.301542     2A    -20.423955     3A    -15.718714  
       4A    -11.371171     5A    -11.369199     6A    -11.324464  
       7A    -11.310852     8A    -11.297821     9A    -11.296745  
      10A    -11.244649    11A    -11.229014    12A    -11.212426  
      13A    -11.180484    14A    -11.179168    15A     -1.619317  
      16A     -1.397069    17A     -1.253986    18A     -1.187774  
      19A     -1.125720    20A     -1.111085    21A     -1.001296  
      22A     -0.991224    23A     -0.949052    24A     -0.911184  
      25A     -0.851397    26A     -0.821197    27A     -0.801669  
      28A     -0.752141    29A     -0.740046    30A     -0.703896  
      31A     -0.693420    32A     -0.690742    33A     -0.680167  
      34A     -0.672223    35A     -0.661511    36A     -0.618263  
      37A     -0.596756    38A     -0.589408    39A     -0.575973  
      40A     -0.537952    41A     -0.506548    42A     -0.492673  
      43A     -0.479201    44A     -0.459590    45A     -0.430455  
      46A     -0.400013    47A     -0.336942    48A     -0.319632  
      49A     -0.231994  

    Virtual:                                                              

      50A     -0.013098    51A      0.008071    52A      0.009230  
      53A      0.021251    54A      0.031840    55A      0.039224  
      56A      0.042398    57A      0.048875    58A      0.051963  
      59A      0.058164    60A      0.063002    61A      0.066762  
      62A      0.070464    63A      0.076661    64A      0.080378  
      65A      0.089706    66A      0.096430    67A      0.100974  
      68A      0.103538    69A      0.105955    70A      0.116122  
      71A      0.119920    72A      0.124855    73A      0.125472  
      74A      0.126808    75A      0.130084    76A      0.133090  
      77A      0.139090    78A      0.143717    79A      0.149248  
      80A      0.152163    81A      0.158919    82A      0.161667  
      83A      0.163315    84A      0.166366    85A      0.176682  
      86A      0.177384    87A      0.180681    88A      0.185808  
      89A      0.189247    90A      0.192805    91A      0.195398  
      92A      0.203388    93A      0.203872    94A      0.206125  
      95A      0.212190    96A      0.215624    97A      0.222636  
      98A      0.226556    99A      0.230278   100A      0.235126  
     101A      0.241163   102A      0.248178   103A      0.250090  
     104A      0.251537   105A      0.255663   106A      0.257790  
     107A      0.261345   108A      0.263318   109A      0.270261  
     110A      0.273383   111A      0.281306   112A      0.284119  
     113A      0.292020   114A      0.295584   115A      0.297196  
     116A      0.301547   117A      0.303706   118A      0.312370  
     119A      0.314579   120A      0.320303   121A      0.323061  
     122A      0.327669   123A      0.331095   124A      0.338770  
     125A      0.341057   126A      0.343169   127A      0.348322  
     128A      0.349657   129A      0.360184   130A      0.361141  
     131A      0.365433   132A      0.368548   133A      0.369599  
     134A      0.375085   135A      0.376752   136A      0.381267  
     137A      0.385426   138A      0.396255   139A      0.398080  
     140A      0.400007   141A      0.409595   142A      0.415325  
     143A      0.418386   144A      0.420392   145A      0.424290  
     146A      0.429369   147A      0.433461   148A      0.437984  
     149A      0.438841   150A      0.444339   151A      0.454906  
     152A      0.456400   153A      0.459201   154A      0.462260  
     155A      0.467880   156A      0.470479   157A      0.474589  
     158A      0.476138   159A      0.480021   160A      0.488173  
     161A      0.488623   162A      0.490182   163A      0.491310  
     164A      0.495458   165A      0.498475   166A      0.501941  
     167A      0.503818   168A      0.508892   169A      0.514825  
     170A      0.521412   171A      0.523383   172A      0.530940  
     173A      0.536470   174A      0.538270   175A      0.544639  
     176A      0.546815   177A      0.550239   178A      0.560474  
     179A      0.564809   180A      0.570529   181A      0.574874  
     182A      0.580854   183A      0.587201   184A      0.594561  
     185A      0.596920   186A      0.599483   187A      0.601821  
     188A      0.609214   189A      0.610628   190A      0.626395  
     191A      0.629955   192A      0.633761   193A      0.637118  
     194A      0.645564   195A      0.649546   196A      0.663535  
     197A      0.666711   198A      0.669268   199A      0.671020  
     200A      0.674355   201A      0.678940   202A      0.689179  
     203A      0.695180   204A      0.700584   205A      0.703881  
     206A      0.712363   207A      0.713188   208A      0.718116  
     209A      0.723137   210A      0.728221   211A      0.733155  
     212A      0.737268   213A      0.743065   214A      0.753164  
     215A      0.754989   216A      0.756749   217A      0.766243  
     218A      0.768742   219A      0.772361   220A      0.790582  
     221A      0.795114   222A      0.799520   223A      0.809051  
     224A      0.811798   225A      0.821788   226A      0.826142  
     227A      0.832649   228A      0.835951   229A      0.846352  
     230A      0.851466   231A      0.861065   232A      0.867450  
     233A      0.870257   234A      0.872823   235A      0.877460  
     236A      0.883999   237A      0.891465   238A      0.895255  
     239A      0.895705   240A      0.901061   241A      0.906712  
     242A      0.909774   243A      0.912214   244A      0.917794  
     245A      0.921413   246A      0.925796   247A      0.926512  
     248A      0.928971   249A      0.934263   250A      0.942108  
     251A      0.948335   252A      0.957896   253A      0.960276  
     254A      0.961568   255A      0.974197   256A      0.977260  
     257A      0.981025   258A      0.987453   259A      0.996306  
     260A      0.999979   261A      1.002613   262A      1.007321  
     263A      1.015607   264A      1.017154   265A      1.017824  
[...]
	                          DF-MP2                         
	      2nd-Order Density-Fitted Moller-Plesset Theory     
	              RMP2 Wavefunction,   8 Threads             
	                                                         
	        Rob Parrish, Justin Turney, Andy Simmonett,      
	           Ed Hohenstein, and C. David Sherrill          
	 --------------------------------------------------------

   => Auxiliary Basis Set <=

  Basis Set: (AUG-CC-PVTZ AUX)
    Blend: AUG-CC-PVTZ-RI
    Number of shells: 504
    Number of basis function: 1852
    Number of Cartesian functions: 2344
    Spherical Harmonics?: true
    Max angular momentum: 4

	 --------------------------------------------------------
	                 NBF =   828, NAUX =  1852
	 --------------------------------------------------------
	   CLASS    FOCC     OCC    AOCC    AVIR     VIR    FVIR
	   PAIRS       0      49      49     779     779       0
	 --------------------------------------------------------


         ------------------------------------------------------------
                                     CPHF                           
                                  Rob Parrish                       
         ------------------------------------------------------------

  ==> Geometry <==

    Molecular point group: c1
    Full point group: C1

    Geometry (in Angstrom), charge = 0, multiplicity = 1:

       Center              X                  Y                   Z               Mass       
    ------------   -----------------  -----------------  -----------------  -----------------
           C         -1.529266603141     0.478405833976    -0.775607232378    12.000000000000
           C         -2.523005455132     1.174642239058    -0.168299166797    12.000000000000
           C          0.680874181932    -1.414192312408    -1.803975700717    12.000000000000
           C          2.046156841433    -0.077853233678    -0.353996883933    12.000000000000
           C         -1.400439428726     0.867473085657     1.978367834636    12.000000000000
           C          1.806826264090    -1.889420044557    -2.401480798078    12.000000000000
           C          3.151683831615    -0.569250199085    -0.977169581724    12.000000000000
           C         -0.425036719442    -0.076240234134    -0.061519031487    12.000000000000
           C          0.735073655894    -0.449094123768    -0.763779371639    12.000000000000
           C         -2.543357734863     1.395420960115     1.262697284667    12.000000000000
           C         -0.404969917947     0.228406404110     1.325490667111    12.000000000000
           N          3.028528871792    -1.462771194220    -1.989860343243    14.003074004780
           O         -3.456608563800     2.007308205990     1.837272337369    15.994914619560
           F          0.642933718439    -0.246429995233     2.051315685484    18.998403224000
           H         -1.542132430672     0.361090486648    -1.851909354830     1.007825032070
           H         -3.320945753181     1.610629997360    -0.749050731747     1.007825032070
           H         -0.275215456086    -1.794155462618    -2.128739288255     1.007825032070
           H          2.178425695943     0.637766569703     0.439456961899     1.007825032070
           H         -1.358196112064     0.987680989361     3.049139473582     1.007825032070
           H          1.794333494420    -2.635648762389    -3.178053921296     1.007825032070
           H          4.155201635139    -0.275924908526    -0.716208187639     1.007825032070
           H          3.855854345260    -1.829681241784    -2.428756748017     1.007825032070

  Nuclear repulsion =  815.677474725170555
  Reference energy  = -650.122030289919735

  ==> Basis Set <==

  Basis Set: AUG-CC-PVTZ
    Blend: AUG-CC-PVTZ
    Number of shells: 268
    Number of basis function: 828
    Number of Cartesian functions: 970
    Spherical Harmonics?: true
    Max angular momentum: 3

  ==> CGRSolver (by Rob Parrish) <==

   Number of roots    =         1
   Preconditioning    =    JACOBI
   Convergence cutoff =     1E-06
   Maximum iterations =       100

  ==> CPHFRHamiltonian (by Rob Parrish) <== 

  ==> DFJK: Density-Fitted J/K Matrices <==

    J tasked:                  Yes
    K tasked:                  Yes
    wK tasked:                  No
    OpenMP threads:              8
    Integrals threads:           8
    Memory (MB):              3576
    Algorithm:                Disk
    Integral Cache:           NONE
    Schwarz Cutoff:          1E-12
    Fitting Condition:       1E-12

   => Auxiliary Basis Set <=

  Basis Set: (AUG-CC-PVTZ AUX)
    Blend: AUG-CC-PVTZ-JKFIT
    Number of shells: 532
    Number of basis function: 1824
    Number of Cartesian functions: 2274
    Spherical Harmonics?: true
    Max angular momentum: 4

  ==> CPHF Iterations <==

  => Iterations <=

             Iter  Converged  Remaining    Residual
  CGR           1          0          1   1.534E-01
  CGR           2          0          1   5.665E-02
  CGR           3          0          1   2.850E-02
  CGR           4          0          1   8.399E-03
  CGR           5          0          1   2.811E-03
  CGR           6          0          1   1.141E-03
  CGR           7          0          1   5.221E-04
  CGR           8          0          1   2.153E-04
  CGR           9          0          1   9.933E-05
  CGR          10          0          1   3.953E-05
  CGR          11          0          1   1.654E-05
  CGR          12          0          1   5.163E-06
  CGR          13          0          1   2.324E-06
  CGR          14          1          0   8.106E-07

    CGRSolver converged.

  ==> DFCorrGrad: Density-Fitted Correlated Gradients <==

    OpenMP threads:              8
    Integrals threads:           8
    Memory (MB):              3576
    Schwarz Cutoff:          0E+00
    Fitting Condition:       1E-12

   => Auxiliary Basis Set <=

  Basis Set: (AUG-CC-PVTZ AUX)
    Blend: AUG-CC-PVTZ-JKFIT
    Number of shells: 532
    Number of basis function: 1824
    Number of Cartesian functions: 2274
    Spherical Harmonics?: true
    Max angular momentum: 4

	-----------------------------------------------------------
	 ==================> DF-MP2 Energies <==================== 
	-----------------------------------------------------------
	 Reference Energy          =    -650.1220302899197350 [Eh]
	 Singles Energy            =      -0.0000000000000004 [Eh]
	 Same-Spin Energy          =      -0.6743512811514493 [Eh]
	 Opposite-Spin Energy      =      -2.0237817965029423 [Eh]
	 Correlation Energy        =      -2.6981330776543921 [Eh]
	 Total Energy              =    -652.8201633675740823 [Eh]
	-----------------------------------------------------------
	 ================> DF-SCS-MP2 Energies <================== 
	-----------------------------------------------------------
	 SCS Same-Spin Scale       =       0.3333333333333333 [-]
	 SCS Opposite-Spin Scale   =       1.2000000000000000 [-]
	 SCS Same-Spin Energy      =      -0.2247837603838164 [Eh]
	 SCS Opposite-Spin Energy  =      -2.4285381558035306 [Eh]
	 SCS Correlation Energy    =      -2.6533219161873474 [Eh]
	 SCS Total Energy          =    -652.7753522061070726 [Eh]
	-----------------------------------------------------------


  -Total Gradient:
     Atom            X                  Y                   Z
    ------   -----------------  -----------------  -----------------
       1        0.006286121232     0.014665254537     0.001834626615
       2        0.000396889240     0.000585675079     0.000448576089
       3        0.002100705024    -0.010382640601     0.010297851032
       4        0.000226391293     0.000997597623    -0.001426640937
       5       -0.000360169816     0.000749473227     0.000245929203
       6        0.000345560509    -0.000382190101     0.000346711721
       7        0.000698318665    -0.000675447811    -0.000395793075
       8       -0.009328604298    -0.026124997590     0.001371131409
       9       -0.000110900936     0.021068950955    -0.013875048912
      10        0.000084265668    -0.002250655164    -0.000490421530
      11        0.000495911160    -0.000575666017     0.000508497465
      12       -0.000342783511     0.000538734061     0.000440236733
      13       -0.000184007839     0.000939216421     0.000356003264
      14       -0.000675412939     0.000093064220     0.001538228800
      15       -0.000426071426    -0.000200303526    -0.000096218087
      16        0.000173367306    -0.000302854505    -0.000267144690
      17       -0.000083498051     0.000499779117    -0.000371480463
      18       -0.000047609280     0.000563592975    -0.000415199417
      19        0.000247372741     0.000141628215     0.000147254697
      20        0.000110816391     0.000148411323    -0.000106247571
      21        0.000233306764    -0.000150753096    -0.000055712613
      22        0.000160032094     0.000054130654    -0.000035139729


*** tstop() called on gpu-2-4.local at Sun Nov 12 20:20:02 2017
Module time:
	user time   =    5019.20 seconds =      83.65 minutes
	system time =      99.64 seconds =       1.66 minutes
	total time  =       2437 seconds =      40.62 minutes
Total time:
	user time   =  143353.51 seconds =    2389.23 minutes
	system time =    2692.44 seconds =      44.87 minutes
	total time  =      67379 seconds =    1122.98 minutes

			-----------------------------------------
			 OPTKING 2.0: for geometry optimizations 
			  - R.A. King,  Bethel University        
			-----------------------------------------

	Previous internal coordinate definitions found.
	---Fragment 1 Geometry and Gradient---
	 C          -2.8898950641        0.9040560066       -1.4656852559
	 C          -4.7677893420        2.2197521359       -0.3180393336
	 C           1.2866657348       -2.6724361697       -3.4090200247
	 C           3.8666760552       -0.1471212902       -0.6689571625
	 C          -2.6464469860        1.6392865595        3.7385733976
	 C           3.4144068088       -3.5704864342       -4.5381410218
	 C           5.9558192992       -1.0757269774       -1.8465828948
	 C          -0.8032029962       -0.1440731628       -0.1162541215
	 C           1.3890878971       -0.8486649018       -1.4433338383
	 C          -4.8062495768        2.6369634547        2.3861520568
	 C          -0.7652822370        0.4316255508        2.5048143525
	 N           5.7230901532       -2.7642369522       -3.7602910914
	 O          -6.5320435342        3.7932627736        3.4719415492
	 F           1.2149686494       -0.4656852019        3.8764248577
	 H          -2.9142079546        0.6823621290       -3.4996015036
	 H          -6.2756779757        3.0436495964       -1.4155007426
	 H          -0.5200818395       -3.3904624642       -4.0227342631
	 H           4.1166279662        1.2052041534        0.8304533052
	 H          -2.5666186866        1.8664465766        5.7620385460
	 H           3.3907988955       -4.9806543434       -6.0056515468
	 H           7.8521931173       -0.5214225104       -1.3534373288
	 H           7.2865087208       -3.4575964574       -4.5896850972
	             0.0062861212        0.0146652545        0.0018346266
	             0.0003968892        0.0005856751        0.0004485761
	             0.0021007050       -0.0103826406        0.0102978510
	             0.0002263913        0.0009975976       -0.0014266409
	            -0.0003601698        0.0007494732        0.0002459292
	             0.0003455605       -0.0003821901        0.0003467117
	             0.0006983187       -0.0006754478       -0.0003957931
	            -0.0093286043       -0.0261249976        0.0013711314
	            -0.0001109009        0.0210689510       -0.0138750489
	             0.0000842657       -0.0022506552       -0.0004904215
	             0.0004959112       -0.0005756660        0.0005084975
	            -0.0003427835        0.0005387341        0.0004402367
	            -0.0001840078        0.0009392164        0.0003560033
	            -0.0006754129        0.0000930642        0.0015382288
	            -0.0004260714       -0.0002003035       -0.0000962181
	             0.0001733673       -0.0003028545       -0.0002671447
	            -0.0000834981        0.0004997791       -0.0003714805
	            -0.0000476093        0.0005635930       -0.0004151994
	             0.0002473727        0.0001416282        0.0001472547
	             0.0001108164        0.0001484113       -0.0001062476
	             0.0002333068       -0.0001507531       -0.0000557126
	             0.0001600321        0.0000541307       -0.0000351397

	---Fragment 1 Intrafragment Coordinates---
	 - Coordinate -           - BOHR/RAD -       - ANG/DEG -
	 R(1,2)           =         2.564105	       1.356866
	 R(1,8)           =         2.697003	       1.427192
	 R(1,15)          =         2.046107	       1.082753
	 R(2,10)          =         2.736457	       1.448071
	 R(2,16)          =         2.038862	       1.078919
	 R(3,6)           =         2.570737	       1.360376
	 R(3,9)           =         2.683385	       1.419986
	 R(3,17)          =         2.038760	       1.078866
	 R(4,7)           =         2.571698	       1.360884
	 R(4,9)           =         2.688915	       1.422913
	 R(4,18)          =         2.034574	       1.076650
	 R(5,10)          =         2.736631	       1.448163
	 R(5,11)          =         2.553309	       1.351153
	 R(5,19)          =         2.037740	       1.078326
	 R(6,12)          =         2.566146	       1.357946
	 R(6,20)          =         2.035367	       1.077070
	 R(7,12)          =         2.562715	       1.356130
	 R(7,21)          =         2.036340	       1.077585
	 R(8,9)           =         2.657768	       1.406430
	 R(8,11)          =         2.683816	       1.420214
	 R(10,13)         =         2.343999	       1.240391
	 R(11,14)         =         2.570579	       1.360292
	 R(12,22)         =         1.900768	       1.005843
	 B(1,2,10)        =         2.130376	     122.061552
	 B(1,2,16)        =         2.103748	     120.535875
	 B(1,8,9)         =         2.084489	     119.432440
	 B(1,8,11)        =         2.000075	     114.595873
	 B(2,1,8)         =         2.143748	     122.827699
	 B(2,1,15)        =         2.084962	     119.459516
	 B(2,10,5)        =         2.006105	     114.941323
	 B(2,10,13)       =         2.145181	     122.909792
	 B(3,6,12)        =         2.096409	     120.115368
	 B(3,6,20)        =         2.152097	     123.306075
	 B(3,9,4)         =         2.008052	     115.052923
	 B(3,9,8)         =         2.111185	     120.961971
	 B(4,7,12)        =         2.101439	     120.403602
	 B(4,7,21)        =         2.149976	     123.184552
	 B(4,9,8)         =         2.149655	     123.166138
	 B(5,10,13)       =         2.131747	     122.140085
	 B(5,11,8)        =         2.168748	     124.260089
	 B(5,11,14)       =         2.065576	     118.348780
	 B(6,3,9)         =         2.126548	     121.842234
	 B(6,3,17)        =         2.069445	     118.570488
	 B(6,12,7)        =         2.111882	     121.001933
	 B(6,12,22)       =         2.086471	     119.545954
	 B(7,4,9)         =         2.120496	     121.495480
	 B(7,4,18)        =         2.068801	     118.533567
	 B(7,12,22)       =         2.084596	     119.438553
	 B(8,1,15)        =         2.053810	     117.674621
	 B(8,11,14)       =         2.045542	     117.200903
	 B(9,3,17)        =         2.087138	     119.584219
	 B(9,4,18)        =         2.093067	     119.923877
	 B(9,8,11)        =         2.132773	     122.198874
	 B(10,2,16)       =         2.048702	     117.381956
	 B(10,5,11)       =         2.111920	     121.004088
	 B(10,5,19)       =         2.072600	     118.751216
	 B(11,5,19)       =         2.098648	     120.243680
	 B(12,6,20)       =         2.033831	     116.529914
	 B(12,7,21)       =         2.031707	     116.408239
	 D(1,2,10,5)      =         0.043164	       2.473098
	 D(1,2,10,13)     =        -3.116914	    -178.586027
	 D(1,8,9,3)       =        -1.029616	     -58.992645
	 D(1,8,9,4)       =         2.301886	     131.888335
	 D(1,8,11,5)      =         0.116704	       6.686627
	 D(1,8,11,14)     =        -3.114041	    -178.421387
	 D(2,1,8,9)       =        -2.832801	    -162.307556
	 D(2,1,8,11)      =        -0.064460	      -3.693274
	 D(2,10,5,11)     =         0.005710	       0.327181
	 D(2,10,5,19)     =        -3.129497	    -179.306963
	 D(3,6,12,7)      =         0.008280	       0.474412
	 D(3,6,12,22)     =         3.126361	     179.127301
	 D(3,9,4,7)       =         0.059843	       3.428734
	 D(3,9,4,18)      =        -3.125947	    -179.103566
	 D(3,9,8,11)      =         2.514585	     144.075114
	 D(4,7,12,6)      =        -0.003552	      -0.203537
	 D(4,7,12,22)     =        -3.121658	    -178.857854
	 D(4,9,3,6)       =        -0.055317	      -3.169408
	 D(4,9,3,17)      =         3.075010	     176.185090
	 D(4,9,8,11)      =        -0.437099	     -25.043906
	 D(5,10,2,16)     =        -3.069729	    -175.882512
	 D(5,11,8,9)      =         2.873574	     164.643636
	 D(6,3,9,8)       =        -3.021585	    -173.124079
	 D(6,12,7,21)     =        -3.133467	    -179.534445
	 D(7,4,9,8)       =         3.021788	     173.135706
	 D(7,12,6,20)     =        -3.090495	    -177.072324
	 D(8,1,2,10)      =        -0.011858	      -0.679423
	 D(8,1,2,16)      =         3.100146	     177.625295
	 D(8,9,3,17)      =         0.108741	       6.230419
	 D(8,9,4,18)      =        -0.164001	      -9.396594
	 D(8,11,5,10)     =        -0.089693	      -5.139028
	 D(8,11,5,19)     =         3.045420	     174.489684
	 D(9,3,6,12)      =         0.023321	       1.336223
	 D(9,3,6,20)      =         3.119074	     178.709793
	 D(9,4,7,12)      =        -0.032662	      -1.871370
	 D(9,4,7,21)      =         3.096434	     177.412577
	 D(9,8,1,15)      =         0.269312	      15.430449
	 D(9,8,11,14)     =        -0.357171	     -20.464379
	 D(10,2,1,15)     =        -3.113296	    -178.378709
	 D(10,5,11,14)    =        -3.141186	    -179.976681
	 D(11,5,10,13)    =        -3.117555	    -178.622729
	 D(11,8,1,15)     =         3.037654	     174.044731
	 D(12,6,3,17)     =        -3.107115	    -178.024595
	 D(12,7,4,18)     =        -3.130654	    -179.373245
	 D(13,10,2,16)    =         0.053378	       3.058363
	 D(13,10,5,19)    =         0.030423	       1.743127
	 D(14,11,5,19)    =        -0.006073	      -0.347969
	 D(15,1,2,16)     =        -0.001291	      -0.073991
	 D(17,3,6,20)     =        -0.011363	      -0.651025
	 D(18,4,7,21)     =        -0.001559	      -0.089298
	 D(20,6,12,22)    =         0.027586	       1.580565
	 D(21,7,12,22)    =         0.031612	       1.811238
	 R(4,14)          =         5.271957	       2.789800

	Current energy   :      -652.8201633676

	Energy change for the previous step:
		Projected    :        -0.0000722015
		Actual       :         0.0001501687

	Performing BFGS update.
	Previous computed or guess Hessian on step 1.
	Steps to be used in Hessian update: 24 23
	Adding user-defined constraint: Fragment 1; Coordinate 62:
		Value =    -1.029616; Fixed value    =    -1.047200
		Force =    -0.019343; Force constant =     1.100000
	Removing off-diagonal coupling between coordinate 62 and others.
	Taking RFO optimization step.
	Going to follow RFO solution 1.
	Rejecting RFO root 1 because normalization gives large value.
	Using RFO vector 2.
	Norm of target step-size    0.07002
	Projected energy change by RFO approximation:        -0.0000509960

	Back-transformation to cartesian coordinates...
	The INTCO_EXCEPTion handler:
	TORS::compute_val: unable to compute torsion value
	Dynamic level is 0.
	exc.g_really_quit() is 0.

  **** Optimization has failed! (in 25 steps) ****
			--------------------------
			 OPTKING Finished Execution 
			--------------------------
	Cleaning optimization helper files.

*** Psi4 exiting successfully. Buy a developer a beer!
